G2NPOcore-PETIM betagalactose in water
46762
    1aaa     O1    1   5.601   1.391   0.728  0.2403 -0.1789  0.1147
    1aaa     C1    2   5.567   1.354   0.593 -0.2996  0.5235  0.0321
    1aaa     H1    3   5.517   1.258   0.582 -0.8589  0.9173 -0.9793
    1aaa     H2    4   5.651   1.349   0.523  0.4759  0.2370  0.9705
    1aaa     C2    5   5.659   1.291   0.807 -0.0051  0.5386  0.4555
    1aaa     H3    6   5.739   1.235   0.758  0.1394 -1.3888  2.7017
    1aaa     H4    7   5.573   1.226   0.830 -1.0443  1.9647  0.7246
    1aaa     C3    8   5.480   1.471   0.542 -0.5215 -0.7131 -0.0778
    1aaa     H5    9   5.399   1.501   0.610  1.3289  0.0338  1.9129
    1aaa     H6   10   5.447   1.451   0.439  1.8260  1.2953 -1.3345
    1aaa     C4   11   5.709   1.353   0.939  0.2894 -0.5279  0.3240
    1aaa     H7   12   5.712   1.278   1.019 -3.1077  0.0305  1.0992
    1aaa     H8   13   5.653   1.441   0.970 -0.5502 -1.8145  2.6614
    1aaa     C5   14   5.572   1.598   0.525 -0.2232 -0.0323  0.1324
    1aaa     H9   15   5.609   1.633   0.623 -1.6306  0.5850  0.4705
    1aaa    H10   16   5.661   1.565   0.470 -0.5876 -1.5761  0.4156
    1aaa     C6   17   5.854   1.400   0.907 -0.5797  0.0228  0.2290
    1aaa    H11   18   5.844   1.484   0.837 -2.2100  2.0388  2.7083
    1aaa    H12   19   5.905   1.313   0.865 -1.1580 -0.7925  1.1648
    1aaa     N1   20   5.512   1.719   0.455 -0.6432 -0.1319  0.1834
    1aaa     N2   21   5.931   1.452   1.019 -0.2218 -0.3376  0.0504
    1aaa     C7   22   6.078   1.467   0.991  0.3690  0.5528  0.1672
    1aaa    H13   23   6.092   1.545   0.914  2.4198 -1.2232 -1.3934
    1aaa    H14   24   6.130   1.494   1.084 -0.4012 -0.9734  1.0630
    1aaa     C8   25   5.871   1.568   1.090  0.5348 -0.1371 -0.0044
    1aaa    H15   26   5.765   1.554   1.114  0.8522 -1.0602  0.9672
    1aaa    H16   27   5.919   1.569   1.189 -0.3810 -1.8035  0.4923
    1aaa     C9   28   5.602   1.839   0.452 -0.3786 -0.3898 -0.4846
    1aaa    H17   29   5.538   1.915   0.405  1.0808  1.8678  0.9572
    1aaa    H18   30   5.628   1.874   0.552 -0.5237 -0.5763 -0.3821
    1aaa    C10   31   5.378   1.756   0.513 -0.7636 -0.0201 -0.1719
    1aaa    H19   32   5.318   1.664   0.517  1.7011 -1.6716  0.5902
    1aaa    H20   33   5.397   1.801   0.611  0.7275  2.5136 -1.5115
    1aaa    C11   34   6.154   1.344   0.935  0.4243 -1.2977  0.4680
    1aaa    H21   35   6.126   1.268   1.009 -3.6584 -1.9933 -1.5528
    1aaa    H22   36   6.110   1.309   0.841  0.8623 -1.2944  0.2591
    1aaa    C12   37   5.891   1.698   1.015 -0.3441 -0.1466  1.2406
    1aaa    H23   38   5.993   1.724   0.984 -0.1160  0.9754  2.8303
    1aaa    H24   39   5.850   1.694   0.913  0.0365  0.8017  1.0380
    1aaa    C13   40   5.732   1.825   0.373 -0.1758 -0.1504 -0.1322
    1aaa    H25   41   5.780   1.923   0.360 -1.4622  0.6342  0.7486
    1aaa    H26   42   5.804   1.767   0.431  0.2934  1.2681  0.7555
    1aaa    C14   43   5.294   1.854   0.416 -0.2311  0.2483 -0.7489
    1aaa    H27   44   5.329   1.955   0.442 -0.0834  0.0166 -0.0170
    1aaa    H28   45   5.318   1.831   0.312 -1.6563  2.3821 -1.6212
    1aaa    C15   46   5.141   1.856   0.446 -0.1291  0.8206 -0.6282
    1aaa    H29   47   5.110   1.752   0.458  1.0815  0.4537 -0.5692
    1aaa    H30   48   5.113   1.904   0.541  0.1447 -1.8338  0.8848
    1aaa    C16   49   5.722   1.745   0.244 -0.8088 -0.5606  0.7660
    1aaa    H31   50   5.701   1.638   0.259  0.4347 -1.1842 -1.5151
    1aaa    H32   51   5.639   1.793   0.191  1.0161 -0.3388 -2.1162
    1aaa    C17   52   5.838   1.816   1.090  0.6723  0.4782  0.0619
    1aaa    H33   53   5.735   1.792   1.120  0.2955 -0.5797 -1.9050
    1aaa    H34   54   5.902   1.840   1.175  1.9520 -0.5955 -0.5714
    1aaa    C18   55   6.306   1.369   0.937  0.5736 -0.6141  0.4777
    1aaa    H35   56   6.338   1.405   1.035  0.0484  0.4208  0.2738
    1aaa    H36   57   6.346   1.273   0.902 -0.9581 -1.5995  1.3187
    2bbb     N1   58   5.105   2.248   0.216  0.0828  0.1183  0.3841
    2bbb     C1   59   5.200   2.131   0.188  0.1032  0.0298  0.2281
    2bbb     H1   60   5.142   2.043   0.157 -0.8660  0.7230  0.0269
    2bbb     H2   61   5.255   2.096   0.276  0.2761 -1.6596 -0.5054
    2bbb     C2   62   5.177   2.362   0.281 -0.1481  0.0612 -0.0796
    2bbb     H3   63   5.277   2.372   0.239 -0.5481  0.0930 -1.0626
    2bbb     H4   64   5.190   2.342   0.388 -1.3620  1.5080  0.3786
    2bbb     C3   65   4.993   2.212   0.301 -0.2578  0.7887  0.0138
    2bbb     H5   66   4.917   2.292   0.299  0.2469  1.2638 -1.6838
    2bbb     H6   67   5.026   2.209   0.406  0.9581 -0.8759 -0.3851
    2bbb     C4   68   4.911   2.076   0.273  0.4638  0.1016 -1.2147
    2bbb     H7   69   4.919   2.049   0.167  2.7043 -1.3695 -0.7404
    2bbb     H8   70   4.807   2.099   0.297  0.7437 -0.8192  1.0750
    2bbb     C5   71   5.298   2.163   0.074 -0.8289  0.1613 -0.1000
    2bbb     H9   72   5.364   2.249   0.090 -0.5883  0.0248 -0.3380
    2bbb    H10   73   5.246   2.188  -0.019  0.5687 -1.2199 -1.3196
    2bbb     C6   74   5.093   2.487   0.265  0.3654  0.8863  0.2667
    2bbb    H11   75   5.000   2.486   0.323  0.9442 -0.1495  1.2369
    2bbb    H12   76   5.075   2.495   0.158  3.7668  0.2361 -0.4848
    2bbb     C7   77   4.941   1.953   0.367 -0.6621 -0.1154 -0.1541
    2bbb    H13   78   4.865   1.876   0.353  2.1907 -3.4217  1.1079
    2bbb    H14   79   4.942   1.986   0.472  0.1750 -1.2193  0.2094
    2bbb     C8   80   5.173   2.615   0.300 -0.0829 -0.2258 -0.9431
    2bbb    H15   81   5.092   2.683   0.330  0.6636  0.0016  0.6513
    2bbb    H16   82   5.209   2.661   0.208 -1.1741  0.4970 -1.0304
    2bbb     C9   83   5.381   2.034   0.048 -0.2721  0.2446  0.1395
    2bbb    H17   84   5.321   1.947   0.020  1.9305 -1.5567  0.7197
    2bbb    H18   85   5.436   2.003   0.138 -2.2913  0.2644  1.4389
    2bbb     O1   86   5.072   1.907   0.334  0.1514 -0.0464 -0.3474
    3bbb     N1   87   6.202   1.858  -0.077 -0.4052 -0.2300 -0.1789
    3bbb     C1   88   6.285   1.886   0.045  0.1599  0.2430  1.0212
    3bbb     H1   89   6.281   1.795   0.106 -1.9053  0.0544  0.6777
    3bbb     H2   90   6.235   1.967   0.099 -2.3137  0.2247 -1.0622
    3bbb     C2   91   6.223   1.959  -0.185 -0.6570 -0.4266 -0.3351
    3bbb     H3   92   6.325   1.999  -0.182 -1.1401  0.8081  0.2278
    3bbb     H4   93   6.159   2.044  -0.159  1.6976  1.1000  0.7917
    3bbb     C3   94   6.057   1.839  -0.050 -0.1695  0.2809 -0.0578
    3bbb     H5   95   5.995   1.861  -0.138 -0.9929  0.4988  0.5699
    3bbb     H6   96   6.022   1.912   0.024  0.8107  0.8960 -0.1792
    3bbb     C4   97   6.020   1.699   0.001  1.0188 -0.3738 -0.0661
    3bbb     H7   98   6.079   1.671   0.088  1.1889  1.0993  0.3229
    3bbb     H8   99   6.050   1.638  -0.085  2.5942 -0.3614  0.4440
    3bbb     C5  100   6.439   1.905   0.035  0.8197 -0.5534  0.4443
    3bbb     H9  101   6.453   2.004  -0.011 -0.4182 -0.6564 -0.2159
    3bbb    H10  102   6.485   1.841  -0.041 -0.4247 -0.8300 -0.1032
    3bbb     C6  103   6.218   1.914  -0.330 -0.2044 -0.0131  0.4968
    3bbb    H11  104   6.219   2.008  -0.386  0.1979  1.0277  2.1611
    3bbb    H12  105   6.119   1.870  -0.347 -0.0688 -0.2782  0.3891
    3bbb     C7  106   5.870   1.685   0.054  0.0046  0.1332 -0.1352
    3bbb    H13  107   5.848   1.580   0.074  0.3804 -0.1857 -1.2933
    3bbb    H14  108   5.804   1.727  -0.024 -0.5771  0.2323  0.4069
    3bbb     C8  109   6.332   1.814  -0.367 -0.3009  0.3868 -0.4011
    3bbb    H15  110   6.285   1.721  -0.401  0.4326 -1.6625  3.5782
    3bbb    H16  111   6.393   1.798  -0.277 -0.8179 -0.1574 -0.1426
    3bbb     C9  112   6.509   1.886   0.177  0.5032  0.9453 -0.1067
    3bbb    H17  113   6.466   1.791   0.210 -0.3325 -0.0622 -3.6879
    3bbb    H18  114   6.479   1.955   0.257 -1.1730 -0.5091  0.5931
    3bbb     O1  115   5.856   1.759   0.177  0.2648 -0.4099 -0.2059
    4bbb     N1  116   5.614   2.219   0.753 -0.5088 -0.8819 -0.4806
    4bbb     C1  117   5.519   2.318   0.811 -0.2223  0.5219  0.1360
    4bbb     H1  118   5.526   2.407   0.748 -0.6509  1.7673  1.7710
    4bbb     H2  119   5.543   2.350   0.914 -1.5815 -0.9809  0.9662
    4bbb     C2  120   5.589   2.167   0.618  0.1350  0.5575 -0.7028
    4bbb     H3  121   5.518   2.084   0.627  2.4083 -1.3662  0.7925
    4bbb     H4  122   5.678   2.114   0.582  0.1992  0.5957 -0.5972
    4bbb     C3  123   5.655   2.112   0.848  0.3754  0.1906 -0.4915
    4bbb     H5  124   5.715   2.031   0.804  1.0656  0.0200  0.7282
    4bbb     H6  125   5.564   2.066   0.889 -0.5683  1.3129 -1.2505
    4bbb     C4  126   5.750   2.159   0.960 -0.0761  0.2319 -0.4231
    4bbb     H7  127   5.712   2.250   1.009  0.0646  0.0188  0.0886
    4bbb     H8  128   5.844   2.195   0.918 -0.7079  3.2743  0.5106
    4bbb     C5  129   5.373   2.278   0.806  0.2460  0.1283  0.2992
    4bbb     H9  130   5.362   2.183   0.860 -2.7414  1.6654  2.6962
    4bbb    H10  131   5.327   2.261   0.708 -1.6973 -1.2289  1.3874
    4bbb     C6  132   5.554   2.265   0.508 -0.1629  0.2099 -0.0765
    4bbb    H11  133   5.625   2.348   0.515 -0.0116  0.0730  0.0099
    4bbb    H12  134   5.457   2.312   0.529 -0.8052 -1.5591  1.0812
    4bbb     C7  135   5.779   2.045   1.060  0.3029  0.2704 -0.7142
    4bbb    H13  136   5.692   2.030   1.126 -0.5128  1.3187 -1.4953
    4bbb    H14  137   5.845   2.085   1.138 -1.3049  1.9171 -0.0979
    4bbb     C8  138   5.553   2.202   0.369 -0.5041 -0.3829  0.4199
    4bbb    H15  139   5.516   2.284   0.305  0.3393  1.1602  1.8157
    4bbb    H16  140   5.479   2.121   0.363  0.2933 -1.0701 -0.3113
    4bbb     C9  141   5.276   2.384   0.868  0.1459  0.1231  0.1038
    4bbb    H17  142   5.171   2.359   0.849 -0.4804  3.7572 -2.3318
    4bbb    H18  143   5.297   2.482   0.822  2.3599 -0.6932 -0.7604
    4bbb     O1  144   5.832   1.924   0.999 -0.4064  0.1123  0.5903
    5bbb     N1  145   6.687   1.666   0.541  0.8313  0.6411  0.2988
    5bbb     C1  146   6.833   1.673   0.538  0.1419  0.0607  0.3125
    5bbb     H1  147   6.865   1.568   0.526 -0.2096 -0.2342  1.7267
    5bbb     H2  148   6.863   1.720   0.632 -0.7328 -0.0578  0.6578
    5bbb     C2  149   6.620   1.624   0.409  0.3097 -0.1342  0.4878
    5bbb     H3  150   6.657   1.687   0.327 -0.2839 -2.3724 -1.6132
    5bbb     H4  151   6.514   1.646   0.426  0.5602  0.6253  1.1272
    5bbb     C3  152   6.650   1.577   0.653 -0.6085  0.3175 -0.5631
    5bbb     H5  153   6.704   1.597   0.746 -0.6818 -1.2881 -0.1511
    5bbb     H6  154   6.688   1.477   0.627  1.8835  0.5555  1.7092
    5bbb     C4  155   6.498   1.573   0.681 -0.2227 -1.1191 -0.2005
    5bbb     H7  156   6.434   1.534   0.601 -0.3499 -0.7719 -0.2698
    5bbb     H8  157   6.469   1.673   0.715  1.8468  0.7491 -3.3978
    5bbb     C5  158   6.898   1.763   0.427  0.2684  0.2657 -0.1160
    5bbb     H9  159   6.847   1.860   0.428 -0.9833 -0.3295 -1.6096
    5bbb    H10  160   6.868   1.721   0.330  1.2273  1.1507 -0.8132
    5bbb     C6  161   6.638   1.471   0.368  0.2590  0.0191  0.4591
    5bbb    H11  162   6.610   1.415   0.457 -2.1738  2.0710  1.1077
    5bbb    H12  163   6.743   1.449   0.344  0.2211  0.0525  0.2560
    5bbb     C7  164   6.469   1.474   0.793 -1.1187  0.1945  0.3124
    5bbb    H13  165   6.521   1.501   0.886 -2.2128 -3.2780  2.0913
    5bbb    H14  166   6.515   1.378   0.768  2.0609  1.8235 -0.6018
    5bbb     C8  167   6.552   1.410   0.254  0.6562  0.2504  0.0896
    5bbb    H15  168   6.593   1.312   0.227 -0.6937 -0.1250 -0.6971
    5bbb    H16  169   6.554   1.478   0.168 -0.0713 -0.6554 -0.6673
    5bbb     C9  170   7.047   1.768   0.453  0.9249  0.0288 -0.2502
    5bbb    H17  171   7.093   1.668   0.449  0.6976 -0.1835  1.4935
    5bbb    H18  172   7.060   1.806   0.555 -0.7809  1.7496 -0.6133
    5bbb     O1  173   6.332   1.465   0.836  0.4966 -0.1339  0.1964
    6bbb     N1  174   5.665   2.664   0.306  0.8790  0.0622  1.0748
    6bbb     C1  175   5.800   2.680   0.358  0.3020 -0.2812  0.1206
    6bbb     H1  176   5.869   2.685   0.273 -0.9962  0.1601 -0.9232
    6bbb     H2  177   5.819   2.598   0.429 -0.6629  0.2068  0.9762
    6bbb     C2  178   5.659   2.572   0.182  0.2817  0.6470  0.2276
    6bbb     H3  179   5.675   2.471   0.221 -1.8041  0.8348  1.7167
    6bbb     H4  180   5.737   2.601   0.110 -0.9591 -0.7588 -1.7721
    6bbb     C3  181   5.558   2.636   0.394  0.5581 -0.0964 -0.3845
    6bbb     H5  182   5.600   2.648   0.495  1.7443  0.2489 -0.8996
    6bbb     H6  183   5.516   2.536   0.378  1.2150 -0.3375 -0.6655
    6bbb     C4  184   5.450   2.743   0.382 -0.1857  0.5104 -0.1641
    6bbb     H7  185   5.406   2.762   0.283 -0.4081 -0.4089 -0.2462
    6bbb     H8  186   5.490   2.838   0.421 -1.8021  0.0378  2.9715
    6bbb     C5  187   5.819   2.809   0.438 -0.5484 -0.3876  0.1043
    6bbb     H9  188   5.757   2.818   0.527 -1.4529 -1.5998 -0.3846
    6bbb    H10  189   5.790   2.896   0.377  0.6557  0.4038  0.6127
    6bbb     C6  190   5.528   2.578   0.103 -0.5849  0.5364  0.1854
    6bbb    H11  191   5.526   2.680   0.064 -2.2537 -0.0930 -1.5330
    6bbb    H12  192   5.441   2.567   0.169 -0.7672  1.0425  0.0371
    6bbb     C7  193   5.325   2.709   0.470  0.1462 -0.2565  0.8051
    6bbb    H13  194   5.249   2.788   0.465 -1.0652 -1.3809  1.1109
    6bbb    H14  195   5.359   2.701   0.574  1.7629  1.4461  0.4781
    6bbb     C8  196   5.521   2.483  -0.018 -0.3866  0.4701  0.1426
    6bbb    H15  197   5.540   2.386   0.031  0.2938  0.8983  0.7559
    6bbb    H16  198   5.612   2.504  -0.076 -0.3663  0.0264  0.0063
    6bbb     C9  199   5.969   2.845   0.475 -0.2492 -0.6102 -0.5493
    6bbb    H17  200   6.004   2.771   0.547  0.0148 -0.7345 -0.8038
    6bbb    H18  201   5.970   2.945   0.521  0.8544 -1.5419  1.5648
    6bbb     O1  202   5.269   2.587   0.407 -0.1979  0.2280 -0.2499
    7bbb     N1  203   5.739   1.925  -0.438  0.7295  0.0463  0.3568
    7bbb     C1  204   5.755   1.808  -0.531  0.8296  0.0840 -0.2126
    7bbb     H1  205   5.830   1.738  -0.492 -0.7428 -0.7983  1.3766
    7bbb     H2  206   5.778   1.841  -0.633 -4.7744 -0.6095 -2.0394
    7bbb     C2  207   5.841   2.032  -0.434  0.7296  0.6132 -0.1669
    7bbb     H3  208   5.925   1.986  -0.380 -0.8609 -0.7388  1.2926
    7bbb     H4  209   5.811   2.119  -0.374  0.6240 -0.3677  1.2550
    7bbb     C3  210   5.690   1.894  -0.304 -0.2592  0.3670  0.1984
    7bbb     H5  211   5.773   1.863  -0.239 -0.4104 -0.9373 -0.2059
    7bbb     H6  212   5.619   1.811  -0.315  0.4424  0.0035 -1.9757
    7bbb     C4  213   5.614   2.007  -0.238 -0.5080 -0.5816 -0.5313
    7bbb     H7  214   5.543   2.060  -0.302 -1.8354  3.5799  3.7673
    7bbb     H8  215   5.683   2.083  -0.200 -0.0195 -1.7979  1.1301
    7bbb     C5  216   5.621   1.736  -0.545  0.1834  0.0913  0.2960
    7bbb     H9  217   5.532   1.794  -0.518  0.4496  0.1650  1.0226
    7bbb    H10  218   5.622   1.641  -0.489 -0.8272  0.4143  0.8867
    7bbb     C6  219   5.885   2.083  -0.573  0.6110 -0.7970 -0.4498
    7bbb    H11  220   5.798   2.114  -0.633  0.5116  0.7111  0.4366
    7bbb    H12  221   5.938   2.004  -0.629 -1.1355 -0.8109 -2.1671
    7bbb     C7  222   5.530   1.959  -0.118  0.6233  0.4591 -0.3268
    7bbb    H13  223   5.595   1.907  -0.047 -0.5121  2.1369  2.0769
    7bbb    H14  224   5.443   1.900  -0.149 -1.4181  3.7755 -1.5063
    7bbb     C8  225   5.996   2.192  -0.552  0.9108 -0.6241  0.2396
    7bbb    H15  226   6.068   2.183  -0.634 -0.0726  0.5213 -0.7803
    7bbb    H16  227   6.049   2.173  -0.457 -0.0195  1.5231  1.2717
    7bbb     C9  228   5.589   1.694  -0.695  0.0876 -0.2617  0.5394
    7bbb    H17  229   5.510   1.618  -0.696 -2.9448  2.6385  1.5416
    7bbb    H18  230   5.686   1.657  -0.731  0.0112  0.1986 -0.1529
    7bbb     O1  231   5.475   2.069  -0.052 -0.2949  0.1652  0.8898
    8bbb     N1  232   6.841   2.011  -0.663 -0.4988 -0.1972  0.3833
    8bbb     C1  233   6.835   1.946  -0.798 -0.7273 -0.3821 -0.4693
    8bbb     H1  234   6.903   2.003  -0.862  0.3720  1.0721  1.8405
    8bbb     H2  235   6.731   1.942  -0.834 -1.1056  2.8467 -0.0364
    8bbb     C2  236   6.842   2.158  -0.662  0.7531  0.0224  0.1192
    8bbb     H3  237   6.834   2.187  -0.556 -0.5843  0.4943 -0.0974
    8bbb     H4  238   6.754   2.199  -0.713  0.9968  0.3359 -0.0546
    8bbb     C3  239   6.770   1.939  -0.559 -0.5599 -0.0705 -0.5915
    8bbb     H5  240   6.809   1.961  -0.458 -1.1898  0.6337 -0.4962
    8bbb     H6  241   6.805   1.836  -0.575  0.8658  0.6063 -2.0075
    8bbb     C4  242   6.616   1.950  -0.564 -0.0101  0.1126 -0.0196
    8bbb     H7  243   6.570   1.904  -0.652 -1.3014 -1.8139  1.5674
    8bbb     H8  244   6.597   2.058  -0.555 -0.2848  0.3589 -2.8285
    8bbb     C5  245   6.904   1.809  -0.809  0.2348 -0.7229 -0.2324
    8bbb     H9  246   6.912   1.786  -0.916  0.0543 -0.2638 -0.3450
    8bbb    H10  247   6.843   1.734  -0.758  1.8871 -1.3196  0.9820
    8bbb     C6  248   6.967   2.217  -0.716  0.6372 -0.4521 -0.2176
    8bbb    H11  249   6.973   2.181  -0.820 -1.6529 -1.3424 -0.1079
    8bbb    H12  250   7.056   2.181  -0.663  1.8764  2.0014 -0.4666
    8bbb     C7  251   6.551   1.870  -0.450 -0.3501 -0.4015  0.0784
    8bbb    H13  252   6.564   1.938  -0.364 -0.6971 -2.1297  1.5644
    8bbb    H14  253   6.594   1.773  -0.424  0.1953  0.3947  2.4263
    8bbb     C8  254   6.976   2.366  -0.726 -0.6989  0.8490  0.6783
    8bbb    H15  255   6.885   2.389  -0.782  0.5997  2.3150 -0.9405
    8bbb    H16  256   7.062   2.394  -0.788  0.1905  1.4887  2.1305
    8bbb     C9  257   7.046   1.809  -0.743  0.0750 -0.4612  0.3685
    8bbb    H17  258   7.023   1.834  -0.639  0.0680  1.0123  0.0399
    8bbb    H18  259   7.106   1.896  -0.771 -0.3059 -0.7450 -1.4832
    8bbb     O1  260   6.409   1.859  -0.474  0.2707 -0.4281  0.1605
    9bbb     N1  261   6.952   1.846  -0.150  0.7413  0.0280  0.5191
    9bbb     C1  262   7.012   1.958  -0.229 -0.2529  0.3636  0.4768
    9bbb     H1  263   7.054   2.033  -0.162  0.6347 -1.0213  1.4991
    9bbb     H2  264   6.927   1.996  -0.288  0.1384 -0.9711 -1.0285
    9bbb     C2  265   7.044   1.758  -0.075  0.6214 -0.4632  0.5657
    9bbb     H3  266   7.109   1.817  -0.010 -1.3554  1.0123  1.3119
    9bbb     H4  267   7.106   1.702  -0.147 -0.3956  0.3013 -0.9716
    9bbb     C3  268   6.823   1.888  -0.082 -0.3063  0.3505 -0.3424
    9bbb     H5  269   6.766   1.799  -0.056 -0.7452  0.7267  0.0038
    9bbb     H6  270   6.760   1.945  -0.151 -2.2704 -0.2047  0.9107
    9bbb     C4  271   6.851   1.975   0.045  1.0321  0.2563 -0.3617
    9bbb     H7  272   6.887   2.073   0.014  0.9256  0.6834  0.8109
    9bbb     H8  273   6.930   1.933   0.109 -0.5720 -0.9828  0.8912
    9bbb     C5  274   7.116   1.905  -0.334  0.2759  0.7505 -0.0012
    9bbb     H9  275   7.070   1.821  -0.388 -0.8338  1.4951 -0.2564
    9bbb    H10  276   7.201   1.880  -0.270  0.8407  2.8976  0.1645
    9bbb     C6  277   6.976   1.650   0.016  1.2391 -0.6925  0.4847
    9bbb    H11  278   6.891   1.612  -0.042  0.2445  0.4609  1.1746
    9bbb    H12  279   6.935   1.701   0.104 -0.5510  1.0365 -1.2656
    9bbb     C7  280   6.715   1.995   0.128 -0.2813  0.3722 -0.2202
    9bbb    H13  281   6.654   2.057   0.062 -0.5066  1.2566  0.7807
    9bbb    H14  282   6.718   2.046   0.226  0.2310  1.0940 -0.5995
    9bbb     C8  283   7.064   1.536   0.066 -1.0859  0.4038 -0.2197
    9bbb    H15  284   7.007   1.466   0.128  0.9928 -0.4010  0.8705
    9bbb    H16  285   7.126   1.593   0.135  0.9163 -1.2487 -0.5484
    9bbb     C9  286   7.144   2.021  -0.423  0.3957 -0.2818 -0.6329
    9bbb    H17  287   7.047   2.043  -0.470  1.0851  0.9895 -1.5297
    9bbb    H18  288   7.217   1.994  -0.500  1.4652  1.0506 -0.1253
    9bbb     O1  289   6.646   1.869   0.156 -0.0308 -0.2612  0.0564
   10bbb     N1  290   6.016   2.299   0.068 -0.0858 -0.7610  0.2008
   10bbb     C1  291   6.012   2.269  -0.080  0.0541 -0.5099  0.5940
   10bbb     H1  292   6.024   2.162  -0.099  0.8516 -0.1967 -0.7260
   10bbb     H2  293   6.106   2.309  -0.120  0.2407 -0.8995  0.6383
   10bbb     C2  294   6.142   2.248   0.133  0.1784 -0.5089 -0.3916
   10bbb     H3  295   6.132   2.139   0.134 -3.3296 -0.3230  2.0002
   10bbb     H4  296   6.149   2.284   0.236 -2.3567 -0.5052 -0.1507
   10bbb     C3  297   5.886   2.277   0.143 -0.2609  1.4031  1.3381
   10bbb     H5  298   5.809   2.334   0.091  0.4223  0.2963 -1.0243
   10bbb     H6  299   5.895   2.315   0.246  0.4561 -0.9963  2.2272
   10bbb     C4  300   5.842   2.124   0.145  0.0943 -0.6644 -0.3828
   10bbb     H7  301   5.902   2.058   0.209 -0.7581 -1.5084 -0.4273
   10bbb     H8  302   5.855   2.081   0.045  2.6655 -0.2447 -0.2951
   10bbb     C5  303   5.907   2.339  -0.169  1.0052  0.7953 -0.0788
   10bbb     H9  304   5.804   2.309  -0.147 -0.3602  3.0372 -2.8277
   10bbb    H10  305   5.914   2.318  -0.276 -0.2459 -0.3142  0.0369
   10bbb     C6  306   6.279   2.296   0.071  0.7541  0.0279 -0.4276
   10bbb    H11  307   6.278   2.403   0.048 -1.7741 -0.0441 -0.9011
   10bbb    H12  308   6.273   2.241  -0.024 -2.3986  0.7827 -0.7858
   10bbb     C7  309   5.693   2.118   0.187  0.1056  0.2409 -0.3636
   10bbb    H13  310   5.659   2.015   0.172 -0.3618  0.3497 -0.0820
   10bbb    H14  311   5.630   2.188   0.129 -0.8438 -2.0586 -2.2743
   10bbb     C8  312   6.407   2.274   0.165  0.1430 -0.0602  0.6457
   10bbb    H15  313   6.498   2.299   0.108 -0.5215 -1.0685 -0.9356
   10bbb    H16  314   6.416   2.166   0.179  1.2578 -0.1007 -0.1906
   10bbb     C9  315   5.912   2.490  -0.151  0.3598 -0.4295  0.5199
   10bbb    H17  316   6.009   2.524  -0.191  0.0009 -0.7970 -0.7125
   10bbb    H18  317   5.895   2.518  -0.047 -0.8050  0.6018  0.0765
   10bbb     O1  318   5.680   2.152   0.331  0.3398 -0.1767  0.2536
   11bbb     N1  319   5.480   2.303   1.420 -0.3180  0.0548 -0.1770
   11bbb     C1  320   5.387   2.322   1.534 -0.7190 -0.0855  0.1001
   11bbb     H1  321   5.283   2.312   1.501 -0.0797  2.0490 -2.9972
   11bbb     H2  322   5.392   2.429   1.560  1.1198 -0.4252  1.3652
   11bbb     C2  323   5.619   2.324   1.456 -0.2680 -0.8062  0.0252
   11bbb     H3  324   5.647   2.267   1.545  2.1550 -0.6199 -0.5367
   11bbb     H4  325   5.640   2.430   1.477 -1.1406 -0.7935  0.9219
   11bbb     C3  326   5.440   2.362   1.282 -0.1442 -0.0547 -0.3728
   11bbb     H5  327   5.507   2.341   1.198  0.7090  2.1345 -0.3230
   11bbb     H6  328   5.441   2.471   1.291  1.3182 -0.1439  0.9850
   11bbb     C4  329   5.300   2.319   1.245  0.8952 -0.0117  0.1810
   11bbb     H7  330   5.232   2.402   1.264  1.5833  0.4929  0.4889
   11bbb     H8  331   5.263   2.236   1.308 -2.5367 -0.2382 -1.8595
   11bbb     C5  332   5.410   2.239   1.663  0.3151  0.2666 -0.6840
   11bbb     H9  333   5.323   2.246   1.730 -0.4185  1.5541 -1.7369
   11bbb    H10  334   5.495   2.276   1.722 -1.9547  0.2716  2.8976
   11bbb     C6  335   5.726   2.269   1.355 -0.8667  1.2650 -0.7920
   11bbb    H11  336   5.725   2.314   1.255  1.6140 -0.8283 -1.8731
   11bbb    H12  337   5.721   2.160   1.343 -0.1646  1.1978 -0.5452
   11bbb     C7  338   5.279   2.277   1.103  0.7875  0.2370  0.2120
   11bbb    H13  339   5.173   2.253   1.097  0.2411  2.6421 -1.7294
   11bbb    H14  340   5.337   2.188   1.079  1.1554 -0.7073  4.0258
   11bbb     C8  341   5.863   2.289   1.417  0.8760 -0.0182 -0.5488
   11bbb    H15  342   5.863   2.241   1.515 -1.4941  2.8770  1.0155
   11bbb    H16  343   5.887   2.394   1.436  0.3327 -0.3599  2.4620
   11bbb     C9  344   5.430   2.082   1.667 -0.3594  0.1770  0.1890
   11bbb    H17  345   5.440   2.058   1.774  4.5399  1.7682  0.3179
   11bbb    H18  346   5.524   2.048   1.623  0.3629 -1.1519  2.5815
   11bbb     O1  347   5.315   2.383   1.011  0.0372 -0.7714 -0.5129
   12bbb     N1  348   6.002   1.370   0.435  0.2974  0.5248 -0.7125
   12bbb     C1  349   5.978   1.270   0.543  0.0668  0.5654 -0.1133
   12bbb     H1  350   5.883   1.292   0.593  0.2473  1.5928 -0.1938
   12bbb     H2  351   6.043   1.267   0.631 -1.2103 -1.5094  0.8533
   12bbb     C2  352   5.989   1.510   0.474 -0.6163 -0.2908  0.3809
   12bbb     H3  353   5.890   1.525   0.518  0.2395  0.9608  1.9612
   12bbb     H4  354   5.975   1.584   0.394  1.6935  2.4603  2.3231
   12bbb     C3  355   6.137   1.344   0.371  0.0879 -0.0148 -0.4153
   12bbb     H5  356   6.132   1.238   0.344 -2.6739 -0.3329  1.0027
   12bbb     H6  357   6.217   1.363   0.444 -0.8823  0.9804  0.4301
   12bbb     C4  358   6.175   1.426   0.253  0.5331 -0.1365  1.2769
   12bbb     H7  359   6.190   1.531   0.280  2.8263 -0.5201  1.6529
   12bbb     H8  360   6.099   1.424   0.174  1.7311  1.8201 -0.0141
   12bbb     C5  361   5.964   1.124   0.490 -0.0497 -0.6433 -0.5088
   12bbb     H9  362   6.062   1.093   0.450  1.8484  1.4858  2.1093
   12bbb    H10  363   5.906   1.123   0.397  1.7050 -1.3531 -1.6648
   12bbb     C6  364   6.085   1.572   0.581 -0.1216 -0.0040 -0.0908
   12bbb    H11  365   6.183   1.590   0.535  0.6377 -1.5020  0.8560
   12bbb    H12  366   6.101   1.510   0.670  1.9193 -0.4019 -0.6847
   12bbb     C7  367   6.318   1.384   0.205  0.3650 -0.7962  0.4137
   12bbb    H13  368   6.347   1.444   0.118  1.7496  0.1750  1.4997
   12bbb    H14  369   6.320   1.281   0.168  0.6335  0.0042 -1.9673
   12bbb     C8  370   6.024   1.706   0.624  0.3486  0.0490  0.5389
   12bbb    H15  371   5.918   1.698   0.647  0.4808 -0.3214  1.0390
   12bbb    H16  372   6.033   1.759   0.528  0.4032 -1.4067 -0.2860
   12bbb     C9  373   5.905   1.038   0.596  0.0174 -0.1415 -0.0965
   12bbb    H17  374   5.874   0.945   0.547 -0.8355 -0.4094  0.9152
   12bbb    H18  375   5.810   1.078   0.633  0.0741 -0.1544  0.0674
   12bbb     O1  376   6.418   1.403   0.306  0.2416  0.0531  0.1243
   13bbb     N1  377   7.366   2.099   0.099  0.1424 -0.1655 -0.0234
   13bbb     C1  378   7.374   2.068  -0.047  0.2208 -0.5782  0.4048
   13bbb     H1  379   7.424   2.157  -0.087 -2.6254  1.7678  1.6828
   13bbb     H2  380   7.271   2.059  -0.085  0.5011 -2.2291 -0.0744
   13bbb     C2  381   7.322   2.243   0.119 -0.0919 -0.0156  0.2091
   13bbb     H3  382   7.377   2.308   0.050 -1.0271 -1.2299 -1.7738
   13bbb     H4  383   7.348   2.281   0.219 -1.7555 -1.8569  1.4241
   13bbb     C3  384   7.290   1.993   0.178 -0.4643  0.3056 -0.8515
   13bbb     H5  385   7.327   1.891   0.162  0.0355  0.2229  0.6542
   13bbb     H6  386   7.187   1.986   0.142 -1.1450 -1.4026  1.2276
   13bbb     C4  387   7.306   2.020   0.330  0.2369 -0.2928 -0.1985
   13bbb     H7  388   7.248   2.107   0.364 -1.0121 -0.9979 -0.4757
   13bbb     H8  389   7.411   2.040   0.352  0.3594 -2.0527  1.0020
   13bbb     C5  390   7.466   1.945  -0.082  0.0012 -0.5627 -0.1187
   13bbb     H9  391   7.404   1.857  -0.061 -1.5687  0.0067 -2.0304
   13bbb    H10  392   7.557   1.949  -0.021 -0.2986  0.5939  0.2788
   13bbb     C6  393   7.173   2.271   0.107 -0.3786  0.0334  0.5932
   13bbb    H11  394   7.121   2.205   0.177 -1.1023 -0.7551 -0.6595
   13bbb    H12  395   7.132   2.233   0.013  0.4043 -0.0592  0.2792
   13bbb     C7  396   7.248   1.894   0.406 -0.6465 -0.2766  0.8110
   13bbb    H13  397   7.254   1.911   0.514  1.3235  0.9928  0.5564
   13bbb    H14  398   7.322   1.816   0.385  2.5676  2.6893  0.1015
   13bbb     C8  399   7.142   2.423   0.132  0.3195  0.1076 -0.3114
   13bbb    H15  400   7.162   2.437   0.239  1.5986 -2.1079 -0.2004
   13bbb    H16  401   7.035   2.443   0.120  0.2556  0.2416  0.4154
   13bbb     C9  402   7.496   1.945  -0.232 -0.4020  0.0887  0.0581
   13bbb    H17  403   7.527   2.047  -0.257  1.0755  0.1448  1.9078
   13bbb    H18  404   7.406   1.931  -0.293  0.7453 -0.7108 -1.5305
   13bbb     O1  405   7.113   1.860   0.361  0.1666 -0.5177  0.2556
   14ccc     C1  406   5.519   2.357  -0.411  0.5714 -0.1501 -1.1170
   14ccc     C2  407   5.391   2.359  -0.505 -0.2469 -0.3768 -0.7471
   14ccc     H1  408   5.532   2.256  -0.371  0.5854 -1.0850 -3.3379
   14ccc     H2  409   5.420   2.287  -0.583  2.5412  0.2452 -0.4094
   14ccc     C3  410   5.267   2.324  -0.412 -0.1435  0.1798 -0.1727
   14ccc     C4  411   5.269   2.416  -0.289  0.1005 -0.0727 -0.2192
   14ccc     C5  412   5.394   2.399  -0.208 -0.4754  0.4544  0.0328
   14ccc     H3  413   5.278   2.519  -0.324 -0.7579 -0.4342 -1.5643
   14ccc     H4  414   5.276   2.218  -0.385 -0.7257 -0.6372 -2.8659
   14ccc     H5  415   5.410   2.294  -0.181 -0.3554  0.4708  0.0288
   14ccc     O1  416   5.401   2.483  -0.093 -0.1459 -0.0405 -0.7182
   14ccc     O2  417   5.146   2.385  -0.212 -0.2577  0.0175  0.2196
   14ccc     O3  418   5.141   2.336  -0.476  0.1290 -0.4278  0.1943
   14ccc     O4  419   5.377   2.487  -0.562 -0.1089 -0.1528 -0.5424
   14ccc     C6  420   5.648   2.382  -0.490  0.1065  0.4813  0.4760
   14ccc     H6  421   5.147   2.270  -0.547  1.0563 -0.2427  0.0907
   14ccc     H7  422   5.314   2.483  -0.635  0.4800 -1.1126 -1.0121
   14ccc     H8  423   5.087   2.350  -0.281 -3.0084  1.5593  1.6255
   14ccc     H9  424   5.666   2.304  -0.565 -1.4811  0.2559  0.2868
   14ccc    H10  425   5.735   2.379  -0.423  0.0013 -0.3472  0.5910
   14ccc     O5  426   5.629   2.509  -0.550  0.3288 -0.0777  0.1429
   14ccc    H11  427   5.534   2.509  -0.572 -0.0794  0.3459  1.7348
   14ccc     O6  428   5.508   2.441  -0.293  0.2061 -0.0270 -0.1087
   15ccc     C1  429   6.369   3.001   0.456 -0.7626 -0.2597  0.8186
   15ccc     C2  430   6.441   2.988   0.325  0.1880 -0.2412 -0.0969
   15ccc     H1  431   6.407   2.931   0.532  1.6227 -0.9832 -0.9180
   15ccc     H2  432   6.545   3.017   0.344 -0.2869  0.2101  1.9759
   15ccc     C3  433   6.430   2.845   0.269 -1.2024  0.7490  0.2615
   15ccc     C4  434   6.277   2.790   0.271 -0.1697  0.6769  0.9182
   15ccc     C5  435   6.197   2.836   0.393 -0.6292  0.3592  0.1001
   15ccc     H3  436   6.231   2.827   0.178  2.0684 -0.6205 -0.7979
   15ccc     H4  437   6.493   2.770   0.319 -2.7920 -1.2762 -0.6292
   15ccc     H5  438   6.229   2.765   0.470 -1.7074 -0.3055 -0.0534
   15ccc     O1  439   6.055   2.830   0.369 -0.2130  0.4759 -0.3264
   15ccc     O2  440   6.291   2.644   0.271 -0.1562 -0.4896  0.0947
   15ccc     O3  441   6.464   2.858   0.134  0.1728  0.0746  0.2758
   15ccc     O4  442   6.380   3.086   0.227  0.4245 -0.3577 -0.7069
   15ccc     C6  443   6.391   3.143   0.513  0.1464  0.4468 -0.3558
   15ccc     H6  444   6.509   2.775   0.111  0.8697  0.8970 -1.5514
   15ccc     H7  445   6.397   3.030   0.150  0.8329 -1.9351  0.4813
   15ccc     H8  446   6.223   2.615   0.207 -0.3863 -0.3292  0.2635
   15ccc     H9  447   6.338   3.208   0.442 -1.5622 -1.2507 -0.7410
   15ccc    H10  448   6.497   3.169   0.524  0.0179  0.2232  1.8069
   15ccc     O5  449   6.329   3.147   0.639 -0.4130 -1.1729  0.3190
   15ccc    H11  450   6.398   3.187   0.695 -0.6867  0.1122 -0.2046
   15ccc     O6  451   6.232   2.968   0.431  0.0006 -0.4257  0.0236
   16ccc     C1  452   6.231   2.522  -0.433  0.0777 -0.1230 -1.1809
   16ccc     C2  453   6.175   2.667  -0.447  0.5464  0.0458  0.8974
   16ccc     H1  454   6.295   2.521  -0.522  1.2166  3.5392 -0.5418
   16ccc     H2  455   6.260   2.733  -0.466 -0.6780  1.3303 -0.3037
   16ccc     C3  456   6.072   2.688  -0.559  0.0760 -0.2975  0.3286
   16ccc     C4  457   5.964   2.575  -0.555  0.1148 -0.1176  0.3082
   16ccc     C5  458   6.029   2.436  -0.559  0.0524 -0.0809 -0.5164
   16ccc     H3  459   5.918   2.587  -0.456  1.1945 -2.5806  1.1933
   16ccc     H4  460   6.133   2.683  -0.651  0.7507 -0.0901  0.7579
   16ccc     H5  461   6.085   2.434  -0.653  1.0695 -1.0226  0.0900
   16ccc     O1  462   5.940   2.323  -0.545 -0.1124  0.1549  0.0122
   16ccc     O2  463   5.868   2.597  -0.663 -0.3154 -0.6411 -0.2317
   16ccc     O3  464   6.017   2.825  -0.557  0.9538  0.2643 -0.5960
   16ccc     O4  465   6.125   2.709  -0.323 -0.1833 -0.2560  0.5880
   16ccc     C6  466   6.317   2.489  -0.312 -0.4405 -0.5500  0.6519
   16ccc     H6  467   6.097   2.876  -0.579 -0.0983  1.3008 -2.2006
   16ccc     H7  468   6.098   2.803  -0.328 -1.4666 -0.5842  1.0192
   16ccc     H8  469   5.789   2.550  -0.631 -0.9279  1.4891  1.6273
   16ccc     H9  470   6.252   2.502  -0.225  0.4449  2.0718  0.9877
   16ccc    H10  471   6.406   2.553  -0.308 -0.4817 -0.5504  1.6399
   16ccc     O5  472   6.353   2.351  -0.314 -0.3401 -0.5571  0.0572
   16ccc    H11  473   6.436   2.344  -0.264 -1.8678  0.3359  2.9273
   16ccc     O6  474   6.131   2.421  -0.454 -0.1540 -0.2862 -0.3090
   17ccc     C1  475   5.612   1.697  -1.099  1.0378  0.1827 -0.9309
   17ccc     C2  476   5.547   1.811  -1.182 -0.5539  0.1060 -0.6052
   17ccc     H1  477   5.544   1.613  -1.084 -1.6273  2.2074 -0.9758
   17ccc     H2  478   5.511   1.773  -1.278 -0.5244  1.8612 -1.3486
   17ccc     C3  479   5.417   1.858  -1.116 -0.1565 -1.3690 -0.0121
   17ccc     C4  480   5.437   1.904  -0.970 -0.3028 -0.6915 -0.1051
   17ccc     C5  481   5.501   1.777  -0.899  0.5238  0.0017  0.6236
   17ccc     H3  482   5.511   1.984  -0.972  0.0797 -0.9865  1.4788
   17ccc     H4  483   5.354   1.769  -1.105  0.5470 -1.7649  0.9285
   17ccc     H5  484   5.431   1.694  -0.913 -1.0017  1.2459  0.5743
   17ccc     O1  485   5.538   1.809  -0.765 -0.4960 -0.1562  0.6393
   17ccc     O2  486   5.314   1.944  -0.908  0.6712 -0.0675 -0.0772
   17ccc     O3  487   5.356   1.966  -1.187  0.2104  0.5123  0.6153
   17ccc     O4  488   5.635   1.916  -1.207 -0.1573  0.1005 -0.0468
   17ccc     C6  489   5.754   1.660  -1.159  0.1937 -0.0468 -0.5107
   17ccc     H6  490   5.299   1.920  -1.251 -0.6469  2.1393  0.1579
   17ccc     H7  491   5.602   1.944  -1.295  0.2865  0.2997 -0.1541
   17ccc     H8  492   5.295   2.032  -0.947  1.7086  0.9007  1.5056
   17ccc     H9  493   5.743   1.647  -1.268 -0.1376  0.6830 -0.5760
   17ccc    H10  494   5.786   1.559  -1.131 -0.6427 -0.2220 -0.1583
   17ccc     O5  495   5.847   1.765  -1.129  0.1667  0.0027 -0.0219
   17ccc    H11  496   5.778   1.834  -1.130 -0.5813 -0.6474  1.4967
   17ccc     O6  497   5.625   1.754  -0.970 -0.0405  0.6473  0.1248
   18ccc     C1  498   7.104   2.767  -0.619  0.2058 -0.3341 -0.4183
   18ccc     C2  499   7.077   2.816  -0.475  1.1450  0.8463  0.1376
   18ccc     H1  500   7.032   2.822  -0.681 -1.0903  0.3872  1.6090
   18ccc     H2  501   7.083   2.925  -0.479  0.6809  0.9619  1.8359
   18ccc     C3  502   6.936   2.765  -0.419 -0.1652 -0.2866 -0.2363
   18ccc     C4  503   6.917   2.612  -0.441 -0.6387 -0.1049 -0.4276
   18ccc     C5  504   6.955   2.570  -0.579  0.1768 -0.0333 -0.1035
   18ccc     H3  505   6.999   2.572  -0.380  0.3058  0.7605 -1.0879
   18ccc     H4  506   6.857   2.816  -0.474  0.2676  1.0626  0.3405
   18ccc     H5  507   6.882   2.615  -0.647  1.1351  2.7514  0.5825
   18ccc     O1  508   6.965   2.424  -0.594  0.0214 -0.2158 -0.1375
   18ccc     O2  509   6.778   2.573  -0.401 -0.2256 -0.5064  0.0827
   18ccc     O3  510   6.913   2.805  -0.285 -0.3105  0.0680 -0.0984
   18ccc     O4  511   7.188   2.764  -0.402  0.5354 -0.2571 -0.7624
   18ccc     C6  512   7.242   2.793  -0.683  0.5812 -0.8908 -0.2419
   18ccc     H6  513   6.992   2.843  -0.244 -0.0072 -2.0108  1.3990
   18ccc     H7  514   7.246   2.756  -0.480 -0.8070 -0.1327 -1.8279
   18ccc     H8  515   6.772   2.611  -0.311  0.1120  1.0412 -0.5014
   18ccc     H9  516   7.268   2.899  -0.693  1.6154 -1.1648 -0.5725
   18ccc    H10  517   7.238   2.744  -0.781  0.7973  1.8959 -1.7365
   18ccc     O5  518   7.345   2.724  -0.606 -0.0406 -0.5342 -0.4751
   18ccc    H11  519   7.423   2.713  -0.664  1.1061 -1.0048  1.0780
   18ccc     O6  520   7.082   2.623  -0.625 -0.0842 -0.6552 -0.0912
   19ccc     C1  521   7.413   1.789  -0.575  0.0201  0.4807 -0.2904
   19ccc     C2  522   7.511   1.679  -0.618 -0.0716  0.3606 -0.0992
   19ccc     H1  523   7.374   1.768  -0.475  3.5842 -1.9789  0.7741
   19ccc     H2  524   7.599   1.671  -0.553 -2.6830  0.4594  3.8100
   19ccc     C3  525   7.438   1.539  -0.602  0.2554  0.0769  0.2386
   19ccc     C4  526   7.310   1.541  -0.694 -0.5369 -0.4355 -0.1376
   19ccc     C5  527   7.224   1.666  -0.657 -0.5399  1.0644  0.0705
   19ccc     H3  528   7.356   1.553  -0.792  1.3893  2.3027  0.9746
   19ccc     H4  529   7.406   1.542  -0.498 -1.2491  0.4960 -0.2176
   19ccc     H5  530   7.184   1.649  -0.556 -2.2193 -0.9961 -0.8531
   19ccc     O1  531   7.118   1.682  -0.753 -0.1163 -0.6668 -0.2198
   19ccc     O2  532   7.237   1.421  -0.686 -0.4522 -0.0560  0.3792
   19ccc     O3  533   7.532   1.426  -0.620  0.2291 -0.0192 -0.2970
   19ccc     O4  534   7.541   1.710  -0.754  0.7022  0.7266 -0.0253
   19ccc     C6  535   7.472   1.931  -0.579  0.4233 -0.3010 -0.4257
   19ccc     H6  536   7.480   1.362  -0.672 -3.0021  1.7105  0.5030
   19ccc     H7  537   7.526   1.804  -0.736  2.0377  0.5347  2.5664
   19ccc     H8  538   7.220   1.395  -0.779 -1.6216 -1.7489  1.0055
   19ccc     H9  539   7.557   1.938  -0.511 -0.1510  2.9788  0.1113
   19ccc    H10  540   7.397   2.007  -0.553  2.2422  1.6865 -0.6671
   19ccc     O5  541   7.508   1.961  -0.712 -0.0132 -0.3785 -0.0344
   19ccc    H11  542   7.525   2.057  -0.706  0.0163 -0.4749  3.5931
   19ccc     O6  543   7.299   1.788  -0.661  0.4137 -0.1646  0.5963
   20ccc     C1  544   6.987   1.175  -0.173 -0.2155 -0.4391 -0.0723
   20ccc     C2  545   7.091   1.144  -0.282 -0.0717  0.1092 -0.7817
   20ccc     H1  546   6.894   1.207  -0.221  0.7286  3.1050  0.1923
   20ccc     H2  547   7.063   1.062  -0.350  0.5520 -0.3019 -0.5467
   20ccc     C3  548   7.126   1.271  -0.371  0.4961 -0.3718 -0.0231
   20ccc     C4  549   7.181   1.374  -0.274  0.0707 -0.6141  0.0775
   20ccc     C5  550   7.082   1.402  -0.151  0.2200 -0.2393 -0.6397
   20ccc     H3  551   7.277   1.347  -0.227 -0.8093 -1.4945  1.4378
   20ccc     H4  552   7.030   1.308  -0.411  1.0830  0.2387 -0.9081
   20ccc     H5  553   6.999   1.462  -0.191 -1.2547 -1.6105  0.2497
   20ccc     O1  554   7.140   1.483  -0.047 -0.4304 -0.4994 -0.4282
   20ccc     O2  555   7.193   1.498  -0.350 -0.6208 -0.2330 -0.4357
   20ccc     O3  556   7.222   1.236  -0.474 -0.1367  0.4433 -0.0346
   20ccc     O4  557   7.207   1.091  -0.210  0.4678  0.2347  0.7204
   20ccc     C6  558   6.950   1.049  -0.086 -0.1296  0.2252 -0.4082
   20ccc     H6  559   7.226   1.297  -0.550  0.6822 -1.7266 -1.8533
   20ccc     H7  560   7.160   1.055  -0.133 -0.3395  0.2876  0.2674
   20ccc     H8  561   7.262   1.541  -0.297 -1.1258 -1.5547  1.3975
   20ccc     H9  562   6.898   0.969  -0.140 -0.1821  0.7647 -1.1685
   20ccc    H10  563   6.872   1.071  -0.011  0.8535  0.6955  0.4907
   20ccc     O5  564   7.065   1.009  -0.012 -0.1075 -0.3992  0.2156
   20ccc    H11  565   7.073   1.076   0.058  0.6447  1.0721 -1.2129
   20ccc     O6  566   7.029   1.284  -0.084  0.0235  0.7113  0.2962
   21ccc     C1  567   7.345   2.349  -0.604  0.4019  0.1838  0.2783
   21ccc     C2  568   7.441   2.424  -0.505 -0.0394  0.8380  0.5066
   21ccc     H1  569   7.258   2.412  -0.626 -0.8960 -1.7040 -0.2707
   21ccc     H2  570   7.482   2.508  -0.563  0.3862  0.1897 -0.1553
   21ccc     C3  571   7.357   2.473  -0.378 -0.8717  0.4219  0.3999
   21ccc     C4  572   7.274   2.357  -0.315 -0.1866  0.2702 -0.7593
   21ccc     C5  573   7.208   2.261  -0.419  0.0242 -0.6120 -0.0918
   21ccc     H3  574   7.338   2.287  -0.261 -1.7478 -2.2916 -2.0058
   21ccc     H4  575   7.279   2.542  -0.413 -1.3083 -0.6720 -0.9180
   21ccc     H5  576   7.110   2.298  -0.452 -0.1837 -0.0219  1.1366
   21ccc     O1  577   7.194   2.132  -0.348 -0.2779 -0.2206  0.4536
   21ccc     O2  578   7.170   2.412  -0.234 -0.4092 -0.3929 -0.3032
   21ccc     O3  579   7.441   2.540  -0.283 -0.5807  0.5177 -0.0813
   21ccc     O4  580   7.546   2.331  -0.478  0.1737  0.3036  0.0514
   21ccc     C6  581   7.405   2.308  -0.738 -0.1724 -0.2107 -0.1206
   21ccc     H6  582   7.384   2.613  -0.251 -1.0516  0.7879 -1.4713
   21ccc     H7  583   7.564   2.335  -0.382  2.1279 -3.4093  0.0324
   21ccc     H8  584   7.220   2.454  -0.161 -0.5966 -3.0174  1.4517
   21ccc     H9  585   7.433   2.389  -0.806 -1.1016 -0.6214 -1.0254
   21ccc    H10  586   7.319   2.253  -0.778 -0.8076 -1.9807  3.2675
   21ccc     O5  587   7.512   2.219  -0.704  0.0019 -0.7204  0.0016
   21ccc    H11  588   7.537   2.239  -0.612 -0.5684  1.0605 -0.1864
   21ccc     O6  589   7.296   2.232  -0.530 -0.8222 -0.1588 -0.1950
   22ccc     C1  590   6.587   2.142   0.530  1.3319  0.6344  0.1054
   22ccc     C2  591   6.587   2.235   0.650  0.9305 -0.3359  0.0150
   22ccc     H1  592   6.682   2.149   0.475  2.0013  0.8896  1.2607
   22ccc     H2  593   6.681   2.216   0.703 -0.7022 -1.2889  2.7662
   22ccc     C3  594   6.571   2.383   0.619 -0.0226 -0.3919 -0.2751
   22ccc     C4  595   6.466   2.413   0.512 -0.4173 -0.2461 -0.3248
   22ccc     C5  596   6.486   2.318   0.392 -1.0470 -0.0947 -0.4471
   22ccc     H3  597   6.370   2.379   0.553  0.8771 -3.4911  0.3407
   22ccc     H4  598   6.670   2.404   0.575  0.9460 -0.7889  1.5984
   22ccc     H5  599   6.589   2.323   0.353 -1.2143 -1.6925 -1.1967
   22ccc     O1  600   6.399   2.356   0.280  0.0300  0.0443 -0.7274
   22ccc     O2  601   6.478   2.560   0.477 -0.2127  0.1476  0.4092
   22ccc     O3  602   6.558   2.461   0.738  0.4596  0.3681 -0.1224
   22ccc     O4  603   6.474   2.193   0.731  0.2611 -0.2874  0.1356
   22ccc     C6  604   6.576   1.991   0.573 -0.6011 -0.2103 -0.1849
   22ccc     H6  605   6.473   2.430   0.773  0.5619  0.4416  0.1956
   22ccc     H7  606   6.462   2.104   0.693 -1.7452 -0.4400  1.0117
   22ccc     H8  607   6.422   2.564   0.397  0.0862  0.6217  0.2217
   22ccc     H9  608   6.663   1.969   0.635 -0.0268  1.2343 -0.4400
   22ccc    H10  609   6.581   1.942   0.475  0.4027 -0.3966 -0.0431
   22ccc     O5  610   6.448   1.966   0.638 -0.4521 -0.0878 -0.3397
   22ccc    H11  611   6.392   1.931   0.566 -2.7601  1.1769  0.7245
   22ccc     O6  612   6.475   2.181   0.444  0.0998  0.3423 -0.2835
   23ccc     C1  613   5.772   2.893  -0.064  0.4914  0.4768  0.1780
   23ccc     C2  614   5.649   2.950  -0.139 -0.1189  0.2519 -0.6096
   23ccc     H1  615   5.867   2.930  -0.104  0.4399  0.0758 -0.3411
   23ccc     H2  616   5.658   3.059  -0.149  1.2449  0.1288 -0.9697
   23ccc     C3  617   5.637   2.898  -0.282  0.2113 -0.2979  0.3282
   23ccc     C4  618   5.673   2.751  -0.300 -0.1020 -0.2128  0.5889
   23ccc     C5  619   5.789   2.702  -0.215 -0.7265  0.7297  0.5483
   23ccc     H3  620   5.584   2.690  -0.276 -1.0587  1.8972  2.7742
   23ccc     H4  621   5.716   2.953  -0.336  2.1094 -3.2133 -0.0720
   23ccc     H5  622   5.878   2.739  -0.267 -1.9575  1.7115 -0.9406
   23ccc     O1  623   5.804   2.555  -0.219  0.4710  0.1641 -0.3030
   23ccc     O2  624   5.706   2.745  -0.442  0.5693 -0.2510 -0.3669
   23ccc     O3  625   5.503   2.919  -0.338  0.0090  0.1967 -0.2670
   23ccc     O4  626   5.535   2.916  -0.062  1.1283 -0.2239 -0.2897
   23ccc     C6  627   5.776   2.934   0.087  0.0430  0.6494  1.0396
   23ccc     H6  628   5.512   2.911  -0.434 -1.0254 -0.5249 -0.3192
   23ccc     H7  629   5.570   2.892   0.025 -0.9008 -1.7816  0.1663
   23ccc     H8  630   5.668   2.658  -0.465 -0.7381 -0.2059  1.3546
   23ccc     H9  631   5.796   3.041   0.096  0.8059  0.7779 -1.4904
   23ccc    H10  632   5.858   2.884   0.139  1.0393  1.5131  0.3163
   23ccc     O5  633   5.659   2.894   0.159  0.3541  0.2447  0.2628
   23ccc    H11  634   5.683   2.807   0.195 -1.5557 -0.1618  0.7014
   23ccc     O6  635   5.776   2.746  -0.074 -0.0024 -0.1971 -0.1992
   24ccc     C1  636   6.298   2.315   1.437 -0.7737 -0.5366 -0.0213
   24ccc     C2  637   6.379   2.256   1.317 -0.1851  0.6065 -0.0268
   24ccc     H1  638   6.309   2.248   1.524 -1.2352  2.0975  2.1794
   24ccc     H2  639   6.473   2.215   1.354 -0.6164 -0.5601 -0.1520
   24ccc     C3  640   6.300   2.128   1.250  0.3152 -0.5529 -0.1780
   24ccc     C4  641   6.150   2.153   1.233 -0.0379 -0.1693  0.2530
   24ccc     C5  642   6.087   2.220   1.359 -0.5215 -0.2881  0.1449
   24ccc     H3  643   6.136   2.222   1.150 -1.8529  0.6211  1.1473
   24ccc     H4  644   6.331   2.055   1.326  2.4253  2.3077  1.9455
   24ccc     H5  645   6.086   2.157   1.449  0.6200  1.2223  1.2797
   24ccc     O1  646   5.948   2.244   1.318  0.1763 -0.3588  0.6517
   24ccc     O2  647   6.086   2.023   1.210 -0.7279  0.0613 -0.2317
   24ccc     O3  648   6.364   2.095   1.124 -0.1620 -0.3970 -0.3081
   24ccc     O4  649   6.404   2.359   1.225  0.1874 -0.0117  0.2438
   24ccc     C6  650   6.338   2.461   1.476  0.3291  0.4463 -0.1845
   24ccc     H6  651   6.442   2.038   1.134 -0.5288 -1.1516 -1.6168
   24ccc     H7  652   6.425   2.300   1.151  0.3745  2.1078 -1.4840
   24ccc     H8  653   6.123   1.991   1.126  0.2667 -0.3954  0.3645
   24ccc     H9  654   6.330   2.522   1.385 -0.6495 -0.6664 -0.8896
   24ccc    H10  655   6.445   2.448   1.498  0.7009 -2.9559 -2.9784
   24ccc     O5  656   6.256   2.506   1.591  0.1984  0.2247  0.2234
   24ccc    H11  657   6.173   2.525   1.545  0.8429  0.4936 -0.8606
   24ccc     O6  658   6.166   2.334   1.388 -0.3151  0.5428  0.2280
   25ccc     C1  659   5.482   1.668   1.611  0.4555 -0.3905  0.4039
   25ccc     C2  660   5.377   1.594   1.519  0.2887 -0.1110 -0.6143
   25ccc     H1  661   5.478   1.651   1.719  4.8001  0.5871  0.9112
   25ccc     H2  662   5.396   1.488   1.538 -0.0286 -0.0637  0.0156
   25ccc     C3  663   5.232   1.641   1.548 -0.2315  0.2165 -0.1428
   25ccc     C4  664   5.218   1.794   1.555 -0.3518 -0.0765  0.5140
   25ccc     C5  665   5.330   1.863   1.640  0.2539  0.4894 -0.0276
   25ccc     H3  666   5.231   1.843   1.458 -0.8780 -0.6050  0.1670
   25ccc     H4  667   5.202   1.597   1.644  2.3568  3.2055  2.2704
   25ccc     H5  668   5.316   1.850   1.748  0.1323 -0.8611 -0.1902
   25ccc     O1  669   5.321   2.012   1.618 -0.5142  0.1031  0.4739
   25ccc     O2  670   5.082   1.817   1.594 -0.6130  0.5920  0.6329
   25ccc     O3  671   5.145   1.591   1.449  0.1633 -0.3000 -0.6769
   25ccc     O4  672   5.403   1.631   1.386 -0.3704  0.2366 -0.0350
   25ccc     C6  673   5.629   1.622   1.584  0.6270  0.0704 -0.0039
   25ccc     H6  674   5.067   1.554   1.493  0.7398  0.5120  1.0837
   25ccc     H7  675   5.500   1.641   1.391 -0.1805 -0.7905 -1.0478
   25ccc     H8  676   5.024   1.815   1.516  0.7427 -0.4103 -0.3882
   25ccc     H9  677   5.636   1.513   1.590  2.8311  0.0678 -1.4299
   25ccc    H10  678   5.691   1.670   1.662  2.4899 -0.3803 -1.1345
   25ccc     O5  679   5.671   1.653   1.450 -0.1124 -0.2378  0.2961
   25ccc    H11  680   5.765   1.631   1.440  0.0829  1.0266 -0.7339
   25ccc     O6  681   5.459   1.811   1.600  0.3308 -0.2610  0.7208
   26ccc     C1  682   5.985   2.108   0.640  0.5365 -0.0261 -0.2396
   26ccc     C2  683   6.088   2.190   0.712 -0.9393 -0.1095  0.0911
   26ccc     H1  684   5.895   2.115   0.703  1.1806 -0.4388  0.7528
   26ccc     H2  685   6.046   2.288   0.739 -0.2050 -0.7128  4.1272
   26ccc     C3  686   6.116   2.127   0.850 -0.3728 -0.2995 -0.0932
   26ccc     C4  687   6.148   1.977   0.836 -0.3948  0.7203  0.4420
   26ccc     C5  688   6.047   1.901   0.753 -0.0195 -0.0278  0.4341
   26ccc     H3  689   6.245   1.973   0.784  0.4555 -0.1322  1.9872
   26ccc     H4  690   6.030   2.134   0.918  0.1223 -0.7486  0.5985
   26ccc     H5  691   5.953   1.888   0.807  0.1318 -0.2317  0.6497
   26ccc     O1  692   6.099   1.773   0.726  0.4606  0.6339  0.4638
   26ccc     O2  693   6.151   1.921   0.972  0.1283 -0.1160  0.0347
   26ccc     O3  694   6.226   2.202   0.906 -0.4104  0.4173  0.5105
   26ccc     O4  695   6.204   2.197   0.631 -0.2559  0.0859 -0.0341
   26ccc     C6  696   5.961   2.148   0.497  0.5572  0.1112  0.1033
   26ccc     H6  697   6.278   2.148   0.969 -1.4786 -2.4678 -0.8854
   26ccc     H7  698   6.277   2.192   0.695 -0.6258  1.1914  0.5043
   26ccc     H8  699   6.194   1.833   0.968 -0.3108 -0.2798 -1.4784
   26ccc     H9  700   5.943   2.256   0.495  0.4520  0.0889 -0.4076
   26ccc    H10  701   5.870   2.097   0.465 -0.2585  2.2643 -1.2177
   26ccc     O5  702   6.073   2.109   0.409 -0.1602  0.0451 -0.5676
   26ccc    H11  703   6.140   2.119   0.479 -2.0005 -1.4291  1.5426
   26ccc     O6  704   6.024   1.974   0.631  0.2709  0.3210  0.3079
   27ccc     C1  705   5.821   0.915   1.003 -0.0018  0.1758 -0.1895
   27ccc     C2  706   5.942   0.899   1.095 -0.1750 -0.2781 -0.1546
   27ccc     H1  707   5.788   0.816   0.969  0.4430  0.1665 -0.6076
   27ccc     H2  708   5.916   0.833   1.178  0.7679  0.5503  0.8337
   27ccc     C3  709   6.056   0.825   1.014  0.8866  0.0010 -1.0914
   27ccc     C4  710   6.097   0.898   0.880  0.1260 -0.0421 -0.2737
   27ccc     C5  711   5.973   0.937   0.803  0.2046  0.7410 -0.2605
   27ccc     H3  712   6.158   0.984   0.912  0.2303 -0.8716  1.9500
   27ccc     H4  713   5.999   0.739   0.979  1.1245 -0.7571  0.3074
   27ccc     H5  714   5.928   0.848   0.758 -0.1082  1.2804 -1.0320
   27ccc     O1  715   6.007   1.027   0.696  0.3337 -0.0832  0.0697
   27ccc     O2  716   6.173   0.804   0.811  1.1350 -0.2247 -0.2487
   27ccc     O3  717   6.163   0.770   1.093  0.1281 -0.4156 -0.0232
   27ccc     O4  718   5.988   1.029   1.142  0.1622  0.4252 -0.3655
   27ccc     C6  719   5.715   0.985   1.084  0.2847 -0.2781 -0.9326
   27ccc     H6  720   6.233   0.745   1.030 -1.8244  0.4699 -2.7404
   27ccc     H7  721   6.078   1.011   1.175 -0.6620 -0.1855  1.6840
   27ccc     H8  722   6.243   0.857   0.770  1.6182 -0.6690 -0.0178
   27ccc     H9  723   5.744   1.090   1.081 -1.6257  0.4598  1.7665
   27ccc    H10  724   5.718   0.955   1.190  1.4401  0.2626 -0.7987
   27ccc     O5  725   5.594   0.963   1.015 -0.6083 -0.2052 -0.0048
   27ccc    H11  726   5.615   0.975   0.921 -2.2296  2.1839 -0.1572
   27ccc     O6  727   5.865   0.996   0.890 -1.1537  0.4990 -0.2120
   28ccc     C1  728   7.061   2.828   0.192  0.6283 -0.0615 -0.0510
   28ccc     C2  729   7.018   2.900   0.065  0.1656  0.4764  0.2042
   28ccc     H1  730   7.154   2.872   0.229 -0.3362 -0.6990  3.5665
   28ccc     H2  731   7.017   3.008   0.085  4.2892  1.0065 -1.3457
   28ccc     C3  732   7.133   2.884  -0.034  0.0083  0.0640 -0.1487
   28ccc     C4  733   7.169   2.732  -0.058 -0.2368 -0.2909 -0.0449
   28ccc     C5  734   7.197   2.662   0.078  0.4297 -0.1071  0.7622
   28ccc     H3  735   7.079   2.685  -0.100  0.3158 -2.8179  1.3574
   28ccc     H4  736   7.218   2.938   0.009 -0.9952  0.7788  1.0038
   28ccc     H5  737   7.291   2.707   0.110  1.1457  0.5044 -1.9113
   28ccc     O1  738   7.216   2.517   0.050 -0.0706  0.2692 -0.5857
   28ccc     O2  739   7.273   2.712  -0.160 -0.0299 -0.6493  0.5196
   28ccc     O3  740   7.098   2.932  -0.171 -0.4175 -0.0552  0.4281
   28ccc     O4  741   6.905   2.831   0.023 -0.3640 -0.3909  0.2790
   28ccc     C6  742   6.959   2.839   0.320  0.0753 -0.3854  0.1500
   28ccc     H6  743   7.085   3.028  -0.165  0.0029 -0.0026  0.5554
   28ccc     H7  744   6.863   2.820   0.110 -1.5345  0.7573 -0.1037
   28ccc     H8  745   7.227   2.744  -0.240  0.6240 -0.3015  0.2794
   28ccc     H9  746   6.978   2.934   0.370  0.7325 -0.2577 -0.3248
   28ccc    H10  747   6.992   2.746   0.368 -0.6880 -1.2703 -0.9776
   28ccc     O5  748   6.820   2.824   0.270 -0.6358  0.1843 -0.2417
   28ccc    H11  749   6.773   2.771   0.335  0.4001 -0.0542  0.3308
   28ccc     O6  750   7.079   2.687   0.162  0.1349 -0.1888  0.1851
   29ccc     C1  751   7.889   2.072  -0.325  0.1532 -0.0317 -0.3816
   29ccc     C2  752   7.988   1.972  -0.382 -1.1392  0.7969  0.0693
   29ccc     H1  753   7.923   2.097  -0.223  0.3398 -1.6218 -0.0236
   29ccc     H2  754   8.088   2.013  -0.363 -0.7484  0.4662 -1.1744
   29ccc     C3  755   7.980   1.822  -0.323  0.1000 -0.7569  0.3176
   29ccc     C4  756   7.832   1.783  -0.304  0.4046  0.0309 -0.2835
   29ccc     C5  757   7.735   1.890  -0.246  0.0186  0.5756  0.0861
   29ccc     H3  758   7.791   1.764  -0.404 -0.2989 -0.6633  0.1264
   29ccc     H4  759   8.016   1.807  -0.220 -0.2970 -1.0634  0.4135
   29ccc     H5  760   7.750   1.911  -0.139  0.8094  2.2504 -0.3238
   29ccc     O1  761   7.598   1.847  -0.272  0.1920 -0.5152 -0.3589
   29ccc     O2  762   7.824   1.663  -0.229 -0.1299  0.1187 -0.0853
   29ccc     O3  763   8.065   1.729  -0.399  0.3350 -0.0761  0.3397
   29ccc     O4  764   7.951   1.967  -0.525 -0.1543  0.5301  0.0450
   29ccc     C6  765   7.876   2.213  -0.388 -0.8071 -0.0576  0.4511
   29ccc     H6  766   8.036   1.733  -0.492  0.4495 -1.3538  0.2295
   29ccc     H7  767   7.918   2.059  -0.531  3.9092  2.1310 -1.7288
   29ccc     H8  768   7.873   1.601  -0.286 -0.0846  1.6500 -1.8173
   29ccc     H9  769   7.960   2.265  -0.340  0.6126  0.4405 -2.3467
   29ccc    H10  770   7.788   2.272  -0.359 -0.6077 -0.5682  2.1643
   29ccc     O5  771   7.889   2.216  -0.535  0.0547  0.3921  0.6072
   29ccc    H11  772   7.905   2.308  -0.564 -3.0350  0.4970 -1.2292
   29ccc     O6  773   7.757   2.009  -0.329 -0.5389 -0.3067  0.2550
   30SOL     OW  774   5.579   1.195   6.275 -0.3122 -0.2034  0.2744
   30SOL    HW1  775   5.634   1.242   6.338 -1.6639 -0.1638  1.4591
   30SOL    HW2  776   5.498   1.244   6.272 -1.2552 -1.6748  0.5040
   31SOL     OW  777   2.770   6.094   5.028  0.2899 -0.8834  0.5744
   31SOL    HW1  778   2.832   6.092   4.955 -1.0751 -4.2151 -0.6924
   31SOL    HW2  779   2.777   6.183   5.063  2.3800  0.2931 -2.4085
   32SOL     OW  780   3.352   3.714   5.877  0.2105 -0.0440 -0.1869
   32SOL    HW1  781   3.321   3.625   5.896  1.1738 -0.1084  1.2499
   32SOL    HW2  782   3.414   3.703   5.806  0.4377 -0.5465  0.0865
   33SOL     OW  783   5.216   6.368   2.002  0.2951  0.0855  0.3015
   33SOL    HW1  784   5.275   6.314   1.948 -0.1069  0.1194 -0.1829
   33SOL    HW2  785   5.267   6.446   2.022 -0.2680  1.1174 -1.9250
   34SOL     OW  786   4.329   5.611   4.993 -0.1074  0.0590  0.1099
   34SOL    HW1  787   4.372   5.601   4.908  1.0193  0.9944  0.5380
   34SOL    HW2  788   4.306   5.522   5.019 -1.9442 -0.1314 -1.8742
   35SOL     OW  789   1.095   1.919   3.426  0.6625 -0.4542 -0.7978
   35SOL    HW1  790   1.001   1.940   3.420  0.3604 -1.7356 -0.8654
   35SOL    HW2  791   1.139   1.998   3.395 -0.4289 -0.1609 -1.6818
   36SOL     OW  792   4.797   5.630   3.883  0.1141  0.3513 -0.6005
   36SOL    HW1  793   4.750   5.710   3.903 -1.3689 -0.1215 -2.0111
   36SOL    HW2  794   4.855   5.616   3.958 -0.7855  1.8448  0.4023
   37SOL     OW  795   2.243   6.622   5.454 -0.4154 -0.8824  0.1935
   37SOL    HW1  796   2.298   6.667   5.518 -0.1383 -1.3489  0.2874
   37SOL    HW2  797   2.271   6.531   5.458 -1.8091 -1.2983  0.8812
   38SOL     OW  798   2.380   0.157   0.742 -0.2152  0.4380  0.5996
   38SOL    HW1  799   2.395   0.136   0.650 -1.0623  0.2253  0.5024
   38SOL    HW2  800   2.427   0.239   0.756  1.6134 -0.5374  0.5018
   39SOL     OW  801   3.898   1.691   6.702 -0.2028  0.3327  0.2601
   39SOL    HW1  802   3.948   1.765   6.667  1.1064  0.1826  1.7119
   39SOL    HW2  803   3.810   1.702   6.666  0.0835  2.3429  0.0690
   40SOL     OW  804   3.020   2.779   5.469 -0.3999 -0.3229 -0.2199
   40SOL    HW1  805   3.065   2.712   5.416  0.0988 -1.2406  1.3054
   40SOL    HW2  806   3.078   2.856   5.464 -0.2020 -0.4974 -0.7331
   41SOL     OW  807   0.359   5.328   2.551 -0.3047  0.0511 -0.0559
   41SOL    HW1  808   0.370   5.304   2.643  1.9160 -0.8345 -0.4897
   41SOL    HW2  809   0.293   5.398   2.552 -2.5737 -1.9420  1.8675
   42SOL     OW  810   4.449   2.112   6.166 -0.0458 -0.0182  0.6001
   42SOL    HW1  811   4.471   2.139   6.255  0.2342 -0.0024  0.5282
   42SOL    HW2  812   4.498   2.173   6.110 -0.8840  0.5186  0.4278
   43SOL     OW  813   0.083   3.384   7.076 -0.2401  0.4847  0.6406
   43SOL    HW1  814   0.079   3.443   7.152 -0.1867  1.9737 -0.4662
   43SOL    HW2  815   0.082   3.443   7.000  0.6428 -0.9246 -0.5034
   44SOL     OW  816   4.651   1.035   7.435  0.4011  0.0188 -0.0571
   44SOL    HW1  817   4.664   1.127   7.410 -0.2353  0.5754  1.4634
   44SOL    HW2  818   4.609   0.995   7.359 -2.4425  1.8708  0.3769
   45SOL     OW  819   2.332   2.745   7.306 -0.1989  0.6006 -0.0492
   45SOL    HW1  820   2.355   2.772   7.217  0.8879 -1.2561 -0.3691
   45SOL    HW2  821   2.251   2.695   7.296 -0.6950  1.3261  0.1890
   46SOL     OW  822   6.307   1.694   0.946  0.1275  0.0241  0.2064
   46SOL    HW1  823   6.329   1.689   1.039  1.0105 -1.2131 -0.0530
   46SOL    HW2  824   6.294   1.603   0.918 -0.7400  0.4163 -0.7419
   47SOL     OW  825   3.091   5.542   6.427  0.3159 -0.2676 -0.5362
   47SOL    HW1  826   3.170   5.551   6.480  0.4298 -1.1955 -0.5324
   47SOL    HW2  827   3.042   5.471   6.469 -0.0339 -0.3861 -1.1357
   48SOL     OW  828   5.677   0.603   6.942 -0.3364  0.0970  0.5070
   48SOL    HW1  829   5.742   0.534   6.954  1.3666  1.8567  2.2598
   48SOL    HW2  830   5.697   0.640   6.856  1.2875  0.8117  1.1375
   49SOL     OW  831   4.638   2.093   3.794  0.3745  0.5506 -0.2128
   49SOL    HW1  832   4.603   2.055   3.874  1.0065  2.6487  1.1299
   49SOL    HW2  833   4.733   2.082   3.802  0.4053  0.1970 -0.9939
   50SOL     OW  834   7.657   5.585   5.351  0.2095  0.0724 -0.0581
   50SOL    HW1  835   7.582   5.603   5.295  0.1795 -2.9381 -1.1688
   50SOL    HW2  836   7.726   5.645   5.321 -0.8768  0.9325 -0.8949
   51SOL     OW  837   3.150   7.752   4.007  0.0411  0.5822  0.4448
   51SOL    HW1  838   3.212   7.823   3.991  2.4859 -1.2527  1.1035
   51SOL    HW2  839   3.118   7.728   3.920  0.1718  1.6176  0.0976
   52SOL     OW  840   7.694   3.504   1.131  0.0461  0.0334  0.4046
   52SOL    HW1  841   7.760   3.500   1.200 -0.5670 -2.4306  0.9558
   52SOL    HW2  842   7.629   3.438   1.156 -1.0506  0.2194 -1.6890
   53SOL     OW  843   4.290   3.823   0.915 -0.5703 -0.0972 -0.5398
   53SOL    HW1  844   4.373   3.804   0.958  0.2351  1.0294 -1.5386
   53SOL    HW2  845   4.251   3.892   0.968 -0.0356  0.6020 -1.0369
   54SOL     OW  846   3.767   6.532   0.156 -0.3338  0.1451  0.3431
   54SOL    HW1  847   3.830   6.510   0.225  0.2152 -3.3176 -1.0974
   54SOL    HW2  848   3.682   6.509   0.193  0.0513 -2.8347 -0.3687
   55SOL     OW  849   7.318   5.946   1.238 -0.1209  0.4531  0.6610
   55SOL    HW1  850   7.334   5.917   1.148 -3.4352 -0.0069  0.0646
   55SOL    HW2  851   7.359   5.879   1.293 -0.7933 -1.0601 -0.5980
   56SOL     OW  852   5.545   1.418   6.541  0.5280 -0.1045 -0.8217
   56SOL    HW1  853   5.611   1.370   6.590  1.1375 -0.9780 -2.3980
   56SOL    HW2  854   5.588   1.443   6.459 -0.8354  0.0129 -1.5482
   57SOL     OW  855   0.723   1.272   6.156 -0.3668 -0.1566 -0.1099
   57SOL    HW1  856   0.708   1.340   6.090 -2.2545 -1.1578 -0.7937
   57SOL    HW2  857   0.669   1.198   6.127 -0.2259 -1.1001  1.8693
   58SOL     OW  858   2.892   3.899   4.903 -0.3935 -0.5573  0.2976
   58SOL    HW1  859   2.852   3.816   4.879 -0.5953 -0.5717  0.6685
   58SOL    HW2  860   2.818   3.956   4.923 -0.2491 -0.3602  0.2658
   59SOL     OW  861   7.592   5.276   4.072 -0.4625 -0.1555  0.5905
   59SOL    HW1  862   7.672   5.287   4.020 -1.5343 -0.1644 -1.1196
   59SOL    HW2  863   7.610   5.201   4.128  0.1262 -1.2505 -1.0050
   60SOL     OW  864   5.321   1.372   3.775 -0.0827 -0.3161  0.3271
   60SOL    HW1  865   5.324   1.278   3.794 -0.6263 -0.9502 -2.3287
   60SOL    HW2  866   5.394   1.387   3.715 -0.3219  0.8520  0.3033
   61SOL     OW  867   2.322   6.605   4.527  0.5035  0.3001 -0.2016
   61SOL    HW1  868   2.308   6.517   4.490  2.3430 -0.0013 -0.2991
   61SOL    HW2  869   2.253   6.659   4.488  1.7828 -0.2012 -3.4789
   62SOL     OW  870   7.553   3.365   2.194  0.5080 -0.4271 -0.4100
   62SOL    HW1  871   7.600   3.448   2.206 -2.0566  1.3154 -1.4230
   62SOL    HW2  872   7.495   3.359   2.270  0.4591 -1.1366 -0.5035
   63SOL     OW  873   6.467   5.243   3.793  0.6231  0.6107 -0.3543
   63SOL    HW1  874   6.506   5.321   3.754 -0.3276  1.7735  0.9284
   63SOL    HW2  875   6.381   5.235   3.751 -0.2061  1.5913  1.0830
   64SOL     OW  876   4.730   1.738   4.941 -0.0349  0.4984  0.3557
   64SOL    HW1  877   4.821   1.765   4.930 -0.0142  1.5725  2.5673
   64SOL    HW2  878   4.733   1.642   4.942  1.4802  0.4911  2.8061
   65SOL     OW  879   2.837   4.774   2.055 -0.4246  0.7200 -0.0918
   65SOL    HW1  880   2.853   4.694   2.104  1.1969  1.3927  0.5465
   65SOL    HW2  881   2.866   4.754   1.966  0.5068  0.7425  0.1948
   66SOL     OW  882   1.028   4.335   1.240 -0.3278 -0.0456  0.4943
   66SOL    HW1  883   1.059   4.376   1.160  1.9914  0.3489  1.5083
   66SOL    HW2  884   0.940   4.303   1.218 -0.0599  0.6686 -1.9464
   67SOL     OW  885   1.632   2.089   2.740 -0.3588 -0.1095  0.1281
   67SOL    HW1  886   1.574   2.026   2.783  0.8604 -0.2531  1.6233
   67SOL    HW2  887   1.627   2.065   2.647 -0.1511 -2.2462  0.6020
   68SOL     OW  888   4.078   0.930   0.564  0.0298 -0.2857  0.3954
   68SOL    HW1  889   4.156   0.876   0.554 -1.0344 -1.8120  0.0996
   68SOL    HW2  890   4.090   0.973   0.649  1.8782  0.7157 -0.3196
   69SOL     OW  891   1.779   4.666   2.459 -0.1330  0.2902  0.5842
   69SOL    HW1  892   1.697   4.631   2.491 -0.8439  0.8675 -0.5412
   69SOL    HW2  893   1.762   4.690   2.368  1.5698 -0.5249 -0.0049
   70SOL     OW  894   0.959   7.619   3.045 -0.1679 -0.0137 -0.0495
   70SOL    HW1  895   0.949   7.668   3.127  1.1882 -1.8913  1.3198
   70SOL    HW2  896   0.997   7.682   2.984  1.2025  0.7838  1.5417
   71SOL     OW  897   0.206   4.095   3.465 -0.1032  0.3583  0.3877
   71SOL    HW1  898   0.209   4.163   3.532  1.0091  0.3204  0.3978
   71SOL    HW2  899   0.152   4.133   3.395  0.1485  1.0794  0.5776
   72SOL     OW  900   6.655   2.105   3.614 -0.5207 -0.2648  0.3465
   72SOL    HW1  901   6.711   2.154   3.553 -1.8858 -0.8372 -1.4773
   72SOL    HW2  902   6.671   2.145   3.699  1.8882  0.2237 -0.2636
   73SOL     OW  903   1.135   1.247   0.377  0.1891 -0.3120 -0.4062
   73SOL    HW1  904   1.132   1.302   0.299  0.6949 -0.5517 -0.6011
   73SOL    HW2  905   1.064   1.184   0.364 -1.4748  1.2787  0.5887
   74SOL     OW  906   5.739   5.433   1.388  0.2109  0.2863 -0.0822
   74SOL    HW1  907   5.688   5.352   1.394 -0.5079  0.7117 -0.3267
   74SOL    HW2  908   5.745   5.452   1.295 -1.3615  1.5680  0.0259
   75SOL     OW  909   2.834   6.268   2.302 -0.8000  0.0255  0.4247
   75SOL    HW1  910   2.870   6.339   2.354 -2.2087 -0.1010  1.6616
   75SOL    HW2  911   2.909   6.210   2.284 -0.3068 -0.1338  2.7004
   76SOL     OW  912   1.358   0.523   1.721  0.1792 -0.2162 -0.1804
   76SOL    HW1  913   1.272   0.562   1.708 -0.0466 -0.5372  0.3545
   76SOL    HW2  914   1.340   0.431   1.744  0.7096 -0.8634 -2.1331
   77SOL     OW  915   4.640   2.657   1.253 -0.0963 -0.4347 -0.1132
   77SOL    HW1  916   4.604   2.721   1.191  0.0842 -0.3308 -0.1103
   77SOL    HW2  917   4.571   2.644   1.317  0.2520  0.5507  0.4873
   78SOL     OW  918   7.366   1.339   1.743  0.0129  0.5852 -0.6762
   78SOL    HW1  919   7.402   1.405   1.684  1.9526  0.6983  0.5706
   78SOL    HW2  920   7.330   1.272   1.684  0.5764  1.3862 -1.9776
   79SOL     OW  921   2.890   3.679   6.003  0.4055  0.5793  0.0593
   79SOL    HW1  922   2.826   3.665   6.072  1.2917 -0.9322  0.6205
   79SOL    HW2  923   2.939   3.596   5.998  0.6665  0.8005 -2.0623
   80SOL     OW  924   0.046   5.152   1.288 -0.5599  0.1499 -0.3679
   80SOL    HW1  925   0.062   5.244   1.311  1.3712 -0.1207 -0.4124
   80SOL    HW2  926   0.105   5.135   1.215  0.4277 -1.5700  0.7463
   81SOL     OW  927   0.131   5.886   4.138  0.2033 -0.3146 -0.0260
   81SOL    HW1  928   0.168   5.868   4.052  0.3938 -1.0949  0.2198
   81SOL    HW2  929   0.177   5.965   4.168 -1.6796  1.5499 -1.7293
   82SOL     OW  930   6.217   6.171   2.106  0.1967  0.0385  0.2581
   82SOL    HW1  931   6.164   6.216   2.040 -0.8421 -1.3413  0.1154
   82SOL    HW2  932   6.291   6.230   2.121  0.1530  0.6756 -1.6918
   83SOL     OW  933   6.089   4.017   4.324  0.2565  0.3086 -0.3356
   83SOL    HW1  934   6.002   4.029   4.286  0.8071  1.2993 -1.3298
   83SOL    HW2  935   6.072   3.991   4.414 -1.0783  1.2362 -0.2912
   84SOL     OW  936   1.630   3.224   1.502  0.0728  0.0033 -0.1667
   84SOL    HW1  937   1.681   3.272   1.437 -0.2301  1.0117  0.3286
   84SOL    HW2  938   1.543   3.213   1.463 -0.6878  2.2173  0.7382
   85SOL     OW  939   6.301   5.703   1.887 -0.2011  0.0847 -0.5729
   85SOL    HW1  940   6.241   5.670   1.820 -1.6341  1.5305 -0.0637
   85SOL    HW2  941   6.270   5.792   1.905  1.5809  0.5579  0.3525
   86SOL     OW  942   5.862   5.493   6.286  0.3199  0.0897  0.4755
   86SOL    HW1  943   5.920   5.445   6.345  0.1736  0.1312  0.6581
   86SOL    HW2  944   5.890   5.469   6.198  3.4348  3.2953  0.3630
   87SOL     OW  945   6.467   6.064   1.633 -0.0326 -0.2940  0.0029
   87SOL    HW1  946   6.417   6.123   1.576 -1.2526 -1.0602  0.2394
   87SOL    HW2  947   6.513   6.122   1.693 -1.3768  0.4445  0.3681
   88SOL     OW  948   1.797   3.679   6.228 -0.4072  0.2861  0.3610
   88SOL    HW1  949   1.729   3.745   6.245 -0.7708  1.1511 -3.4608
   88SOL    HW2  950   1.755   3.616   6.170  1.4021 -0.4925 -0.1751
   89SOL     OW  951   6.712   1.369   7.199  0.5699 -0.6283 -0.3562
   89SOL    HW1  952   6.784   1.430   7.218  0.5584 -1.0005  0.9606
   89SOL    HW2  953   6.740   1.325   7.118  0.3267  1.4620 -1.6613
   90SOL     OW  954   5.625   5.519   1.154  0.0232  0.5866  0.3716
   90SOL    HW1  955   5.650   5.450   1.091 -0.2569  0.9866 -0.1853
   90SOL    HW2  956   5.539   5.491   1.186  0.6842 -0.2559  1.5195
   91SOL     OW  957   5.945   6.922   4.115 -0.3895 -0.7675  0.2254
   91SOL    HW1  958   5.885   6.989   4.083  1.1863 -0.4477 -2.3834
   91SOL    HW2  959   5.937   6.926   4.210 -1.8312  1.7173  0.0860
   92SOL     OW  960   1.269   4.557   1.660 -0.2221 -0.3143  0.3632
   92SOL    HW1  961   1.237   4.619   1.594  1.0372 -0.3860 -0.3444
   92SOL    HW2  962   1.351   4.596   1.691  0.9116 -1.8935 -0.5299
   93SOL     OW  963   3.293   4.780   6.919 -1.1656  0.0567  0.1645
   93SOL    HW1  964   3.337   4.864   6.929  0.4788 -0.2653 -3.2353
   93SOL    HW2  965   3.232   4.777   6.994  1.6446  2.3163  2.8428
   94SOL     OW  966   6.626   6.752   2.408  0.0997 -0.0470 -0.3913
   94SOL    HW1  967   6.532   6.743   2.427  0.3119  0.1847  0.8064
   94SOL    HW2  968   6.668   6.755   2.494  1.0322  1.7858 -0.8657
   95SOL     OW  969   1.399   1.954   5.379 -0.3829  0.2093 -0.2704
   95SOL    HW1  970   1.314   1.959   5.335  0.1398 -0.4057 -1.4017
   95SOL    HW2  971   1.463   1.976   5.311  0.4838 -1.2248  0.0329
   96SOL     OW  972   3.596   6.411   4.979  0.3897  0.1822  0.0524
   96SOL    HW1  973   3.653   6.442   5.050  0.2135  2.0631 -0.5701
   96SOL    HW2  974   3.656   6.394   4.906  0.2719  1.3806 -0.3455
   97SOL     OW  975   0.557   2.356   5.163  0.3321  0.2077  0.3150
   97SOL    HW1  976   0.557   2.382   5.071  4.4294 -0.6911 -0.1072
   97SOL    HW2  977   0.516   2.269   5.163 -0.7576  0.6994 -0.4228
   98SOL     OW  978   4.267   4.152   2.433  0.3967  0.2637  0.1233
   98SOL    HW1  979   4.237   4.229   2.481  0.5051  0.6122 -0.3524
   98SOL    HW2  980   4.285   4.086   2.500 -0.8974  0.2256  0.4586
   99SOL     OW  981   1.237   5.246   1.792 -0.6473  0.1900 -0.5161
   99SOL    HW1  982   1.202   5.200   1.868  1.4631  1.6806  1.5226
   99SOL    HW2  983   1.187   5.328   1.788  0.2861  0.8261  0.3222
  100SOL     OW  984   3.423   4.261   4.369 -0.0197  0.4118  0.1707
  100SOL    HW1  985   3.468   4.326   4.315  0.3932 -0.7483 -0.9364
  100SOL    HW2  986   3.367   4.213   4.308 -0.3326 -0.2563  0.9607
  101SOL     OW  987   2.210   3.645   6.515 -0.6031  0.2077  0.6410
  101SOL    HW1  988   2.163   3.623   6.435 -0.2888 -0.2795  0.5874
  101SOL    HW2  989   2.242   3.561   6.548  2.3114  0.7150 -0.5986
  102SOL     OW  990   0.367   4.026   4.362  0.0865  0.1690 -0.2605
  102SOL    HW1  991   0.328   3.991   4.282 -1.0004  0.3608  0.1663
  102SOL    HW2  992   0.339   3.967   4.431 -0.1228  0.7582  0.1720
  103SOL     OW  993   2.918   5.091   2.538  0.1346  0.1510  0.4591
  103SOL    HW1  994   2.946   5.154   2.604  0.6278  0.8670 -0.4259
  103SOL    HW2  995   2.998   5.048   2.510  0.0549  0.5272 -0.3621
  104SOL     OW  996   3.195   1.899   4.616 -0.1645 -0.2444 -0.2364
  104SOL    HW1  997   3.263   1.952   4.656 -1.4294  1.9805 -0.8788
  104SOL    HW2  998   3.242   1.831   4.568  1.5575  0.7049  0.0470
  105SOL     OW  999   7.481   6.860   1.637  0.2662  0.2522 -0.0877
  105SOL    HW1 1000   7.419   6.926   1.606 -0.1157  0.3800  0.9072
  105SOL    HW2 1001   7.428   6.798   1.687  0.7881 -0.2068 -0.0858
  106SOL     OW 1002   6.404   2.022   3.288 -0.2237 -0.3779  0.2773
  106SOL    HW1 1003   6.424   1.929   3.296 -0.0879 -0.3233  0.6056
  106SOL    HW2 1004   6.353   2.043   3.367 -1.0431 -0.3746 -0.2433
  107SOL     OW 1005   1.227   2.308   1.304  0.0291  0.1107 -0.0156
  107SOL    HW1 1006   1.186   2.357   1.375 -1.4036  0.7228 -1.2080
  107SOL    HW2 1007   1.182   2.338   1.225 -0.4110 -2.6210 -0.9097
  108SOL     OW 1008   2.028   0.363   7.086  0.3668  0.1623 -0.4316
  108SOL    HW1 1009   1.945   0.386   7.044  0.4882  0.5763 -0.4494
  108SOL    HW2 1010   2.081   0.442   7.079  0.0697  0.5492  1.2666
  109SOL     OW 1011   5.433   3.140   4.006 -0.0842  0.0764 -0.2075
  109SOL    HW1 1012   5.424   3.161   3.913  0.9616  0.8560 -0.1507
  109SOL    HW2 1013   5.343   3.142   4.039 -0.4446  0.0337 -1.1464
  110SOL     OW 1014   2.649   0.795   5.496  0.3484 -0.0864 -0.0151
  110SOL    HW1 1015   2.631   0.821   5.405  1.8916 -1.5698 -0.8100
  110SOL    HW2 1016   2.594   0.853   5.549 -0.2928  1.0980 -1.8671
  111SOL     OW 1017   6.514   6.367   5.719  0.4703 -0.0405 -0.6553
  111SOL    HW1 1018   6.598   6.363   5.765  0.3540  2.7015 -0.0195
  111SOL    HW2 1019   6.533   6.420   5.641 -0.6191  0.4169 -0.6217
  112SOL     OW 1020   3.088   5.154   6.196 -0.3173 -0.3500  1.5724
  112SOL    HW1 1021   3.007   5.186   6.156 -0.2262  0.1256  1.7581
  112SOL    HW2 1022   3.068   5.064   6.222 -0.1274 -0.9391 -0.2158
  113SOL     OW 1023   5.337   3.855   1.206 -0.2367  0.0971 -0.2909
  113SOL    HW1 1024   5.347   3.763   1.179  1.6622 -0.1682  1.1096
  113SOL    HW2 1025   5.266   3.853   1.269 -0.4921 -0.3501 -0.5844
  114SOL     OW 1026   2.254   6.847   4.403 -0.1779  0.1611  0.2498
  114SOL    HW1 1027   2.275   6.837   4.496 -1.0642  1.3876  0.6108
  114SOL    HW2 1028   2.169   6.803   4.393  0.2907 -0.6609 -0.1596
  115SOL     OW 1029   3.464   6.660   4.671 -0.2563 -0.2894 -0.3781
  115SOL    HW1 1030   3.417   6.744   4.667  0.7251  0.3474  0.8136
  115SOL    HW2 1031   3.555   6.684   4.657  0.1774 -1.0023  1.0821
  116SOL     OW 1032   5.270   6.654   2.045  0.7010 -0.3675 -0.5991
  116SOL    HW1 1033   5.181   6.643   2.013  0.0133  1.6406  0.4627
  116SOL    HW2 1034   5.260   6.689   2.133  2.5539 -2.3864  0.5198
  117SOL     OW 1035   4.397   0.943   3.680 -0.1043 -0.0609 -0.1688
  117SOL    HW1 1036   4.305   0.965   3.667 -0.5562 -1.9458 -0.5370
  117SOL    HW2 1037   4.405   0.930   3.775 -0.0654  0.6735 -0.0671
  118SOL     OW 1038   1.843   7.075   2.415  0.2902 -0.0017 -0.2130
  118SOL    HW1 1039   1.870   7.110   2.330  1.2667  0.3644  0.2320
  118SOL    HW2 1040   1.763   7.025   2.397  0.2699  0.4043 -1.2720
  119SOL     OW 1041   0.817   5.504   0.273  0.0016 -0.3968  0.1288
  119SOL    HW1 1042   0.870   5.556   0.334 -0.8159  1.9256 -1.0376
  119SOL    HW2 1043   0.880   5.459   0.218  0.8972  2.4496 -1.3518
  120SOL     OW 1044   6.795   5.102   4.464  0.7980  0.1527  0.0785
  120SOL    HW1 1045   6.760   5.062   4.544 -0.2506  0.2439 -0.3186
  120SOL    HW2 1046   6.846   5.033   4.423  0.9217 -0.0516  0.5680
  121SOL     OW 1047   2.936   7.692   2.254  0.2593 -0.1602 -0.4222
  121SOL    HW1 1048   2.842   7.676   2.264 -0.1484 -0.8341 -4.1038
  121SOL    HW2 1049   2.944   7.787   2.244  0.0428 -0.0625  0.2883
  122SOL     OW 1050   0.730   4.382   4.339  0.3476  0.3284 -0.2024
  122SOL    HW1 1051   0.753   4.304   4.390 -0.1495  0.1594 -0.2285
  122SOL    HW2 1052   0.669   4.429   4.395  1.0661  0.9817  0.0413
  123SOL     OW 1053   1.210   4.383   2.951  0.0737 -0.1533  0.3966
  123SOL    HW1 1054   1.270   4.308   2.957 -0.5798 -0.6999  0.1553
  123SOL    HW2 1055   1.228   4.420   2.864  0.0694 -0.3059  0.3301
  124SOL     OW 1056   4.978   5.681   7.419  0.0644 -0.1481  0.2686
  124SOL    HW1 1057   4.921   5.605   7.405  0.9088 -0.6629 -0.5143
  124SOL    HW2 1058   4.975   5.697   7.514 -2.6244  0.8568  0.0878
  125SOL     OW 1059   4.052   1.129   0.377 -0.3850  0.1015 -0.4557
  125SOL    HW1 1060   4.142   1.115   0.346 -1.3144 -1.8842 -2.5285
  125SOL    HW2 1061   4.049   1.086   0.462  0.0695 -1.8949 -1.4013
  126SOL     OW 1062   6.420   2.895   1.596 -0.1257 -0.3577  0.4418
  126SOL    HW1 1063   6.453   2.963   1.655  1.7580 -2.1205  1.5932
  126SOL    HW2 1064   6.333   2.925   1.571  1.1070  3.1302 -0.2744
  127SOL     OW 1065   3.427   0.791   1.083  0.2804  0.4077  0.7884
  127SOL    HW1 1066   3.436   0.857   1.014 -1.5004  0.2475  0.3545
  127SOL    HW2 1067   3.344   0.748   1.064 -0.6917  0.9017  3.5039
  128SOL     OW 1068   0.216   0.225   2.785 -0.0630  0.0203 -0.0791
  128SOL    HW1 1069   0.159   0.242   2.710 -0.1077 -0.1892 -0.0932
  128SOL    HW2 1070   0.277   0.159   2.754 -0.2697 -0.2859  0.1632
  129SOL     OW 1071   4.802   5.393   4.475 -0.2384 -0.1425 -0.3645
  129SOL    HW1 1072   4.718   5.423   4.441  0.6460  1.1763 -1.5095
  129SOL    HW2 1073   4.854   5.472   4.484  1.0227 -0.9709 -0.0585
  130SOL     OW 1074   0.687   0.106   1.468 -0.7171  0.1479  0.4724
  130SOL    HW1 1075   0.614   0.083   1.410  0.6418 -1.8890 -0.5307
  130SOL    HW2 1076   0.688   0.036   1.533  1.2769 -0.7391 -0.4575
  131SOL     OW 1077   4.860   0.236   7.622  0.0143 -0.3452 -0.2584
  131SOL    HW1 1078   4.862   0.274   7.710  0.4836  1.3674 -0.9709
  131SOL    HW2 1079   4.941   0.185   7.616  0.0054 -0.4299  0.2664
  132SOL     OW 1080   4.044   7.105   2.765  0.1469  0.0790  0.5348
  132SOL    HW1 1081   4.030   7.064   2.851 -2.6670  1.4724  0.8656
  132SOL    HW2 1082   4.073   7.194   2.786  2.0151 -0.3223 -0.0984
  133SOL     OW 1083   7.419   6.690   5.466 -0.5780  0.6380  0.4454
  133SOL    HW1 1084   7.340   6.646   5.495 -0.6409  0.4556  0.0155
  133SOL    HW2 1085   7.491   6.637   5.500 -0.6497 -0.4240 -0.9372
  134SOL     OW 1086   0.470   0.413   6.963  0.8367  0.1904  0.4577
  134SOL    HW1 1087   0.408   0.348   6.930 -1.0170  2.1123 -0.0392
  134SOL    HW2 1088   0.447   0.423   7.056  0.8993  0.3660  0.4555
  135SOL     OW 1089   4.729   2.026   5.701 -0.3289  0.8787  0.1003
  135SOL    HW1 1090   4.816   1.990   5.721 -1.6042 -2.7146 -0.0744
  135SOL    HW2 1091   4.694   2.052   5.787  0.1213  0.3472  0.4525
  136SOL     OW 1092   1.218   6.018   4.360 -0.3423 -0.0590 -0.6173
  136SOL    HW1 1093   1.123   6.024   4.362 -0.4125 -1.0264 -0.6664
  136SOL    HW2 1094   1.244   6.000   4.450 -0.0974  1.4321 -0.3642
  137SOL     OW 1095   7.268   1.696   3.186 -0.0393  0.4378 -0.0818
  137SOL    HW1 1096   7.216   1.752   3.244 -0.8015 -0.8531  0.5581
  137SOL    HW2 1097   7.223   1.701   3.102 -0.5894  0.1676  0.1876
  138SOL     OW 1098   1.827   3.096   2.990 -0.0172  0.1520  0.2133
  138SOL    HW1 1099   1.867   3.175   3.026  0.0920 -0.2167  0.9095
  138SOL    HW2 1100   1.734   3.116   2.985  0.1659  0.8100 -0.8873
  139SOL     OW 1101   4.094   0.017   5.636  0.4741 -0.7220 -0.1565
  139SOL    HW1 1102   4.155   0.090   5.645 -0.0859 -0.4409  1.8015
  139SOL    HW2 1103   4.139  -0.057   5.676 -0.0201 -0.7808  0.3023
  140SOL     OW 1104   0.942   0.669   1.078  0.2864  0.1373  0.4756
  140SOL    HW1 1105   1.002   0.595   1.074  0.3930  0.2456 -0.0008
  140SOL    HW2 1106   0.933   0.688   1.172 -0.4544 -1.0465  0.6788
  141SOL     OW 1107   4.655   3.492   3.298  1.0368  0.3500  0.4475
  141SOL    HW1 1108   4.698   3.561   3.348  0.4464  1.7123 -0.8633
  141SOL    HW2 1109   4.564   3.496   3.327  0.9607  0.2492  0.2178
  142SOL     OW 1110   0.076   3.627   3.242 -0.0006 -0.5933 -0.3579
  142SOL    HW1 1111   0.062   3.661   3.331  1.1430 -1.7103  0.2822
  142SOL    HW2 1112   0.102   3.704   3.191  0.1797 -0.0782  0.4925
  143SOL     OW 1113   3.511   4.537   2.365  0.1105  0.2827 -0.3439
  143SOL    HW1 1114   3.490   4.513   2.274  0.7558 -1.5188 -0.0428
  143SOL    HW2 1115   3.441   4.598   2.390 -0.8146 -0.2118 -1.6228
  144SOL     OW 1116   5.657   4.452   3.448  0.2235 -0.0600 -0.2792
  144SOL    HW1 1117   5.665   4.540   3.413 -0.2740  0.0668 -0.0841
  144SOL    HW2 1118   5.567   4.426   3.429 -0.1856  0.1536  1.1982
  145SOL     OW 1119   4.303   1.814   0.102  0.4864  0.1400 -0.5517
  145SOL    HW1 1120   4.332   1.738   0.052 -0.6515 -0.6160 -0.1115
  145SOL    HW2 1121   4.252   1.866   0.039  0.8226  0.2672 -0.7188
  146SOL     OW 1122   7.722   2.863   1.798  0.6703 -0.4801  1.1758
  146SOL    HW1 1123   7.664   2.833   1.869 -0.2901  0.2203  0.7068
  146SOL    HW2 1124   7.671   2.848   1.718  0.9543  0.5828  0.7877
  147SOL     OW 1125   2.873   0.221   2.672  0.3872 -0.2622  0.1444
  147SOL    HW1 1126   2.815   0.251   2.742  0.6867  1.0204 -0.1305
  147SOL    HW2 1127   2.927   0.154   2.712 -1.8124 -2.1248  0.2059
  148SOL     OW 1128   3.631   1.900   5.130  0.2682 -0.1247 -0.9450
  148SOL    HW1 1129   3.708   1.929   5.080  0.8439  0.6808  0.3719
  148SOL    HW2 1130   3.558   1.951   5.094  0.7373  0.7050 -0.7328
  149SOL     OW 1131   5.539   6.430   2.532 -0.3572 -0.1554 -0.2889
  149SOL    HW1 1132   5.628   6.442   2.499 -0.1791 -0.7676 -0.0296
  149SOL    HW2 1133   5.547   6.441   2.627 -0.3179 -1.5353 -0.1141
  150SOL     OW 1134   4.989   4.308   6.090 -0.5815  0.2642 -0.4404
  150SOL    HW1 1135   4.934   4.385   6.075 -0.2917  0.2711 -1.5484
  150SOL    HW2 1136   4.939   4.255   6.152 -1.3024  0.8087 -0.5360
  151SOL     OW 1137   1.862   6.846   4.491  0.6723  0.1600 -0.3534
  151SOL    HW1 1138   1.883   6.770   4.546 -1.0558 -0.1179 -0.0348
  151SOL    HW2 1139   1.914   6.917   4.529  0.5786 -0.3497  0.7801
  152SOL     OW 1140   7.683   1.409   5.553 -0.3693  0.4769  0.6121
  152SOL    HW1 1141   7.604   1.458   5.578 -1.3408 -0.2774 -0.8740
  152SOL    HW2 1142   7.679   1.329   5.605 -0.1923  0.7561  1.0631
  153SOL     OW 1143   0.554   1.262   0.827 -0.7871 -0.6895 -0.0333
  153SOL    HW1 1144   0.616   1.285   0.758  1.1156 -1.7015  1.2768
  153SOL    HW2 1145   0.477   1.229   0.780  0.4048 -1.2400 -1.6820
  154SOL     OW 1146   2.314   5.934   3.092 -0.0563  0.1024 -0.2644
  154SOL    HW1 1147   2.402   5.928   3.131  2.0060  2.2008 -3.9865
  154SOL    HW2 1148   2.279   6.017   3.125 -1.2662 -1.2452  2.0849
  155SOL     OW 1149   4.019   2.887   2.111 -0.0441  0.0117 -0.0336
  155SOL    HW1 1150   3.963   2.902   2.035 -1.4997 -1.5737  0.6614
  155SOL    HW2 1151   3.967   2.832   2.169  1.6244 -0.1332  1.4241
  156SOL     OW 1152   7.335   4.108   1.361  0.3257 -0.3343 -0.7527
  156SOL    HW1 1153   7.310   4.033   1.416 -1.1590 -0.3313 -1.3789
  156SOL    HW2 1154   7.329   4.074   1.271 -0.7764  0.6358 -1.0639
  157SOL     OW 1155   1.868   3.956   0.767 -0.2414  0.3633 -0.6492
  157SOL    HW1 1156   1.954   3.997   0.758 -0.9678  1.8016 -1.3697
  157SOL    HW2 1157   1.866   3.924   0.857  0.2897  2.2099  0.0746
  158SOL     OW 1158   0.171   0.460   0.517  0.4372 -0.2058 -0.9355
  158SOL    HW1 1159   0.170   0.375   0.471  0.8322 -0.0126 -1.3112
  158SOL    HW2 1160   0.135   0.521   0.453 -0.5620 -0.2149 -0.3966
  159SOL     OW 1161   1.834   3.208   3.971 -0.0746 -0.3765  0.0451
  159SOL    HW1 1162   1.757   3.266   3.965 -0.0921 -0.3658  0.3656
  159SOL    HW2 1163   1.891   3.250   4.036 -0.2136 -0.8614  0.4893
  160SOL     OW 1164   0.041   4.821   7.047 -0.2218  0.4345 -0.4956
  160SOL    HW1 1165   0.010   4.769   6.972  1.9775  0.4694 -1.5264
  160SOL    HW2 1166   0.059   4.756   7.115 -0.2325  0.1529 -0.7544
  161SOL     OW 1167   6.008   6.245   0.177 -0.1068  0.2262 -0.5583
  161SOL    HW1 1168   5.952   6.178   0.138  1.6366 -0.7697 -1.4514
  161SOL    HW2 1169   6.097   6.212   0.166  0.6843  1.7088  0.9076
  162SOL     OW 1170   4.621   1.475   0.007  0.3320  0.5549  0.3035
  162SOL    HW1 1171   4.582   1.442   0.088  1.0607 -0.7808  0.1498
  162SOL    HW2 1172   4.704   1.427  -0.000  1.1256  1.9641 -0.3207
  163SOL     OW 1173   0.610   4.065   5.905 -0.5388  0.3880 -0.2144
  163SOL    HW1 1174   0.557   3.988   5.922 -0.6247  0.5364  0.1988
  163SOL    HW2 1175   0.684   4.033   5.853 -0.6751  0.0653 -0.2105
  164SOL     OW 1176   1.804   4.284   2.871 -0.8694  0.2562 -0.1436
  164SOL    HW1 1177   1.719   4.308   2.834 -1.4827  0.5794  1.3917
  164SOL    HW2 1178   1.836   4.213   2.815 -1.0368  1.6853 -2.1556
  165SOL     OW 1179   2.192   1.602   5.783  0.4610 -0.4006  0.0652
  165SOL    HW1 1180   2.216   1.599   5.691  0.8552  1.1412  0.0927
  165SOL    HW2 1181   2.126   1.671   5.788  1.1190  0.1755  1.0748
  166SOL     OW 1182   2.159   0.785   4.841 -0.0744  0.1396 -0.2435
  166SOL    HW1 1183   2.166   0.880   4.845 -0.1803  0.0988  1.7129
  166SOL    HW2 1184   2.078   0.769   4.793  1.7196  0.9117 -3.8843
  167SOL     OW 1185   0.498   6.057   4.286 -0.2191  0.2234  0.2957
  167SOL    HW1 1186   0.406   6.042   4.262 -0.3301 -1.2042  1.4477
  167SOL    HW2 1187   0.497   6.134   4.342 -0.4875  1.1428 -0.9376
  168SOL     OW 1188   3.294   6.668   3.565  0.5690  0.5006 -0.2003
  168SOL    HW1 1189   3.209   6.683   3.524 -0.0358 -0.6228  0.5694
  168SOL    HW2 1190   3.313   6.750   3.610 -0.6627  0.4211  0.5310
  169SOL     OW 1191   4.189   6.710   6.813  0.1362 -0.1423 -0.0863
  169SOL    HW1 1192   4.233   6.787   6.850  0.4335  0.5807 -1.8375
  169SOL    HW2 1193   4.193   6.644   6.883  0.4735  1.1911  1.2148
  170SOL     OW 1194   5.490   7.352   0.708  0.0599  0.4261 -0.6796
  170SOL    HW1 1195   5.454   7.283   0.762  2.4089 -1.2241 -1.0954
  170SOL    HW2 1196   5.515   7.309   0.626  2.0839  1.6185 -0.7589
  171SOL     OW 1197   0.162   3.562   1.279  0.3350 -0.0446  0.0583
  171SOL    HW1 1198   0.196   3.602   1.199 -0.5726  0.2152 -0.2079
  171SOL    HW2 1199   0.200   3.613   1.350 -0.2449  0.8603 -0.2637
  172SOL     OW 1200   1.867   7.111   2.071  0.3312 -0.3644 -0.2152
  172SOL    HW1 1201   1.816   7.030   2.062  0.9697 -0.9126  0.8547
  172SOL    HW2 1202   1.806   7.181   2.047 -1.4943 -0.8473  2.5851
  173SOL     OW 1203   0.606   1.955   0.111 -0.1322  0.0968 -0.4025
  173SOL    HW1 1204   0.542   1.884   0.103  1.6532 -1.4817 -1.4269
  173SOL    HW2 1205   0.617   1.968   0.205 -1.3158 -0.1820 -0.2094
  174SOL     OW 1206   0.425   4.267   6.649 -0.0911 -0.3022 -0.1172
  174SOL    HW1 1207   0.438   4.187   6.599  0.3610 -0.6035  0.4784
  174SOL    HW2 1208   0.367   4.320   6.594 -1.5807 -1.6113  0.1099
  175SOL     OW 1209   7.685   5.775   1.472  0.3538 -0.4375  0.0593
  175SOL    HW1 1210   7.677   5.855   1.524 -1.2334  1.1160 -2.3954
  175SOL    HW2 1211   7.730   5.714   1.530  1.5843  2.1740  2.0895
  176SOL     OW 1212   5.205   2.779   7.022  0.2452  0.1398  0.1586
  176SOL    HW1 1213   5.231   2.805   7.110 -0.2158  0.0086  0.3334
  176SOL    HW2 1214   5.110   2.779   7.023  0.2319  0.3492 -0.4031
  177SOL     OW 1215   7.160   1.395   6.815 -0.5018 -0.4481  0.3922
  177SOL    HW1 1216   7.113   1.465   6.772 -0.5753 -0.3224  0.6726
  177SOL    HW2 1217   7.177   1.330   6.747  0.0481  0.0910  0.0094
  178SOL     OW 1218   7.478   2.295   2.661 -0.2460  0.0450 -0.3999
  178SOL    HW1 1219   7.393   2.257   2.641  0.9934 -1.3269 -3.8758
  178SOL    HW2 1220   7.535   2.220   2.676  0.4869  0.9275  1.5066
  179SOL     OW 1221   4.318   2.788   5.502 -0.1001 -0.2739 -0.2323
  179SOL    HW1 1222   4.407   2.773   5.472 -0.7536 -1.4697 -1.6615
  179SOL    HW2 1223   4.328   2.816   5.594  1.6733 -1.0837 -0.1470
  180SOL     OW 1224   3.576   1.744   5.551 -0.4807  0.5789  0.1217
  180SOL    HW1 1225   3.536   1.778   5.632 -0.9370  2.4299 -0.8195
  180SOL    HW2 1226   3.602   1.823   5.503 -1.4908 -0.3822 -2.1742
  181SOL     OW 1227   1.292   5.347   5.010 -0.1081 -0.0780  0.1685
  181SOL    HW1 1228   1.371   5.327   5.062 -0.9288 -1.0285  1.0967
  181SOL    HW2 1229   1.299   5.290   4.934 -0.4029 -0.9272  0.7671
  182SOL     OW 1230   6.277   5.671   7.468  0.0349 -0.3482 -0.3138
  182SOL    HW1 1231   6.285   5.592   7.414  0.9337 -0.4278 -0.0786
  182SOL    HW2 1232   6.350   5.666   7.529 -0.9439 -0.2436  0.9154
  183SOL     OW 1233   6.536   6.886   4.127  0.3000 -0.5183 -0.0845
  183SOL    HW1 1234   6.579   6.968   4.152 -1.9241  0.3346  1.2108
  183SOL    HW2 1235   6.450   6.890   4.169 -0.2944 -3.0437 -0.8962
  184SOL     OW 1236   2.109   4.505   2.415  0.5535 -0.4388 -0.4943
  184SOL    HW1 1237   2.074   4.500   2.504  0.0841 -0.3311 -0.6638
  184SOL    HW2 1238   2.202   4.524   2.426  0.0245  2.3175 -0.0295
  185SOL     OW 1239   4.012   0.286   5.608  0.2459  0.0483 -0.4341
  185SOL    HW1 1240   4.009   0.193   5.587  0.6285  0.3526 -1.9738
  185SOL    HW2 1241   4.021   0.329   5.524  1.5731  1.4086  0.3410
  186SOL     OW 1242   4.770   5.995   0.562  0.3921  0.4867 -0.3349
  186SOL    HW1 1243   4.865   5.998   0.548  0.2390  1.6517 -1.3347
  186SOL    HW2 1244   4.739   6.080   0.531 -1.0837 -0.2222 -0.8989
  187SOL     OW 1245   2.812   2.989   0.421  0.3073  0.0373  0.0578
  187SOL    HW1 1246   2.857   3.073   0.425  1.9296 -0.8130  0.9183
  187SOL    HW2 1247   2.810   2.966   0.328  0.3028  0.7824 -0.1273
  188SOL     OW 1248   1.204   0.236   4.169 -0.2595 -0.2561  0.2450
  188SOL    HW1 1249   1.211   0.195   4.255 -0.4206  1.7829  1.3085
  188SOL    HW2 1250   1.119   0.208   4.136 -0.3069 -0.8656  0.8615
  189SOL     OW 1251   5.421   3.159   1.321 -1.0493 -0.2569  0.8849
  189SOL    HW1 1252   5.493   3.219   1.304  1.0149 -2.6151  0.6697
  189SOL    HW2 1253   5.381   3.144   1.235  0.5906 -1.6702  0.3092
  190SOL     OW 1254   0.291   0.430   4.944  0.4309  0.2253 -1.0301
  190SOL    HW1 1255   0.269   0.338   4.958 -0.9238  0.6097 -0.4022
  190SOL    HW2 1256   0.251   0.452   4.861 -1.4233  0.8536 -0.0215
  191SOL     OW 1257   7.036   3.330   3.591  0.3859 -0.2422  0.0168
  191SOL    HW1 1258   6.976   3.404   3.585 -0.7008 -0.9806  1.0459
  191SOL    HW2 1259   6.985   3.255   3.559  1.6599 -0.4804 -1.5859
  192SOL     OW 1260   7.068   6.947   4.550 -0.1417  0.1443  0.1633
  192SOL    HW1 1261   7.012   6.919   4.477 -0.7491 -0.8068  0.9645
  192SOL    HW2 1262   7.011   6.942   4.627  1.0109 -0.7756  0.9993
  193SOL     OW 1263   0.060   6.050   3.827 -0.1349 -0.7024 -0.4651
  193SOL    HW1 1264   0.095   5.970   3.866 -1.1136 -0.3027  1.3169
  193SOL    HW2 1265   0.137   6.093   3.790  0.6257 -1.7562 -0.1625
  194SOL     OW 1266   2.443   3.174   2.285 -0.0616 -0.0053  0.2214
  194SOL    HW1 1267   2.370   3.169   2.345  0.2487  0.2891  0.6243
  194SOL    HW2 1268   2.434   3.259   2.242  1.0409  0.8233  1.5676
  195SOL     OW 1269   7.649   1.502   5.298 -0.2116  0.2068 -0.4786
  195SOL    HW1 1270   7.665   1.451   5.377 -1.1376 -0.4472 -0.6991
  195SOL    HW2 1271   7.705   1.462   5.232 -0.1658  0.1342 -0.3961
  196SOL     OW 1272   5.104   1.388   0.826  0.7559 -0.0262 -0.2099
  196SOL    HW1 1273   5.196   1.405   0.850  0.9129 -1.1834  0.0335
  196SOL    HW2 1274   5.093   1.436   0.744  1.3534  0.7524  0.1456
  197SOL     OW 1275   5.283   3.578   1.707  0.1199  1.1157 -0.0940
  197SOL    HW1 1276   5.195   3.598   1.739  0.4537  1.4083  0.6687
  197SOL    HW2 1277   5.320   3.663   1.685  1.1560  1.3339  2.1337
  198SOL     OW 1278   0.374   7.506   4.506  0.5163 -0.1543 -0.4558
  198SOL    HW1 1279   0.287   7.503   4.547  0.2573 -1.4553 -1.0308
  198SOL    HW2 1280   0.429   7.454   4.564  1.3278  1.8959  0.7174
  199SOL     OW 1281   4.769   6.468   1.095  0.1703  0.2602  0.0052
  199SOL    HW1 1282   4.743   6.414   1.170  0.8966 -0.8644 -0.5258
  199SOL    HW2 1283   4.805   6.406   1.032  0.2734  1.2812 -0.9739
  200SOL     OW 1284   3.469   1.080   6.020  0.2720  0.1959  0.0719
  200SOL    HW1 1285   3.386   1.036   6.038  0.4148 -0.1832 -0.1784
  200SOL    HW2 1286   3.509   1.028   5.951  1.7210 -0.9266  1.6782
  201SOL     OW 1287   7.766   7.006   2.915 -0.0445 -0.2855 -0.4241
  201SOL    HW1 1288   7.780   6.995   3.009  0.4255  0.7377 -0.3621
  201SOL    HW2 1289   7.854   7.007   2.878 -0.1955  0.1124 -0.7743
  202SOL     OW 1290   0.108   1.489   5.749 -0.4414 -0.4275  0.2184
  202SOL    HW1 1291   0.201   1.489   5.726 -0.5802  1.7553 -0.5769
  202SOL    HW2 1292   0.063   1.503   5.666 -1.2369  2.1506  0.9873
  203SOL     OW 1293   6.002   5.059   4.522  0.3133 -0.0363  0.1588
  203SOL    HW1 1294   6.012   4.971   4.557 -0.2418  0.0544  0.5654
  203SOL    HW2 1295   6.050   5.115   4.584 -3.5296  0.5873  2.9555
  204SOL     OW 1296   0.685   3.202   0.110  0.1538 -0.2239  0.4849
  204SOL    HW1 1297   0.599   3.244   0.105  0.7778  1.0099 -1.7854
  204SOL    HW2 1298   0.746   3.272   0.085  1.6614 -1.4786  0.5293
  205SOL     OW 1299   2.198   0.469   7.621 -0.4700  0.5195 -0.1086
  205SOL    HW1 1300   2.188   0.391   7.676  1.1331  1.1837  1.1802
  205SOL    HW2 1301   2.264   0.443   7.556 -0.0613  0.7400  0.2163
  206SOL     OW 1302   1.956   2.446   7.227 -0.1361 -0.5332 -0.3748
  206SOL    HW1 1303   1.918   2.423   7.312  0.6699 -2.4543 -0.4931
  206SOL    HW2 1304   1.923   2.534   7.210 -1.7255 -0.7787  1.1109
  207SOL     OW 1305   7.138   0.106   0.776 -0.2788 -0.6006 -0.0786
  207SOL    HW1 1306   7.103   0.192   0.753 -0.9521  0.0063  2.8730
  207SOL    HW2 1307   7.221   0.101   0.728 -0.2010  1.7186 -0.3018
  208SOL     OW 1308   1.850   2.189   5.195  0.5280 -0.6013 -0.2876
  208SOL    HW1 1309   1.935   2.148   5.213  1.5087  1.9344  1.4064
  208SOL    HW2 1310   1.820   2.221   5.280 -1.0503  0.5263 -1.2135
  209SOL     OW 1311   2.468   0.118   1.041 -0.2151  0.1857  0.8095
  209SOL    HW1 1312   2.439   0.027   1.029 -1.1133  0.8733 -3.9466
  209SOL    HW2 1313   2.388   0.169   1.031  0.5633  1.6530  1.7387
  210SOL     OW 1314   4.590   5.193   1.559  0.2227 -0.5966  0.3451
  210SOL    HW1 1315   4.540   5.250   1.618  2.4184 -0.7980  2.5534
  210SOL    HW2 1316   4.568   5.224   1.471 -0.9429  1.6736  1.3614
  211SOL     OW 1317   3.622   6.767   3.625  0.5664 -0.1411  0.0406
  211SOL    HW1 1318   3.655   6.698   3.682  3.2490  0.1294 -1.0506
  211SOL    HW2 1319   3.629   6.847   3.677 -0.9673 -0.4056  0.7169
  212SOL     OW 1320   4.232   4.263   3.289  1.1786  0.0985 -0.4122
  212SOL    HW1 1321   4.160   4.312   3.329 -0.5325 -1.5840 -1.2407
  212SOL    HW2 1322   4.278   4.223   3.363 -0.5179 -1.0803  0.0707
  213SOL     OW 1323   0.644   0.826   5.238 -0.1121 -0.4281  0.2564
  213SOL    HW1 1324   0.630   0.846   5.145 -0.9744  1.7074  0.8109
  213SOL    HW2 1325   0.557   0.826   5.277  0.1656 -2.0845  0.9730
  214SOL     OW 1326   5.626   6.519   7.534 -0.5746 -0.2020 -0.4778
  214SOL    HW1 1327   5.640   6.598   7.586 -3.4431 -0.5913  1.0478
  214SOL    HW2 1328   5.689   6.527   7.462  1.3241  1.9334  1.2548
  215SOL     OW 1329   0.426   4.262   6.243  0.2433 -0.3106  0.5742
  215SOL    HW1 1330   0.369   4.199   6.199  0.2409  0.7143 -0.9774
  215SOL    HW2 1331   0.368   4.311   6.301 -0.0035 -0.8529  0.7877
  216SOL     OW 1332   4.875   3.486   5.331  0.2163 -0.2959  0.3945
  216SOL    HW1 1333   4.842   3.542   5.401  0.2120 -1.4305  1.3314
  216SOL    HW2 1334   4.935   3.542   5.282 -1.0005  1.0002  0.3021
  217SOL     OW 1335   5.499   6.461   5.358 -0.4179  0.2577  0.1594
  217SOL    HW1 1336   5.521   6.439   5.267 -1.1006  0.2452 -0.0076
  217SOL    HW2 1337   5.523   6.383   5.408 -0.6657  0.0122 -0.1012
  218SOL     OW 1338   1.929   3.931   5.440  0.3014  0.5327  0.0743
  218SOL    HW1 1339   1.855   3.955   5.384 -0.0421 -0.3965  0.0978
  218SOL    HW2 1340   1.983   3.874   5.385 -0.1226 -0.5253  0.7118
  219SOL     OW 1341   5.635   0.633   5.555 -0.3277 -0.3321  0.1313
  219SOL    HW1 1342   5.722   0.673   5.555 -0.1009 -0.8160 -0.1896
  219SOL    HW2 1343   5.643   0.558   5.496 -0.4447 -1.5185  1.5773
  220SOL     OW 1344   5.053   3.404   3.019  0.3646 -0.0764  0.3012
  220SOL    HW1 1345   5.059   3.375   3.110  0.9828 -0.3395  0.1883
  220SOL    HW2 1346   5.103   3.485   3.016  0.5092 -0.1695  0.1590
  221SOL     OW 1347   3.840   4.748   3.258  0.5422  0.4174 -0.2047
  221SOL    HW1 1348   3.800   4.690   3.194  0.4999 -0.4779  0.6043
  221SOL    HW2 1349   3.889   4.811   3.206  0.8598 -0.5447 -1.1140
  222SOL     OW 1350   5.165   2.732   1.260 -0.0533 -0.1235  0.1282
  222SOL    HW1 1351   5.257   2.715   1.238  0.1254  0.2204  0.6101
  222SOL    HW2 1352   5.142   2.664   1.323 -0.8706 -1.7551 -1.8245
  223SOL     OW 1353   4.562   5.879   7.083  0.2881 -0.5783  0.6033
  223SOL    HW1 1354   4.598   5.862   7.170 -1.7562 -2.7866  1.0957
  223SOL    HW2 1355   4.470   5.854   7.089  0.4939 -2.6631 -2.6904
  224SOL     OW 1356   6.285   7.710   4.905  0.1578  0.1617  0.1206
  224SOL    HW1 1357   6.320   7.775   4.966  0.2973  0.1816  0.0195
  224SOL    HW2 1358   6.233   7.762   4.843  1.3056  0.3495 -0.7301
  225SOL     OW 1359   1.822   0.672   0.516 -0.3556 -0.9780 -0.5030
  225SOL    HW1 1360   1.879   0.623   0.575  0.3222 -2.0546 -1.9805
  225SOL    HW2 1361   1.833   0.629   0.431 -1.9844 -0.0510 -1.2277
  226SOL     OW 1362   5.987   0.202   4.091  0.0260 -0.0944 -0.0288
  226SOL    HW1 1363   6.067   0.150   4.087  0.0873 -0.1565  1.5813
  226SOL    HW2 1364   5.952   0.187   4.179  0.1248  2.7015  0.5873
  227SOL     OW 1365   7.022   7.617   6.864 -0.2727 -0.5767  0.7305
  227SOL    HW1 1366   7.067   7.577   6.790 -1.1156 -0.3203  0.0588
  227SOL    HW2 1367   6.952   7.556   6.885  0.4084 -1.0062  1.8083
  228SOL     OW 1368   3.868   0.337   1.669  0.3156 -0.1045 -0.0250
  228SOL    HW1 1369   3.841   0.420   1.709 -1.3455 -0.7300  0.1946
  228SOL    HW2 1370   3.827   0.337   1.583 -1.1241 -1.4144  0.6137
  229SOL     OW 1371   4.045   5.117   5.639  0.3708 -0.1514  0.1082
  229SOL    HW1 1372   4.037   5.060   5.716  0.8560 -0.0699  0.2190
  229SOL    HW2 1373   3.993   5.073   5.572 -0.0414 -0.2323  0.4759
  230SOL     OW 1374   2.581   4.179   0.908  0.0285 -0.3696 -0.4299
  230SOL    HW1 1375   2.624   4.094   0.913 -2.6032 -1.8810 -1.3593
  230SOL    HW2 1376   2.542   4.192   0.995 -2.2456 -1.7584 -1.1470
  231SOL     OW 1377   7.567   1.656   6.313 -0.2275 -0.4378 -0.2244
  231SOL    HW1 1378   7.528   1.721   6.256 -1.4403 -0.4061  0.6022
  231SOL    HW2 1379   7.506   1.647   6.386  1.0014 -0.8752  0.8062
  232SOL     OW 1380   0.001   1.680   4.553 -0.3930 -0.6923  0.1882
  232SOL    HW1 1381  -0.074   1.715   4.601  1.2976  3.5290  0.1971
  232SOL    HW2 1382   0.000   1.727   4.470  1.8180 -0.9714 -0.0530
  233SOL     OW 1383   2.456   6.844   1.463  0.0873 -0.4669  0.0092
  233SOL    HW1 1384   2.373   6.891   1.464 -0.5033 -1.4776 -0.6867
  233SOL    HW2 1385   2.442   6.769   1.405  1.0716 -1.3943  0.9156
  234SOL     OW 1386   3.598   6.521   1.950  0.6935 -0.0076 -0.1467
  234SOL    HW1 1387   3.579   6.613   1.972  0.3276 -0.3536  1.0867
  234SOL    HW2 1388   3.571   6.472   2.028  0.6279 -1.1989 -0.8944
  235SOL     OW 1389   6.436   5.392   0.953  0.1060 -0.1708 -0.2464
  235SOL    HW1 1390   6.411   5.301   0.966 -1.1153  0.2417  0.4229
  235SOL    HW2 1391   6.523   5.388   0.913  0.3322 -1.6151  0.3474
  236SOL     OW 1392   1.818   4.521   0.079  0.2100 -0.0541 -0.2513
  236SOL    HW1 1393   1.766   4.529  -0.001 -1.3042  1.2273  0.8151
  236SOL    HW2 1394   1.816   4.427   0.099 -0.1653 -0.2654 -1.2099
  237SOL     OW 1395   0.359   7.326   3.887  0.2528  0.5378  0.1502
  237SOL    HW1 1396   0.428   7.348   3.950  0.3014 -0.0713  0.3111
  237SOL    HW2 1397   0.399   7.263   3.828  0.2778  1.2636 -0.6410
  238SOL     OW 1398   4.651   7.663   5.809  0.0350 -0.5789  0.2302
  238SOL    HW1 1399   4.651   7.682   5.715 -1.4239 -0.0036  0.3174
  238SOL    HW2 1400   4.650   7.567   5.814 -0.3234 -0.6121 -0.3597
  239SOL     OW 1401   6.364   1.684   6.427 -0.0674  0.1963  0.4609
  239SOL    HW1 1402   6.358   1.612   6.363 -0.1055  0.9595 -0.4116
  239SOL    HW2 1403   6.389   1.760   6.375 -3.5385  1.6826  0.7013
  240SOL     OW 1404   5.551   1.849   3.284  0.1352 -0.2304 -0.1535
  240SOL    HW1 1405   5.496   1.927   3.285 -0.2853 -0.5272  0.9327
  240SOL    HW2 1406   5.640   1.883   3.274 -0.1665  0.2767 -1.4110
  241SOL     OW 1407   7.516   1.245   5.276  0.3975  0.0827  0.3434
  241SOL    HW1 1408   7.506   1.163   5.324  0.2192 -0.8264 -1.1748
  241SOL    HW2 1409   7.432   1.290   5.286  0.4565  0.0384  1.0837
  242SOL     OW 1410   5.523   2.289   2.362  0.0343 -0.3723  0.2230
  242SOL    HW1 1411   5.476   2.301   2.445  0.3807 -1.7169  0.6380
  242SOL    HW2 1412   5.612   2.317   2.382  0.1195 -0.7035  0.3244
  243SOL     OW 1413   1.072   6.103   2.554  0.3301 -0.1332 -0.0442
  243SOL    HW1 1414   1.025   6.141   2.628  1.7209 -0.1015  0.8506
  243SOL    HW2 1415   1.147   6.160   2.540 -0.2288  0.2117 -1.9061
  244SOL     OW 1416   7.748   5.746   7.731  0.6443  0.4288 -0.6202
  244SOL    HW1 1417   7.743   5.840   7.712  0.9480  0.3914 -0.8923
  244SOL    HW2 1418   7.706   5.736   7.817  2.3333  1.0933  0.3255
  245SOL     OW 1419   5.954   0.991   7.155 -0.0768 -0.3421 -0.3212
  245SOL    HW1 1420   6.038   0.970   7.195 -0.2327 -0.5846 -0.1229
  245SOL    HW2 1421   5.936   0.918   7.096 -0.8245 -0.9962  0.6891
  246SOL     OW 1422   6.192   5.195   4.693  0.7293  0.3523  0.2886
  246SOL    HW1 1423   6.284   5.207   4.670  0.3406  0.4366 -1.3655
  246SOL    HW2 1424   6.177   5.257   4.764  1.3963  2.0206 -0.9591
  247SOL     OW 1425   5.463   4.273   0.051  0.3968 -0.0695  0.3743
  247SOL    HW1 1426   5.490   4.305   0.137 -1.4188  0.6250  0.7391
  247SOL    HW2 1427   5.396   4.335   0.022  0.6928 -0.5033 -1.3849
  248SOL     OW 1428   4.381   5.574   7.462  0.8217 -0.7490 -0.0408
  248SOL    HW1 1429   4.368   5.609   7.550 -1.3115 -0.3331 -0.4540
  248SOL    HW2 1430   4.292   5.570   7.425  1.7496  0.0891 -2.5536
  249SOL     OW 1431   2.887   4.477   0.313  0.0887  0.2874  0.5014
  249SOL    HW1 1432   2.968   4.425   0.305 -0.8750 -0.9777 -2.3536
  249SOL    HW2 1433   2.893   4.542   0.243 -1.8664 -0.6545 -0.6274
  250SOL     OW 1434   0.640   0.973   0.826  0.4747  0.2640  0.2003
  250SOL    HW1 1435   0.566   1.021   0.863 -1.3082 -2.1620 -0.0173
  250SOL    HW2 1436   0.715   1.001   0.878 -0.6881  2.2660  0.8970
  251SOL     OW 1437   6.935   0.459   2.373 -0.2742 -0.2018  0.0245
  251SOL    HW1 1438   6.886   0.529   2.415  1.4145  0.8061  0.3869
  251SOL    HW2 1439   6.954   0.492   2.285 -2.7622 -1.8200 -1.2580
  252SOL     OW 1440   6.184   1.186   5.721 -0.0900 -0.3427 -0.4381
  252SOL    HW1 1441   6.206   1.194   5.628 -0.6600 -1.2143 -0.6670
  252SOL    HW2 1442   6.107   1.241   5.732 -0.7722 -1.2056 -0.7773
  253SOL     OW 1443   5.854   2.775   6.032 -0.6218 -0.4150 -0.3837
  253SOL    HW1 1444   5.803   2.848   5.997 -0.3324 -1.1179 -2.3686
  253SOL    HW2 1445   5.874   2.720   5.956  0.1392 -1.9774  0.8764
  254SOL     OW 1446   0.362   3.090   7.114  0.1401  0.4454  0.2588
  254SOL    HW1 1447   0.433   3.031   7.088 -1.5158 -1.2167 -0.7185
  254SOL    HW2 1448   0.358   3.155   7.044  1.1591  1.0046  0.7023
  255SOL     OW 1449   2.467   1.347   4.424 -0.2532 -0.4776  0.3638
  255SOL    HW1 1450   2.436   1.426   4.380 -1.0593 -1.8228 -1.6484
  255SOL    HW2 1451   2.391   1.317   4.474  0.6158  0.9642  2.6854
  256SOL     OW 1452   6.770   2.423   0.069 -0.0938 -0.3273 -0.3029
  256SOL    HW1 1453   6.804   2.386   0.150 -1.6161 -0.1690  0.4576
  256SOL    HW2 1454   6.831   2.395   0.001  0.4398 -1.6724  0.6978
  257SOL     OW 1455   7.739   2.511   6.867 -0.1520  0.0305 -0.0797
  257SOL    HW1 1456   7.748   2.422   6.901  0.4753  0.5703  1.2175
  257SOL    HW2 1457   7.825   2.531   6.830 -0.5789 -0.2406 -1.2556
  258SOL     OW 1458   7.513   3.236   5.292  0.7593  0.3556  0.8888
  258SOL    HW1 1459   7.419   3.255   5.299  0.9542  1.8480 -0.2120
  258SOL    HW2 1460   7.545   3.247   5.382  0.1291  1.3110  1.0165
  259SOL     OW 1461   5.458   3.242   3.662 -0.4524 -0.5032  0.1868
  259SOL    HW1 1462   5.462   3.328   3.704  0.2839 -0.5325  0.1765
  259SOL    HW2 1463   5.510   3.252   3.582 -1.3863 -0.6021 -0.4506
  260SOL     OW 1464   3.201   4.166   4.173  0.1668  0.1491  0.1056
  260SOL    HW1 1465   3.227   4.218   4.097  0.9407 -1.7210 -0.9589
  260SOL    HW2 1466   3.107   4.153   4.162  0.1429  0.5159 -0.1271
  261SOL     OW 1467   7.014   4.894   1.604  0.3098  0.5144  0.5982
  261SOL    HW1 1468   7.096   4.877   1.559  0.4419 -1.2964  1.4283
  261SOL    HW2 1469   6.958   4.935   1.538  1.8572  1.8478  0.0481
  262SOL     OW 1470   1.486   1.287   7.225  0.2407  0.0913 -0.2700
  262SOL    HW1 1471   1.530   1.365   7.259 -1.2390 -0.0658  2.2749
  262SOL    HW2 1472   1.552   1.219   7.228  0.8904  0.7075 -0.2245
  263SOL     OW 1473   4.002   1.285   4.608 -0.1725 -0.0400 -0.2480
  263SOL    HW1 1474   4.016   1.359   4.549  2.2684  0.1316  0.4322
  263SOL    HW2 1475   3.972   1.324   4.690  3.9168  0.7450  1.1282
  264SOL     OW 1476   6.024   0.947   3.623 -0.1155 -0.5218 -0.2023
  264SOL    HW1 1477   6.118   0.940   3.640 -0.2345  0.7915  1.2466
  264SOL    HW2 1478   6.018   0.967   3.530  1.1454  0.5258 -0.0993
  265SOL     OW 1479   1.245   3.677   0.963  0.4557 -0.6062  0.4743
  265SOL    HW1 1480   1.179   3.706   1.025 -1.0233 -1.5023 -0.6108
  265SOL    HW2 1481   1.289   3.757   0.934 -0.4813  0.0605  0.8621
  266SOL     OW 1482   0.735   1.513   5.413  0.3446  0.1323  0.8271
  266SOL    HW1 1483   0.800   1.455   5.451  0.4954  0.5597  1.2341
  266SOL    HW2 1484   0.651   1.473   5.434  0.4693 -0.4161  0.3072
  267SOL     OW 1485   3.487   7.404   1.762 -0.0968  0.5748 -0.2351
  267SOL    HW1 1486   3.428   7.331   1.745  0.7364 -0.2780  0.4237
  267SOL    HW2 1487   3.431   7.472   1.800 -0.6489 -0.2443  0.4489
  268SOL     OW 1488   1.502   6.585   4.312  0.4363  0.3567  0.1748
  268SOL    HW1 1489   1.489   6.600   4.406  0.3053  0.7747  0.0921
  268SOL    HW2 1490   1.433   6.637   4.270  0.7008  0.4316 -0.1667
  269SOL     OW 1491   6.013   6.379   6.456 -0.5781 -0.1471 -0.2180
  269SOL    HW1 1492   6.100   6.376   6.496 -0.2151 -0.0153 -0.9630
  269SOL    HW2 1493   5.995   6.473   6.445 -0.4249 -0.1818 -0.8484
  270SOL     OW 1494   7.259   4.602   2.406  0.0002  0.0715  0.1360
  270SOL    HW1 1495   7.280   4.561   2.321  0.4910  0.5926  0.0023
  270SOL    HW2 1496   7.176   4.647   2.390 -0.1387 -0.2057  0.0603
  271SOL     OW 1497   6.791   0.644   7.154  0.0419 -0.1125 -0.0187
  271SOL    HW1 1498   6.825   0.614   7.238 -2.6506 -2.0957  0.4777
  271SOL    HW2 1499   6.808   0.570   7.094 -1.1064 -0.1124 -0.3537
  272SOL     OW 1500   3.075   7.172   3.126 -0.0818  0.5305  0.1238
  272SOL    HW1 1501   3.093   7.080   3.108 -2.1457  0.0374  0.2695
  272SOL    HW2 1502   3.137   7.220   3.072  0.6990 -0.9515 -0.3502
  273SOL     OW 1503   0.706   0.756   0.698  0.1215  0.1865 -0.0451
  273SOL    HW1 1504   0.668   0.828   0.749  0.6456  0.3795  0.0810
  273SOL    HW2 1505   0.727   0.689   0.763  1.7756  0.8609  0.1553
  274SOL     OW 1506   1.761   2.263   2.923  0.8192 -0.1345  0.0080
  274SOL    HW1 1507   1.850   2.277   2.891 -0.1081  2.6693 -1.5981
  274SOL    HW2 1508   1.713   2.230   2.847  0.2805 -0.8568  0.6462
  275SOL     OW 1509   5.888   0.937   6.447 -0.3144  0.1344 -0.0074
  275SOL    HW1 1510   5.861   0.910   6.360 -0.7315 -0.5757  0.3308
  275SOL    HW2 1511   5.954   0.872   6.474  2.4487  2.2602 -1.1270
  276SOL     OW 1512   4.468   6.514   1.824 -0.0170 -0.1180 -0.2780
  276SOL    HW1 1513   4.538   6.564   1.782  0.2895 -0.7065 -0.4773
  276SOL    HW2 1514   4.447   6.445   1.761  3.4896 -3.8381  2.1352
  277SOL     OW 1515   4.520   6.018   6.821  0.0517  0.2269 -0.2112
  277SOL    HW1 1516   4.603   6.042   6.780 -0.6415  0.9365 -1.2498
  277SOL    HW2 1517   4.545   5.982   6.906  1.3892  0.8231 -0.3254
  278SOL     OW 1518   0.319   5.552   5.586  0.5893  0.2773  0.2449
  278SOL    HW1 1519   0.366   5.474   5.556  0.7414 -0.1398  1.4920
  278SOL    HW2 1520   0.229   5.523   5.596  0.2222  0.8236 -1.2256
  279SOL     OW 1521   3.694   2.842   4.018 -0.5108 -0.8107 -0.5135
  279SOL    HW1 1522   3.648   2.925   4.004 -0.7581 -0.9168 -0.3450
  279SOL    HW2 1523   3.722   2.846   4.110 -0.2085 -0.7587 -0.6074
  280SOL     OW 1524   5.999   5.844   3.513 -0.6422 -0.4156  0.0369
  280SOL    HW1 1525   6.036   5.766   3.555 -1.6458 -1.6354 -1.2910
  280SOL    HW2 1526   6.073   5.884   3.468 -0.3363 -1.1909 -0.1606
  281SOL     OW 1527   1.944   6.911   3.022  0.1090 -0.1208  0.3494
  281SOL    HW1 1528   1.981   6.829   3.057 -0.7911 -1.1371 -0.9765
  281SOL    HW2 1529   1.860   6.884   2.983  0.0074  1.3649 -0.5140
  282SOL     OW 1530   6.941   4.718   3.222  0.1103  0.2240 -0.5705
  282SOL    HW1 1531   6.879   4.645   3.216 -0.4601  0.7033 -0.4968
  282SOL    HW2 1532   6.893   4.794   3.191  0.4891  0.7081  0.0018
  283SOL     OW 1533   1.274   6.038   1.972 -0.1418 -0.2417  0.1767
  283SOL    HW1 1534   1.213   6.088   1.919 -0.7294  0.1818  1.2194
  283SOL    HW2 1535   1.290   5.958   1.922  0.9601  1.0319 -1.6044
  284SOL     OW 1536   4.925   1.450   0.234 -0.4538  0.3709  0.6332
  284SOL    HW1 1537   5.016   1.465   0.259 -0.7926  1.1624  1.4498
  284SOL    HW2 1538   4.930   1.418   0.144  0.7863 -2.2632  1.5360
  285SOL     OW 1539   4.681   5.816   6.629 -0.0523 -0.2968  0.5011
  285SOL    HW1 1540   4.737   5.846   6.557  0.9596 -0.6877  1.1068
  285SOL    HW2 1541   4.592   5.832   6.597  0.3943  1.0631 -0.1811
  286SOL     OW 1542   4.386   5.887   6.442  0.3068  0.3995 -0.0837
  286SOL    HW1 1543   4.459   5.927   6.394 -0.2422  2.2409  0.5295
  286SOL    HW2 1544   4.358   5.954   6.503 -2.1387 -0.1207 -0.5303
  287SOL     OW 1545   0.809   5.725   4.195 -0.5148 -0.7360  0.1084
  287SOL    HW1 1546   0.766   5.775   4.125  0.7122  1.1951  0.6527
  287SOL    HW2 1547   0.750   5.732   4.270 -0.2227  0.1560  0.2609
  288SOL     OW 1548   3.959   3.446   4.920 -0.4885 -0.3474 -0.3937
  288SOL    HW1 1549   4.050   3.441   4.949 -0.2843  0.0956 -0.9406
  288SOL    HW2 1550   3.948   3.368   4.865 -0.1839  0.0375 -1.0129
  289SOL     OW 1551   4.872   6.949   7.098 -0.0237 -0.1569 -0.3295
  289SOL    HW1 1552   4.959   6.988   7.112  0.0763 -0.6521  0.4565
  289SOL    HW2 1553   4.837   6.997   7.023  0.4754  0.8226  0.0435
  290SOL     OW 1554   7.512   3.939   3.472  0.0140 -0.3370  0.2584
  290SOL    HW1 1555   7.469   4.001   3.413 -0.2044 -2.0058 -1.4157
  290SOL    HW2 1556   7.452   3.930   3.546 -0.3740  0.7488  0.0883
  291SOL     OW 1557   2.867   2.882   5.881  0.2267 -0.0211  0.4699
  291SOL    HW1 1558   2.922   2.843   5.949 -1.0436 -2.1461  0.3954
  291SOL    HW2 1559   2.804   2.936   5.929 -0.4964 -1.2942  1.0054
  292SOL     OW 1560   5.077   0.857   3.839 -0.5021 -0.3250 -0.2588
  292SOL    HW1 1561   5.158   0.888   3.880 -0.2089 -0.5257 -0.6729
  292SOL    HW2 1562   5.051   0.781   3.891  0.1079 -0.8460 -0.6988
  293SOL     OW 1563   1.138   6.342   5.511 -1.1854 -0.4896  0.0012
  293SOL    HW1 1564   1.121   6.247   5.507 -1.5299 -0.5213  1.4884
  293SOL    HW2 1565   1.203   6.351   5.580 -1.5132  0.4108  0.1989
  294SOL     OW 1566   2.374   7.645   7.510  0.9174  0.4361 -0.6865
  294SOL    HW1 1567   2.333   7.731   7.519  0.1784 -0.0864  1.3577
  294SOL    HW2 1568   2.468   7.662   7.519  1.1233  1.3877 -3.5218
  295SOL     OW 1569   5.152   4.873   2.358 -0.3415  0.5005 -0.1979
  295SOL    HW1 1570   5.173   4.961   2.388  0.5231  0.3082 -0.2126
  295SOL    HW2 1571   5.132   4.883   2.265 -2.2758  0.9798  0.2378
  296SOL     OW 1572   1.120   3.046   0.812 -0.0462  0.0123  0.2772
  296SOL    HW1 1573   1.061   3.106   0.857  1.9681  2.1067  0.2727
  296SOL    HW2 1574   1.208   3.080   0.829  1.2383 -2.9480  0.2467
  297SOL     OW 1575   4.232   1.242   1.720 -0.9521  0.1544 -0.0620
  297SOL    HW1 1576   4.251   1.157   1.761 -0.6923  1.1578  2.0420
  297SOL    HW2 1577   4.294   1.248   1.648 -0.6425 -1.2357  0.0616
  298SOL     OW 1578   1.344   7.625   1.985 -0.3760 -0.6379  0.2571
  298SOL    HW1 1579   1.422   7.570   1.992 -0.3290 -0.6345 -0.2101
  298SOL    HW2 1580   1.341   7.650   1.893 -0.2112  0.4188  0.5247
  299SOL     OW 1581   0.047   4.694   6.641 -0.0655  0.0264  0.0330
  299SOL    HW1 1582  -0.042   4.722   6.665  0.4393  0.9787  0.8444
  299SOL    HW2 1583   0.103   4.765   6.670  0.9649 -0.5110 -0.5976
  300SOL     OW 1584   3.862   0.719   1.944 -0.5990  0.0911 -0.1728
  300SOL    HW1 1585   3.892   0.660   2.014 -0.3597  1.0623  0.5680
  300SOL    HW2 1586   3.800   0.778   1.988 -2.7677 -1.1165 -1.4037
  301SOL     OW 1587   1.869   0.569   5.951 -0.0054 -0.2612 -0.2773
  301SOL    HW1 1588   1.895   0.547   6.041 -0.2088  1.5157  0.2446
  301SOL    HW2 1589   1.801   0.504   5.931  1.6484 -2.1776 -0.0640
  302SOL     OW 1590   4.413   7.450   4.053 -0.3745  0.2412  0.4201
  302SOL    HW1 1591   4.453   7.400   3.983 -1.5305  0.7226 -0.6150
  302SOL    HW2 1592   4.453   7.537   4.046  1.6566 -0.4387  2.2372
  303SOL     OW 1593   6.263   7.221   1.972  0.1846  0.0303 -0.0008
  303SOL    HW1 1594   6.212   7.301   1.983 -0.8036 -0.8019  1.8935
  303SOL    HW2 1595   6.340   7.234   2.027  0.1493 -0.2206  0.1069
  304SOL     OW 1596   1.519   7.003   1.827  0.9078 -0.4055  0.3100
  304SOL    HW1 1597   1.488   6.988   1.738 -0.1592 -0.6400  0.6962
  304SOL    HW2 1598   1.545   6.916   1.857 -0.1843 -0.6140  0.7240
  305SOL     OW 1599   2.937   5.130   2.819 -0.1438 -0.0569  0.3086
  305SOL    HW1 1600   2.925   5.070   2.893 -0.4906  1.1261  1.2369
  305SOL    HW2 1601   2.850   5.138   2.781  0.1967 -1.4145 -0.8798
  306SOL     OW 1602   4.810   5.709   3.408 -0.2241  1.0495  0.3571
  306SOL    HW1 1603   4.883   5.743   3.357 -0.8376  1.9525  0.0530
  306SOL    HW2 1604   4.732   5.731   3.357 -0.7475  0.5019  0.8876
  307SOL     OW 1605   7.092   5.765   3.440  0.0603  0.1912 -1.0323
  307SOL    HW1 1606   7.092   5.681   3.486  0.7626 -0.5578 -2.3489
  307SOL    HW2 1607   7.060   5.828   3.505 -1.1703 -1.1913 -0.2338
  308SOL     OW 1608   6.940   0.187   2.718 -0.0883  0.4461  0.8002
  308SOL    HW1 1609   6.877   0.221   2.655 -1.1050 -1.4971  0.7009
  308SOL    HW2 1610   6.892   0.118   2.765  1.4641  0.0458  1.8656
  309SOL     OW 1611   4.803   1.729   0.627  0.0621 -0.0921 -0.0270
  309SOL    HW1 1612   4.898   1.724   0.618  0.0805 -0.5113  0.3701
  309SOL    HW2 1613   4.770   1.709   0.539  0.3092 -1.5048  0.1728
  310SOL     OW 1614   0.985   4.727   2.927  0.1855  0.0618  0.0069
  310SOL    HW1 1615   1.081   4.729   2.917  0.1294  0.1917 -0.5619
  310SOL    HW2 1616   0.958   4.817   2.911 -0.3186 -0.5193 -3.2719
  311SOL     OW 1617   5.356   1.507   6.012  0.0951  0.7223 -0.1985
  311SOL    HW1 1618   5.312   1.581   5.970  2.3039  1.9084 -0.5737
  311SOL    HW2 1619   5.343   1.521   6.106  0.4426  1.5999 -0.2670
  312SOL     OW 1620   0.833   2.538   1.218 -0.6079  0.4209  0.0209
  312SOL    HW1 1621   0.742   2.550   1.193 -1.8378 -1.3359  3.1866
  312SOL    HW2 1622   0.847   2.600   1.290 -0.0864 -0.9261  1.1373
  313SOL     OW 1623   3.107   0.041   7.112 -0.0633 -0.6868 -0.3125
  313SOL    HW1 1624   3.013   0.025   7.119 -0.3693  1.0641 -0.1331
  313SOL    HW2 1625   3.133   0.071   7.199  0.6206 -0.8688 -0.4457
  314SOL     OW 1626   5.604   0.148   2.339  0.0627 -0.4968 -0.3076
  314SOL    HW1 1627   5.622   0.065   2.295 -0.4124 -0.4489 -0.5920
  314SOL    HW2 1628   5.541   0.126   2.407 -0.6338 -0.2482 -0.8573
  315SOL     OW 1629   2.583   5.606   3.671  0.3668 -0.0866 -1.0544
  315SOL    HW1 1630   2.549   5.589   3.583 -1.8663 -1.2197 -0.0403
  315SOL    HW2 1631   2.535   5.684   3.700 -0.2664 -0.7988 -0.1682
  316SOL     OW 1632   2.057   1.425   1.587 -0.2491  0.5048 -0.1614
  316SOL    HW1 1633   2.107   1.464   1.659 -0.8161  0.4612  0.2613
  316SOL    HW2 1634   1.979   1.480   1.579  0.8491  1.8707 -2.2444
  317SOL     OW 1635   6.725   4.509   3.237  0.5335 -0.0781 -0.0647
  317SOL    HW1 1636   6.691   4.462   3.313  0.6727  0.1588  0.1418
  317SOL    HW2 1637   6.743   4.439   3.173  1.6760 -0.4244  0.5951
  318SOL     OW 1638   5.899   1.671   1.867 -0.2407 -0.0610  0.5702
  318SOL    HW1 1639   5.962   1.724   1.915  1.1762 -1.7463  0.6745
  318SOL    HW2 1640   5.950   1.596   1.836 -1.7403 -0.3956 -1.2091
  319SOL     OW 1641   4.135   7.704   3.332 -0.0776 -0.0368 -0.0810
  319SOL    HW1 1642   4.126   7.611   3.310 -0.1534 -0.1771  0.5362
  319SOL    HW2 1643   4.225   7.714   3.363  0.8274  0.6371 -2.6765
  320SOL     OW 1644   4.943   4.158   0.601 -0.5242  0.3616 -0.3284
  320SOL    HW1 1645   4.858   4.203   0.604 -1.0699 -0.6621  0.1537
  320SOL    HW2 1646   4.999   4.217   0.552 -1.2891  1.4491  0.0500
  321SOL     OW 1647   0.295   5.650   5.170  0.1807  0.0469  0.1552
  321SOL    HW1 1648   0.324   5.719   5.110  1.2206  1.1274  1.7961
  321SOL    HW2 1649   0.209   5.678   5.200  0.9377  1.1349  1.4395
  322SOL     OW 1650   6.218   1.223   3.560 -0.2950  0.9744  1.0835
  322SOL    HW1 1651   6.313   1.233   3.548  0.0430 -1.8803  0.8132
  322SOL    HW2 1652   6.205   1.129   3.575 -3.1587  1.1962  0.5187
  323SOL     OW 1653   3.234   2.140   1.072  0.8290  0.2424 -0.1102
  323SOL    HW1 1654   3.291   2.070   1.102  0.4103 -0.7584 -1.5274
  323SOL    HW2 1655   3.275   2.221   1.103  1.8911 -0.5660  0.6275
  324SOL     OW 1656   0.412   5.247   6.528 -0.2682  0.4657 -0.4067
  324SOL    HW1 1657   0.427   5.208   6.442  0.6014  1.0598 -0.5327
  324SOL    HW2 1658   0.356   5.323   6.511 -1.9606 -0.6628 -0.1614
  325SOL     OW 1659   7.508   0.265   2.261  0.4136  0.2294  0.3732
  325SOL    HW1 1660   7.550   0.189   2.223 -0.5155  0.2410 -0.7392
  325SOL    HW2 1661   7.450   0.230   2.328  0.0947 -0.0489 -0.0406
  326SOL     OW 1662   2.307   4.417   3.649  0.2653  0.4427  0.1280
  326SOL    HW1 1663   2.245   4.361   3.696  0.1756 -0.8811 -1.4654
  326SOL    HW2 1664   2.280   4.506   3.671 -1.9980 -0.0842 -0.1901
  327SOL     OW 1665   5.587   2.509   1.898  0.0775 -0.4295  0.0731
  327SOL    HW1 1666   5.659   2.447   1.886  1.3377  0.7645  1.0307
  327SOL    HW2 1667   5.563   2.500   1.990 -0.3588 -0.1462 -0.0096
  328SOL     OW 1668   4.718   0.907   5.997 -0.3758  0.0735 -0.2397
  328SOL    HW1 1669   4.682   0.947   5.918 -0.0811  0.9864  0.0746
  328SOL    HW2 1670   4.756   0.825   5.967  0.3152  0.7041 -1.1679
  329SOL     OW 1671   2.300   0.894   2.258  0.3644 -0.1608  0.0636
  329SOL    HW1 1672   2.358   0.938   2.195  0.8745  0.0955  0.7016
  329SOL    HW2 1673   2.311   0.945   2.338 -1.9877  0.9152 -0.2237
  330SOL     OW 1674   0.055   3.402   1.651 -0.0002  0.0592  0.1444
  330SOL    HW1 1675   0.076   3.316   1.687 -2.1633 -0.5301  0.1497
  330SOL    HW2 1676  -0.012   3.437   1.709 -1.0695  0.5724 -1.3277
  331SOL     OW 1677   2.154   4.603   4.765 -0.0840  0.3036  0.0770
  331SOL    HW1 1678   2.070   4.564   4.790  0.6625 -0.5335  1.3596
  331SOL    HW2 1679   2.196   4.625   4.848  2.1213 -1.7580 -0.4040
  332SOL     OW 1680   4.591   3.997   3.163 -0.0383  0.5055  0.2740
  332SOL    HW1 1681   4.582   3.974   3.255  0.2072  0.2523  0.2362
  332SOL    HW2 1682   4.550   4.083   3.155 -2.4502 -0.5869  0.0920
  333SOL     OW 1683   2.266   4.303   4.778  0.2479 -0.2133  0.5562
  333SOL    HW1 1684   2.339   4.263   4.827 -0.2624 -1.2700  0.4810
  333SOL    HW2 1685   2.300   4.388   4.752  1.8234 -1.0343 -0.2716
  334SOL     OW 1686   4.071   2.797   6.806 -0.1269 -0.2233 -0.2898
  334SOL    HW1 1687   4.052   2.787   6.899 -1.3736  0.4471 -0.4510
  334SOL    HW2 1688   4.145   2.859   6.803 -1.0929  1.0112  0.2271
  335SOL     OW 1689   1.989   0.983   1.074 -0.3461 -0.6262 -0.1160
  335SOL    HW1 1690   2.072   0.947   1.043  0.0224 -0.0546  0.1866
  335SOL    HW2 1691   1.992   1.075   1.048 -1.0231 -0.6771 -0.3747
  336SOL     OW 1692   1.316   4.126   6.302  0.4059 -0.2484  0.2344
  336SOL    HW1 1693   1.251   4.149   6.368  0.2950  0.9963 -0.2785
  336SOL    HW2 1694   1.380   4.198   6.305  0.3753 -0.1446 -1.0224
  337SOL     OW 1695   3.530   1.439   6.260 -0.1510  0.7754 -0.3808
  337SOL    HW1 1696   3.542   1.347   6.286  0.7507  1.3476  1.3610
  337SOL    HW2 1697   3.467   1.435   6.187 -0.4073 -1.1847 -0.1078
  338SOL     OW 1698   0.738   2.805   0.426 -0.1655  0.3981  0.3926
  338SOL    HW1 1699   0.777   2.787   0.511 -1.1113  1.8822  1.1936
  338SOL    HW2 1700   0.734   2.901   0.421 -1.9639  0.3304 -0.4335
  339SOL     OW 1701   2.726   1.737   1.429 -0.0689 -0.4267  0.0508
  339SOL    HW1 1702   2.713   1.712   1.338 -0.6745 -1.5470  0.4198
  339SOL    HW2 1703   2.638   1.746   1.465  0.1460 -1.3495  0.8585
  340SOL     OW 1704   0.116   5.300   3.892  0.0725 -0.0211 -1.1498
  340SOL    HW1 1705   0.162   5.218   3.904  0.2858 -0.0709 -2.1627
  340SOL    HW2 1706   0.170   5.349   3.830  1.1591  1.8691  1.1309
  341SOL     OW 1707   1.121   5.356   5.256 -0.0097  0.3763 -0.6225
  341SOL    HW1 1708   1.193   5.293   5.266  1.5385  2.1998  0.5233
  341SOL    HW2 1709   1.147   5.409   5.182 -0.4194  0.7477 -0.5005
  342SOL     OW 1710   0.354   0.706   4.078 -0.3763 -0.0047 -0.5946
  342SOL    HW1 1711   0.287   0.702   4.146 -0.2715  1.8338 -0.3399
  342SOL    HW2 1712   0.365   0.615   4.050  1.1415 -1.2652  3.3901
  343SOL     OW 1713   6.554   1.587   5.776  0.3978 -0.3809 -0.5370
  343SOL    HW1 1714   6.611   1.520   5.739 -0.7546 -1.4717 -0.4175
  343SOL    HW2 1715   6.471   1.541   5.793 -0.2376  0.9401  0.0839
  344SOL     OW 1716   3.863   4.674   1.554 -0.1236  0.2003  0.1698
  344SOL    HW1 1717   3.772   4.664   1.526 -0.0202  2.1524 -1.0046
  344SOL    HW2 1718   3.893   4.754   1.511  1.8498  0.1524  1.3489
  345SOL     OW 1719   0.628   3.203   2.589 -0.0331  0.3165 -0.0825
  345SOL    HW1 1720   0.676   3.239   2.664  1.6220  0.5352 -1.1898
  345SOL    HW2 1721   0.598   3.279   2.540 -1.0375  0.1732  0.2927
  346SOL     OW 1722   1.237   6.184   1.513  0.4811  0.0996 -0.0463
  346SOL    HW1 1723   1.263   6.221   1.428 -0.4045 -3.0915 -1.8787
  346SOL    HW2 1724   1.152   6.145   1.497 -0.3809  0.6000  2.7884
  347SOL     OW 1725   2.118   0.672   2.739  0.4943 -0.3653  0.3168
  347SOL    HW1 1726   2.118   0.577   2.728 -0.3800 -0.1082 -2.5148
  347SOL    HW2 1727   2.120   0.685   2.834  0.6830 -3.1834  0.7677
  348SOL     OW 1728   6.010   5.583   5.196 -0.2885 -0.3153  0.4699
  348SOL    HW1 1729   5.946   5.637   5.243  1.8541  0.8571  2.2180
  348SOL    HW2 1730   5.989   5.493   5.221 -0.2201  0.1750  2.4167
  349SOL     OW 1731   6.042   5.514   4.857 -0.3676 -0.1145 -0.4566
  349SOL    HW1 1732   6.061   5.589   4.914 -2.1544 -0.8325  1.1831
  349SOL    HW2 1733   6.115   5.513   4.795  1.5996  0.8495  1.6529
  350SOL     OW 1734   4.288   3.554   5.499 -0.1587  0.7196 -0.2540
  350SOL    HW1 1735   4.196   3.537   5.520  0.2378 -1.8328 -0.2748
  350SOL    HW2 1736   4.296   3.533   5.406  0.6517 -0.1936  0.0037
  351SOL     OW 1737   3.886   6.954   3.731 -0.2462  0.1150 -0.1020
  351SOL    HW1 1738   3.820   7.023   3.731  1.1669  1.5235  0.6695
  351SOL    HW2 1739   3.936   6.969   3.651  1.4890  1.4838  1.1563
  352SOL     OW 1740   2.414   7.013   2.705 -0.4146  0.1623  0.4658
  352SOL    HW1 1741   2.345   6.987   2.767 -1.9198  0.3962 -1.0337
  352SOL    HW2 1742   2.402   6.954   2.631  0.8281  0.4284  0.0418
  353SOL     OW 1743   6.242   3.765   2.296  0.1124 -0.0566 -0.4592
  353SOL    HW1 1744   6.192   3.805   2.367  0.7784  0.4794 -0.2886
  353SOL    HW2 1745   6.323   3.735   2.337  0.4040  0.0516 -0.9498
  354SOL     OW 1746   3.524   0.688   6.881 -0.2040  0.4137 -0.1322
  354SOL    HW1 1747   3.448   0.708   6.934 -0.1360  1.5596 -0.4536
  354SOL    HW2 1748   3.587   0.649   6.942 -0.3835  1.0896  0.4835
  355SOL     OW 1749   4.987   2.538   3.019  0.0332 -0.0037 -0.1637
  355SOL    HW1 1750   5.032   2.477   3.076 -1.3487  1.5341  2.8391
  355SOL    HW2 1751   4.968   2.488   2.939  0.5923 -2.8414  1.3616
  356SOL     OW 1752   1.109   3.516   4.921  0.2807  0.1991  0.0023
  356SOL    HW1 1753   1.150   3.456   4.984 -0.3059  0.6823  0.8680
  356SOL    HW2 1754   1.061   3.578   4.975 -0.6969  0.3047 -0.9506
  357SOL     OW 1755   5.280   5.639   4.162  0.0473 -0.0250 -0.1572
  357SOL    HW1 1756   5.262   5.681   4.247 -1.7532 -0.1244 -0.4603
  357SOL    HW2 1757   5.239   5.553   4.168  0.2941 -0.2088 -0.9844
  358SOL     OW 1758   5.316   5.433   1.538  0.4412 -0.2823 -0.5126
  358SOL    HW1 1759   5.378   5.412   1.608  0.7842 -0.2882 -0.8197
  358SOL    HW2 1760   5.368   5.436   1.459  0.5091  2.0829 -0.4679
  359SOL     OW 1761   0.205   0.763   5.634  0.1610 -0.0853  0.0726
  359SOL    HW1 1762   0.280   0.822   5.642  0.3154 -0.2872  0.1224
  359SOL    HW2 1763   0.180   0.767   5.542 -0.9271  1.4014  0.3768
  360SOL     OW 1764   3.264   5.660   2.550 -0.1175  0.3910 -0.2401
  360SOL    HW1 1765   3.348   5.638   2.510 -0.1563 -0.4198  0.1054
  360SOL    HW2 1766   3.276   5.640   2.643 -0.6539  0.3842 -0.1690
  361SOL     OW 1767   3.596   6.083   1.928 -0.6488  0.0055 -0.0100
  361SOL    HW1 1768   3.673   6.028   1.912 -0.3147  0.4546  0.0264
  361SOL    HW2 1769   3.521   6.024   1.916 -0.3071 -0.3796 -0.2698
  362SOL     OW 1770   2.298   0.493   0.872  0.1033  0.1341 -0.0327
  362SOL    HW1 1771   2.342   0.578   0.871  1.5669 -0.5862  1.1382
  362SOL    HW2 1772   2.249   0.493   0.954 -0.9018  0.3100 -0.6110
  363SOL     OW 1773   7.682   3.696   4.574  0.4971  0.5167 -0.0159
  363SOL    HW1 1774   7.621   3.751   4.525  1.1046 -0.8774 -2.4996
  363SOL    HW2 1775   7.750   3.674   4.510  1.2736 -1.5419  1.4328
  364SOL     OW 1776   1.433   6.112   1.662 -0.2355 -0.2763 -0.4397
  364SOL    HW1 1777   1.510   6.159   1.630  0.9350 -1.1478  0.9509
  364SOL    HW2 1778   1.358   6.161   1.626  0.9369  1.6347 -0.4274
  365SOL     OW 1779   4.665   1.125   5.821  0.7909 -0.2857  0.1186
  365SOL    HW1 1780   4.671   1.220   5.812  0.0914 -0.2083  0.3373
  365SOL    HW2 1781   4.724   1.090   5.756 -1.1895  0.2588 -2.1050
  366SOL     OW 1782   5.149   1.140   4.435 -0.4640 -0.2392  0.2973
  366SOL    HW1 1783   5.222   1.178   4.485  0.8723 -0.8126 -1.1221
  366SOL    HW2 1784   5.073   1.151   4.491  0.8349 -0.2219  2.1490
  367SOL     OW 1785   7.104   0.400   6.912  0.5404  0.1568 -0.2764
  367SOL    HW1 1786   7.194   0.388   6.883  0.9547  1.3454  0.4338
  367SOL    HW2 1787   7.111   0.419   7.005 -0.3059  1.8015 -0.5112
  368SOL     OW 1788   0.122   4.572   0.673 -0.3303 -0.0587  0.1507
  368SOL    HW1 1789   0.177   4.562   0.751  2.4127  0.5360 -1.6004
  368SOL    HW2 1790   0.034   4.550   0.704  1.1993 -3.9894  2.4808
  369SOL     OW 1791   2.511   3.697   1.890 -0.3920 -0.4728 -0.0963
  369SOL    HW1 1792   2.551   3.774   1.850  0.0319 -0.2312  0.7779
  369SOL    HW2 1793   2.423   3.695   1.853 -0.0827 -0.1442 -0.8849
  370SOL     OW 1794   6.153   3.412   3.370 -0.2085 -0.2166 -0.2295
  370SOL    HW1 1795   6.131   3.502   3.393 -0.1144 -0.3875  0.5910
  370SOL    HW2 1796   6.249   3.411   3.364 -0.2062 -0.2663 -0.1886
  371SOL     OW 1797   5.293   4.186   7.388 -0.5047  0.3579 -0.7293
  371SOL    HW1 1798   5.345   4.224   7.459 -0.3352  0.7560 -1.0647
  371SOL    HW2 1799   5.356   4.135   7.336 -0.6835 -0.1779 -0.4285
  372SOL     OW 1800   4.289   4.547   6.025  0.1285 -0.8929  0.3577
  372SOL    HW1 1801   4.284   4.561   6.120  0.3348 -1.0962  0.4000
  372SOL    HW2 1802   4.238   4.619   5.988  1.2304  0.0463  0.5642
  373SOL     OW 1803   1.769   0.158   3.392 -0.2696  0.6797 -0.5341
  373SOL    HW1 1804   1.808   0.184   3.476 -0.6391  2.3823 -0.8758
  373SOL    HW2 1805   1.774   0.062   3.393  2.5460  0.7442  0.0887
  374SOL     OW 1806   4.973   0.551   0.955  0.6730  0.2655  0.5358
  374SOL    HW1 1807   4.968   0.520   0.864 -1.3266  0.2750  0.5974
  374SOL    HW2 1808   5.065   0.542   0.978  1.3512  0.8475 -1.6900
  375SOL     OW 1809   3.064   0.650   1.798  0.8086 -0.0534  0.9711
  375SOL    HW1 1810   3.074   0.647   1.703  1.1039 -1.4597  1.0230
  375SOL    HW2 1811   3.011   0.729   1.814  0.0312 -0.2521 -0.4197
  376SOL     OW 1812   5.340   4.004   0.368  0.5900  0.2258  0.0432
  376SOL    HW1 1813   5.258   3.959   0.347  0.8428  0.1306 -0.7539
  376SOL    HW2 1814   5.317   4.061   0.442 -0.4106  0.8247 -0.6944
  377SOL     OW 1815   1.102   1.110   4.281 -0.0496  0.3232 -0.4807
  377SOL    HW1 1816   1.179   1.062   4.252 -0.5315  0.4010 -2.0017
  377SOL    HW2 1817   1.131   1.201   4.287  0.4135  0.1197  0.7119
  378SOL     OW 1818   5.009   7.464   4.848 -0.4931 -0.6347  0.0031
  378SOL    HW1 1819   5.033   7.409   4.774 -0.9979 -1.6455  0.5622
  378SOL    HW2 1820   5.006   7.553   4.813 -0.2966 -1.0433 -1.0750
  379SOL     OW 1821   7.733   4.821   4.410  0.7500 -0.2703 -0.5580
  379SOL    HW1 1822   7.825   4.848   4.414  0.1237  1.9914  0.4095
  379SOL    HW2 1823   7.711   4.796   4.499  0.4040 -0.7937 -0.7844
  380SOL     OW 1824   2.159   5.191   6.591 -0.2432 -0.4652  0.8797
  380SOL    HW1 1825   2.107   5.235   6.658  0.1642 -0.6637  1.3258
  380SOL    HW2 1826   2.094   5.160   6.528 -0.4231  2.7204 -0.6660
  381SOL     OW 1827   1.248   5.283   3.613 -0.0372  0.2017  0.1031
  381SOL    HW1 1828   1.313   5.336   3.567  0.5220 -0.7108 -0.1701
  381SOL    HW2 1829   1.242   5.323   3.700  0.5016  0.6026 -0.0402
  382SOL     OW 1830   0.867   6.044   1.982 -0.4240 -0.0523 -0.1579
  382SOL    HW1 1831   0.917   5.967   2.008 -0.8872  0.1055  1.2420
  382SOL    HW2 1832   0.777   6.012   1.972 -0.6407  0.3209  0.5552
  383SOL     OW 1833   6.825   0.104   6.155  0.0742  0.0812 -0.1061
  383SOL    HW1 1834   6.863   0.170   6.097  2.1434 -0.6863  0.3144
  383SOL    HW2 1835   6.755   0.064   6.103  1.6625 -0.3796 -1.9987
  384SOL     OW 1836   2.555   7.380   5.448 -0.0895 -0.2045  0.4542
  384SOL    HW1 1837   2.549   7.471   5.475 -0.8000 -0.6772  2.0200
  384SOL    HW2 1838   2.647   7.357   5.458 -0.2773 -0.2620  2.2525
  385SOL     OW 1839   4.939   4.619   7.149  0.1427 -0.1929  0.5760
  385SOL    HW1 1840   4.849   4.642   7.128  0.2350  2.3621  2.5187
  385SOL    HW2 1841   4.932   4.565   7.228  0.2325 -2.9516 -1.1635
  386SOL     OW 1842   0.699   6.730   3.763 -0.4150  0.4043 -0.0638
  386SOL    HW1 1843   0.689   6.789   3.837  1.9653 -0.5776  1.1602
  386SOL    HW2 1844   0.741   6.783   3.695  1.6458  0.2597  1.0021
  387SOL     OW 1845   1.681   6.144   7.739  0.3858 -0.2929 -0.1016
  387SOL    HW1 1846   1.593   6.120   7.709  1.1398 -0.2830 -2.5293
  387SOL    HW2 1847   1.681   6.240   7.739  0.0108 -0.2758  1.2303
  388SOL     OW 1848   5.922   2.738   2.238 -0.1471 -0.2697  0.1685
  388SOL    HW1 1849   6.002   2.757   2.189 -1.1958 -1.8998 -2.4110
  388SOL    HW2 1850   5.865   2.813   2.223  0.0866 -0.1007  0.1316
  389SOL     OW 1851   2.840   4.065   2.903 -0.2259 -0.3182 -0.0661
  389SOL    HW1 1852   2.933   4.071   2.928 -0.7924  1.3716  1.9394
  389SOL    HW2 1853   2.794   4.113   2.972 -2.2970  1.8533 -2.7677
  390SOL     OW 1854   4.701   3.062   4.148  0.2815 -0.0103  0.2140
  390SOL    HW1 1855   4.747   2.983   4.119  1.7197  0.1337  1.9124
  390SOL    HW2 1856   4.767   3.111   4.197 -1.4907  0.5991  2.1267
  391SOL     OW 1857   7.354   2.181   5.935  0.0123  0.0817 -0.4801
  391SOL    HW1 1858   7.347   2.086   5.931  0.3306  0.0281  0.1049
  391SOL    HW2 1859   7.448   2.198   5.940 -0.0977  0.3156  1.4743
  392SOL     OW 1860   5.959   3.627   6.746  0.6087  0.4413 -0.5074
  392SOL    HW1 1861   5.941   3.645   6.653  1.2849 -1.1756 -0.9824
  392SOL    HW2 1862   6.030   3.563   6.745  0.3389  0.0730  1.1340
  393SOL     OW 1863   7.150   4.011   2.985 -0.1377 -0.6019 -0.2554
  393SOL    HW1 1864   7.118   4.101   2.981 -0.5520 -0.7908 -1.9919
  393SOL    HW2 1865   7.243   4.020   3.006 -0.3267  0.1780  0.2989
  394SOL     OW 1866   2.661   7.061   0.491 -0.2826  0.0325 -0.1797
  394SOL    HW1 1867   2.755   7.073   0.502 -0.0592 -2.4990  1.7956
  394SOL    HW2 1868   2.653   6.994   0.424 -0.6951  0.4479 -0.5503
  395SOL     OW 1869   5.102   3.351   5.934  0.2634 -0.0435  0.2292
  395SOL    HW1 1870   5.015   3.319   5.960  1.0093 -1.7120  0.8019
  395SOL    HW2 1871   5.155   3.343   6.013  1.2981 -0.4285 -0.4860
  396SOL     OW 1872   6.578   5.350   7.457 -0.2675  0.4291  0.0260
  396SOL    HW1 1873   6.658   5.326   7.504  0.6308 -0.2195 -1.7436
  396SOL    HW2 1874   6.604   5.352   7.365 -1.6484  2.8082 -0.4121
  397SOL     OW 1875   4.720   4.355   0.552 -0.2060  0.0977  0.0043
  397SOL    HW1 1876   4.752   4.431   0.599  2.1009 -0.0888 -1.1658
  397SOL    HW2 1877   4.725   4.379   0.459 -1.6338 -0.6864 -0.3190
  398SOL     OW 1878   5.369   5.298   2.536 -0.1582 -0.0006 -0.0148
  398SOL    HW1 1879   5.426   5.293   2.460  0.4418  3.1535  0.0819
  398SOL    HW2 1880   5.336   5.388   2.536 -1.0301 -0.1941  2.8219
  399SOL     OW 1881   6.265   2.279   5.746  0.1341  0.0758  0.7636
  399SOL    HW1 1882   6.353   2.246   5.760 -0.0749 -3.0581 -3.3416
  399SOL    HW2 1883   6.275   2.350   5.682 -0.2751  0.1770  0.8081
  400SOL     OW 1884   4.528   5.567   0.568 -0.1859 -0.3825  0.4997
  400SOL    HW1 1885   4.525   5.605   0.480  1.4149  0.8799  0.9391
  400SOL    HW2 1886   4.526   5.642   0.627  0.7498 -1.0973  1.4764
  401SOL     OW 1887   1.103   6.709   2.697 -0.7786  0.2027 -0.1671
  401SOL    HW1 1888   1.081   6.746   2.782 -0.6875 -2.6119  1.2156
  401SOL    HW2 1889   1.146   6.780   2.650 -0.0827  1.6486  2.4544
  402SOL     OW 1890   6.760   3.629   4.255 -0.1171  0.6070 -0.4272
  402SOL    HW1 1891   6.745   3.537   4.278  0.2610  0.4873 -0.6557
  402SOL    HW2 1892   6.686   3.676   4.295 -0.7956  0.0977 -1.0497
  403SOL     OW 1893   1.247   5.774   5.628  0.1955  0.5122  0.6149
  403SOL    HW1 1894   1.163   5.758   5.585  0.5605  0.3337 -0.0456
  403SOL    HW2 1895   1.224   5.795   5.718 -0.4757 -0.8186  0.7715
  404SOL     OW 1896   1.565   5.236   3.856 -0.2464  0.4739 -0.4383
  404SOL    HW1 1897   1.534   5.229   3.766  3.1135 -1.2551 -1.6438
  404SOL    HW2 1898   1.597   5.326   3.864 -0.9047  0.7469 -0.8391
  405SOL     OW 1899   4.401   3.273   5.293 -0.3580 -0.0270 -0.0746
  405SOL    HW1 1900   4.406   3.224   5.375 -0.2901  0.4832  0.2336
  405SOL    HW2 1901   4.421   3.364   5.318 -1.7359  0.3971 -0.4130
  406SOL     OW 1902   3.152   2.391   2.273 -0.8679  0.5546 -0.1979
  406SOL    HW1 1903   3.180   2.465   2.219  1.4149  0.1827  0.3827
  406SOL    HW2 1904   3.234   2.351   2.304 -2.0645 -0.1028  2.3837
  407SOL     OW 1905   7.269   1.715   4.165  0.0729 -0.4695 -0.1244
  407SOL    HW1 1906   7.179   1.736   4.189 -1.3446 -4.4958 -1.0234
  407SOL    HW2 1907   7.323   1.776   4.216 -3.0658  0.8125  1.9796
  408SOL     OW 1908   1.862   6.813   6.000 -0.3021  0.3400  0.6269
  408SOL    HW1 1909   1.780   6.858   5.979 -1.3433 -0.8301  2.0129
  408SOL    HW2 1910   1.839   6.752   6.070  1.1231 -2.0854 -0.8852
  409SOL     OW 1911   0.488   7.124   6.705  0.4808 -0.3792  0.2013
  409SOL    HW1 1912   0.581   7.136   6.686  0.7947  0.5902  2.1365
  409SOL    HW2 1913   0.463   7.204   6.752 -0.7559 -1.6187  1.7492
  410SOL     OW 1914   5.441   5.144   3.304 -0.5126  0.1024 -0.2335
  410SOL    HW1 1915   5.450   5.220   3.362 -0.3159 -0.8508  1.0035
  410SOL    HW2 1916   5.501   5.163   3.232 -1.5638  1.8048 -0.7262
  411SOL     OW 1917   6.599   7.652   4.241 -0.1230 -0.0141  0.1799
  411SOL    HW1 1918   6.507   7.645   4.269  0.5019 -4.7808  2.1368
  411SOL    HW2 1919   6.597   7.711   4.166 -3.8822  4.2671  3.0600
  412SOL     OW 1920   2.141   3.060   1.907 -0.0305  0.1521 -0.4131
  412SOL    HW1 1921   2.208   3.030   1.845  0.2766  0.8931 -0.4466
  412SOL    HW2 1922   2.190   3.084   1.986 -0.2857  0.4601 -0.3463
  413SOL     OW 1923   6.579   1.002   3.643 -0.8453  0.2416  0.5822
  413SOL    HW1 1924   6.558   1.065   3.575 -2.8284 -0.5719  0.3574
  413SOL    HW2 1925   6.627   0.932   3.598  0.3917  1.0396  0.6238
  414SOL     OW 1926   5.805   0.832   4.233 -0.2194 -0.2077 -0.0764
  414SOL    HW1 1927   5.831   0.825   4.141  0.9303  0.5038  0.1737
  414SOL    HW2 1928   5.818   0.925   4.255  0.1963 -0.4979  0.9823
  415SOL     OW 1929   3.997   6.442   4.991  0.2877 -0.5472  0.2050
  415SOL    HW1 1930   4.039   6.522   4.958  0.4548 -0.4943  0.5403
  415SOL    HW2 1931   3.978   6.391   4.912  1.8861 -1.0278  0.0936
  416SOL     OW 1932   2.518   3.935   7.714 -0.4822  0.0379  0.2201
  416SOL    HW1 1933   2.565   3.930   7.798  1.9683 -0.0094 -1.0650
  416SOL    HW2 1934   2.571   3.884   7.654 -0.0938  3.0640 -2.2450
  417SOL     OW 1935   7.250   7.229   5.305  0.1868  0.1438 -0.0019
  417SOL    HW1 1936   7.272   7.276   5.386 -0.0717 -1.3474  0.9673
  417SOL    HW2 1937   7.224   7.298   5.244  0.3456  1.3067  1.1904
  418SOL     OW 1938   3.499   3.191   0.385  0.1425 -0.4156  0.0970
  418SOL    HW1 1939   3.456   3.113   0.349  0.0627 -0.4831  0.3368
  418SOL    HW2 1940   3.551   3.158   0.458  0.2515 -0.2692  0.0853
  419SOL     OW 1941   7.006   5.617   7.412  0.1196 -0.2578 -0.5025
  419SOL    HW1 1942   7.028   5.560   7.338 -1.7043  0.2676 -1.5180
  419SOL    HW2 1943   7.010   5.706   7.376 -3.7137 -0.0890 -0.9837
  420SOL     OW 1944   0.798   2.397   7.286 -0.5862 -0.9480 -0.1765
  420SOL    HW1 1945   0.750   2.323   7.322 -1.2704  0.1924  1.3578
  420SOL    HW2 1946   0.815   2.454   7.361  1.7553 -0.5204 -0.9424
  421SOL     OW 1947   6.555   6.806   1.982  0.1548 -0.4799 -0.2446
  421SOL    HW1 1948   6.487   6.804   1.914  0.8054  0.9588 -0.9755
  421SOL    HW2 1949   6.545   6.892   2.024  3.1859  1.0174 -2.2017
  422SOL     OW 1950   6.159   5.070   6.856  0.0186 -0.1850  0.2280
  422SOL    HW1 1951   6.180   5.048   6.947  0.6393 -0.5891 -0.0002
  422SOL    HW2 1952   6.215   5.146   6.837  1.0383 -1.0207 -0.2614
  423SOL     OW 1953   3.637   0.792   0.615  0.6342  0.0085  0.0091
  423SOL    HW1 1954   3.548   0.758   0.608  0.1365  1.3947 -0.8640
  423SOL    HW2 1955   3.654   0.795   0.709 -0.1794 -0.4138  0.1795
  424SOL     OW 1956   3.035   3.353   4.030  0.7476  0.1013 -0.2433
  424SOL    HW1 1957   2.998   3.345   3.942  1.0257 -0.2119 -0.3343
  424SOL    HW2 1958   2.965   3.394   4.081  0.0336 -1.0417 -0.2606
  425SOL     OW 1959   3.541   4.621   6.857  0.3753 -0.0653 -0.1241
  425SOL    HW1 1960   3.456   4.649   6.890 -0.1724 -0.1573 -1.4217
  425SOL    HW2 1961   3.552   4.532   6.891  0.2496  0.1693  0.5520
  426SOL     OW 1962   4.488   1.841   6.159  0.3292  0.1755 -0.4381
  426SOL    HW1 1963   4.570   1.843   6.109  0.5898  0.3103 -0.0058
  426SOL    HW2 1964   4.449   1.927   6.144 -1.6257 -1.0819 -3.7462
  427SOL     OW 1965   5.431   2.913   2.263 -0.0928  0.5422  0.3228
  427SOL    HW1 1966   5.513   2.957   2.285  1.3755 -0.9348 -1.7589
  427SOL    HW2 1967   5.419   2.929   2.170 -0.5652 -1.6613 -0.0603
  428SOL     OW 1968   2.818   4.267   5.634 -0.0937 -0.3278 -0.1539
  428SOL    HW1 1969   2.748   4.236   5.576 -0.5347  1.4347 -0.6034
  428SOL    HW2 1970   2.893   4.213   5.610 -0.2240  0.4221 -2.5315
  429SOL     OW 1971   2.127   2.659   5.484 -0.1932 -0.6517 -0.2718
  429SOL    HW1 1972   2.038   2.626   5.491 -0.2982 -0.2809  0.1780
  429SOL    HW2 1973   2.175   2.590   5.439 -0.8039 -0.6720 -0.8998
  430SOL     OW 1974   3.250   6.501   5.747 -0.4565 -0.3799  0.4995
  430SOL    HW1 1975   3.217   6.416   5.719  0.6775 -0.1791 -1.6235
  430SOL    HW2 1976   3.294   6.484   5.830 -0.6325 -1.7904  0.3211
  431SOL     OW 1977   2.442   2.024   5.026 -0.4490 -0.0756 -0.4159
  431SOL    HW1 1978   2.399   2.032   4.941 -1.3824 -0.5505 -0.0088
  431SOL    HW2 1979   2.440   1.931   5.046  0.3817 -0.0448 -0.1820
  432SOL     OW 1980   3.631   3.515   0.847 -0.4829 -0.8316 -1.0692
  432SOL    HW1 1981   3.692   3.550   0.913  0.2928 -3.9693  0.0227
  432SOL    HW2 1982   3.644   3.572   0.771  1.4885  0.5277  0.1797
  433SOL     OW 1983   6.858   6.298   0.770  0.2452  0.6321 -0.3730
  433SOL    HW1 1984   6.774   6.303   0.816  1.3131  0.3992  1.6771
  433SOL    HW2 1985   6.897   6.216   0.799  1.7899  1.3845 -0.2005
  434SOL     OW 1986   3.400   3.291   1.467  0.5068  0.2924 -0.0906
  434SOL    HW1 1987   3.331   3.279   1.533  0.9169 -0.8660  0.1620
  434SOL    HW2 1988   3.423   3.383   1.473  2.3920 -0.2450  3.3311
  435SOL     OW 1989   7.598   2.305   7.572 -0.0324  0.2404  0.0361
  435SOL    HW1 1990   7.574   2.376   7.631  2.0195  0.8999  0.1295
  435SOL    HW2 1991   7.666   2.256   7.618 -0.1458 -0.7221 -0.7702
  436SOL     OW 1992   3.914   4.890   5.711  0.0002 -0.6175  0.2624
  436SOL    HW1 1993   3.955   4.884   5.625 -1.9500 -0.4365 -0.7360
  436SOL    HW2 1994   3.866   4.808   5.720 -1.6604  0.2974  0.1330
  437SOL     OW 1995   6.532   3.695   0.460 -0.1079  0.5434 -0.3714
  437SOL    HW1 1996   6.609   3.710   0.405  0.8535 -0.4234  0.6616
  437SOL    HW2 1997   6.522   3.600   0.462 -1.3220  0.6533 -0.4598
  438SOL     OW 1998   0.460   2.762   0.672 -0.5749  0.4150  0.1029
  438SOL    HW1 1999   0.383   2.706   0.679  1.3933 -2.5894 -0.7449
  438SOL    HW2 2000   0.460   2.791   0.581  0.2198 -1.1377 -0.4291
  439SOL     OW 2001   4.606   1.614   2.735  0.0046 -0.6148 -0.0741
  439SOL    HW1 2002   4.626   1.596   2.827  1.6522  1.1570 -0.0273
  439SOL    HW2 2003   4.632   1.534   2.689  0.8589 -0.8717  0.8152
  440SOL     OW 2004   6.031   7.646   1.743  0.0632  0.0037  0.0928
  440SOL    HW1 2005   5.992   7.579   1.800 -1.7828  0.9127 -0.0369
  440SOL    HW2 2006   6.078   7.597   1.677 -1.2319 -1.1892  0.0124
  441SOL     OW 2007   3.778   1.143   3.642 -0.3293 -0.6892  0.0248
  441SOL    HW1 2008   3.706   1.180   3.592  2.8454  0.4970 -4.2585
  441SOL    HW2 2009   3.791   1.204   3.715 -2.0891  0.3519 -0.4962
  442SOL     OW 2010   5.748   6.336   7.042  0.5056  0.1253 -1.0098
  442SOL    HW1 2011   5.701   6.407   6.998  0.2431  0.4933 -0.1429
  442SOL    HW2 2012   5.740   6.262   6.982 -0.8175  0.2990 -1.0684
  443SOL     OW 2013   7.467   3.521   7.421 -0.4034  1.0586  0.3210
  443SOL    HW1 2014   7.499   3.609   7.439 -0.0143  0.5123  2.6746
  443SOL    HW2 2015   7.545   3.471   7.397 -0.5681  1.2440 -0.6398
  444SOL     OW 2016   4.869   1.451   6.991 -0.1344  0.3139 -0.2856
  444SOL    HW1 2017   4.896   1.443   6.900 -0.1098  1.1842 -0.3654
  444SOL    HW2 2018   4.814   1.529   6.993 -0.5629 -0.0001  0.3480
  445SOL     OW 2019   6.399   3.752   4.196 -0.1137 -0.0462 -0.2546
  445SOL    HW1 2020   6.448   3.721   4.120 -0.4135 -0.4118 -0.3061
  445SOL    HW2 2021   6.322   3.795   4.159  0.3824  0.9243 -0.1860
  446SOL     OW 2022   0.508   1.486   3.606  0.2592 -0.2328  0.1229
  446SOL    HW1 2023   0.565   1.410   3.603  0.4874 -0.1127  1.1462
  446SOL    HW2 2024   0.552   1.547   3.665 -0.3134  0.3651 -0.0563
  447SOL     OW 2025   6.820   5.086   7.705 -0.2485  0.1531 -0.0825
  447SOL    HW1 2026   6.892   5.023   7.712 -0.9783 -0.7990 -0.9094
  447SOL    HW2 2027   6.741   5.032   7.711 -0.9024  1.1747  0.7389
  448SOL     OW 2028   6.942   2.620   1.919 -0.2368  0.0964 -0.2035
  448SOL    HW1 2029   6.926   2.612   2.013 -1.4279 -0.2529 -0.4110
  448SOL    HW2 2030   7.033   2.594   1.908  0.0133  0.4459  0.8861
  449SOL     OW 2031   4.759   3.654   7.445 -0.3232 -0.2122  0.3177
  449SOL    HW1 2032   4.827   3.716   7.472  0.1399 -0.9248  0.8350
  449SOL    HW2 2033   4.732   3.684   7.358  0.5395  0.1783  0.1762
  450SOL     OW 2034   5.090   0.510   0.130  0.0805 -0.3515 -0.1219
  450SOL    HW1 2035   5.136   0.566   0.067  1.8006 -1.4428  0.1017
  450SOL    HW2 2036   5.159   0.463   0.176 -1.2014 -0.6542  1.6137
  451SOL     OW 2037   4.232   6.526   7.017 -0.0632  0.4123  0.2277
  451SOL    HW1 2038   4.258   6.575   7.095 -1.0810  0.4537  0.5552
  451SOL    HW2 2039   4.244   6.434   7.041  1.4759  0.4590 -0.2531
  452SOL     OW 2040   5.904   0.317   3.454  0.1290  0.0465  0.1169
  452SOL    HW1 2041   5.909   0.376   3.379 -0.5526  0.5720  0.4713
  452SOL    HW2 2042   5.903   0.375   3.530 -0.5016 -0.4194  0.4750
  453SOL     OW 2043   2.479   0.922   4.217 -0.0383 -0.4474 -0.7512
  453SOL    HW1 2044   2.480   1.008   4.175  0.3663 -0.3387 -0.5212
  453SOL    HW2 2045   2.570   0.904   4.239 -0.1704 -0.7646 -0.4485
  454SOL     OW 2046   4.606   1.278   4.610 -0.2002  0.2188  0.0095
  454SOL    HW1 2047   4.642   1.353   4.563 -0.0130 -1.1666 -2.2029
  454SOL    HW2 2048   4.627   1.203   4.554  0.0073 -1.5588  2.3243
  455SOL     OW 2049   5.004   5.825   6.816 -0.2205 -0.3931  0.2756
  455SOL    HW1 2050   4.919   5.810   6.858  0.2817  0.4503  1.6767
  455SOL    HW2 2051   5.068   5.807   6.885  0.6407  1.2396 -0.0342
  456SOL     OW 2052   7.593   0.783   7.640 -0.0307  0.3234 -0.6253
  456SOL    HW1 2053   7.635   0.703   7.672  0.9939 -0.0708 -2.8104
  456SOL    HW2 2054   7.661   0.828   7.589 -0.8884  2.1044 -0.3036
  457SOL     OW 2055   6.934   7.428   3.585 -0.3395  0.2391 -0.4816
  457SOL    HW1 2056   6.880   7.504   3.604 -1.1163 -0.2994 -0.5029
  457SOL    HW2 2057   6.886   7.379   3.518 -0.0151 -0.4348 -0.2369
  458SOL     OW 2058   4.204   2.866   7.707 -0.4249 -0.1116 -0.0403
  458SOL    HW1 2059   4.281   2.913   7.675 -1.4718  1.3660 -0.4553
  458SOL    HW2 2060   4.240   2.802   7.768  1.5213 -1.9768 -2.8570
  459SOL     OW 2061   2.928   6.029   7.032 -0.1304 -0.3081 -0.3676
  459SOL    HW1 2062   2.952   6.075   7.112 -0.2511  2.4827 -1.7877
  459SOL    HW2 2063   2.832   6.029   7.032 -0.1409 -1.5608  0.1218
  460SOL     OW 2064   3.461   7.635   3.038  0.4458 -0.4753 -0.5282
  460SOL    HW1 2065   3.392   7.652   2.975  0.1818  2.0757  0.3509
  460SOL    HW2 2066   3.523   7.707   3.027  2.2274 -1.8628 -0.2296
  461SOL     OW 2067   6.420   1.336   1.506 -0.1838 -0.2453 -0.0224
  461SOL    HW1 2068   6.411   1.252   1.461 -0.2126 -0.3272  0.1353
  461SOL    HW2 2069   6.372   1.325   1.588 -1.5093  0.4284 -0.6688
  462SOL     OW 2070   2.029   0.690   7.064  0.1565 -0.1076  0.1929
  462SOL    HW1 2071   2.110   0.656   7.025  1.3386  1.8243  0.8164
  462SOL    HW2 2072   1.970   0.704   6.990  0.5954 -0.9797 -0.3361
  463SOL     OW 2073   4.984   7.217   0.071 -0.1831 -0.5746 -0.0416
  463SOL    HW1 2074   4.933   7.289   0.108  1.5228  0.9165 -0.4544
  463SOL    HW2 2075   4.960   7.217  -0.022  1.3076  0.8665 -0.4718
  464SOL     OW 2076   0.320   3.093   4.258 -0.2067  1.2026  0.3943
  464SOL    HW1 2077   0.262   3.026   4.294  2.0685 -1.4523 -0.5211
  464SOL    HW2 2078   0.275   3.123   4.178 -0.8472  0.0431  0.3020
  465SOL     OW 2079   6.622   0.581   1.900  0.4526 -0.3089  1.1438
  465SOL    HW1 2080   6.611   0.626   1.984 -0.6926  2.2212 -0.2408
  465SOL    HW2 2081   6.701   0.619   1.863 -0.2603  0.2521  0.1570
  466SOL     OW 2082   2.261   4.937   0.408  0.0730 -0.0771 -0.1328
  466SOL    HW1 2083   2.326   4.871   0.433 -1.1577 -1.7448 -1.1286
  466SOL    HW2 2084   2.262   4.938   0.313  0.1818  1.5146 -0.1481
  467SOL     OW 2085   1.923   6.732   2.236 -0.4857 -0.1813 -0.0556
  467SOL    HW1 2086   1.879   6.800   2.185 -0.6471  0.2470  0.6404
  467SOL    HW2 2087   2.016   6.744   2.217 -0.6655 -2.3661 -3.1404
  468SOL     OW 2088   2.863   2.671   3.781 -0.1199 -0.2336  0.1605
  468SOL    HW1 2089   2.919   2.734   3.827 -0.7745  0.2616  0.2812
  468SOL    HW2 2090   2.924   2.622   3.726  0.4528  0.2410  0.3559
  469SOL     OW 2091   2.850   0.408   4.351 -0.0301  0.0676 -0.1133
  469SOL    HW1 2092   2.909   0.474   4.315  1.0242  0.2375  1.7994
  469SOL    HW2 2093   2.808   0.451   4.425  0.8667 -1.4304  1.3232
  470SOL     OW 2094   6.417   5.215   5.059  0.0997  0.5768 -0.1360
  470SOL    HW1 2095   6.432   5.140   5.002 -0.9551  3.4542 -4.7471
  470SOL    HW2 2096   6.323   5.214   5.076  0.1594  0.6217  0.2089
  471SOL     OW 2097   0.595   4.366   4.920 -0.7072 -0.8497  0.5612
  471SOL    HW1 2098   0.601   4.299   4.852 -0.4982 -1.2667  0.9868
  471SOL    HW2 2099   0.638   4.327   4.996 -1.1963 -0.5006  1.0225
  472SOL     OW 2100   3.176   2.533   6.820 -0.1637  0.2655 -0.1533
  472SOL    HW1 2101   3.177   2.441   6.792  0.6401  0.0159  0.6496
  472SOL    HW2 2102   3.085   2.560   6.808 -0.8979 -1.2574  1.4874
  473SOL     OW 2103   3.636   4.441   3.871 -0.6935 -0.1046 -0.5061
  473SOL    HW1 2104   3.705   4.375   3.881 -1.2448 -0.5171  0.7768
  473SOL    HW2 2105   3.682   4.520   3.844  0.2858 -0.3914  0.2554
  474SOL     OW 2106   2.826   3.020   7.281 -0.0006  0.6146  0.3508
  474SOL    HW1 2107   2.809   2.928   7.263  1.7305  0.3320 -0.0247
  474SOL    HW2 2108   2.847   3.057   7.195 -1.0829  1.4706  0.4335
  475SOL     OW 2109   5.437   7.207   6.770 -0.3033  0.7033  0.2874
  475SOL    HW1 2110   5.458   7.229   6.679 -3.5680  1.1782 -0.4788
  475SOL    HW2 2111   5.426   7.112   6.770 -3.4915  0.9400 -0.7601
  476SOL     OW 2112   4.613   4.297   0.865 -0.0363  0.2570 -0.0704
  476SOL    HW1 2113   4.602   4.387   0.897 -1.3659  0.0419  0.1422
  476SOL    HW2 2114   4.550   4.246   0.916  0.3981 -0.7211 -0.4987
  477SOL     OW 2115   4.469   3.818   5.413  0.0632 -0.2563 -0.0944
  477SOL    HW1 2116   4.504   3.893   5.463 -0.0109  0.1579 -0.6585
  477SOL    HW2 2117   4.381   3.845   5.388 -0.3840 -0.9896  0.6543
  478SOL     OW 2118   1.447   6.547   2.752  0.2254 -0.1176  0.6753
  478SOL    HW1 2119   1.524   6.566   2.698 -0.1042  1.8253  0.7864
  478SOL    HW2 2120   1.453   6.454   2.773  1.1877 -0.5786 -1.4169
  479SOL     OW 2121   5.298   2.913   4.664  0.7382 -0.4343  0.6158
  479SOL    HW1 2122   5.383   2.945   4.694  0.0103  0.3221  1.9435
  479SOL    HW2 2123   5.276   2.971   4.591  1.6368 -1.0524 -0.1719
  480SOL     OW 2124   6.024   3.927   3.148  0.1193  0.1337 -0.7892
  480SOL    HW1 2125   6.105   3.962   3.186  0.4215 -0.6768 -0.6749
  480SOL    HW2 2126   6.051   3.888   3.065 -0.6896  2.7578 -2.4103
  481SOL     OW 2127   0.133   2.424   6.342  0.4967 -0.2741 -0.0502
  481SOL    HW1 2128   0.055   2.410   6.396 -0.7287  2.4746 -0.9108
  481SOL    HW2 2129   0.193   2.473   6.398  0.8157 -0.7213  0.0033
  482SOL     OW 2130   0.772   0.505   6.654  0.0674  0.2360  0.2248
  482SOL    HW1 2131   0.735   0.577   6.704  0.8433 -0.0371  1.2182
  482SOL    HW2 2132   0.696   0.459   6.618 -0.4590  1.0314  0.3044
  483SOL     OW 2133   0.680   1.726   6.503  0.1026  0.2370 -0.5048
  483SOL    HW1 2134   0.590   1.718   6.471  0.4428  0.3135 -1.5162
  483SOL    HW2 2135   0.727   1.767   6.431  1.3808 -1.6243 -0.7925
  484SOL     OW 2136   7.506   5.088   0.399 -0.4776  0.1792 -0.7888
  484SOL    HW1 2137   7.504   5.163   0.459  0.5375 -1.1070  0.9487
  484SOL    HW2 2138   7.458   5.020   0.446  2.0924 -1.5104 -0.4344
  485SOL     OW 2139   6.002   6.884   5.999  0.2796  0.2273  0.1904
  485SOL    HW1 2140   6.031   6.865   5.910  1.5637  2.8549 -0.0640
  485SOL    HW2 2141   6.047   6.819   6.053  0.4849 -0.6198 -0.9657
  486SOL     OW 2142   1.994   0.662   6.770  0.2087  0.1907 -0.1025
  486SOL    HW1 2143   1.927   0.730   6.776 -0.9727 -0.9956  0.6002
  486SOL    HW2 2144   2.027   0.669   6.680 -1.5817  0.1388 -0.8061
  487SOL     OW 2145   5.182   0.982   3.584  0.5235  0.0947  0.1001
  487SOL    HW1 2146   5.258   0.995   3.640  2.5387 -0.8166 -2.2166
  487SOL    HW2 2147   5.132   0.912   3.626  0.2871  1.4541  2.2355
  488SOL     OW 2148   2.078   6.214   4.947  0.1936 -0.1451 -0.4106
  488SOL    HW1 2149   2.124   6.221   4.863 -0.5154 -0.1452 -0.8130
  488SOL    HW2 2150   2.008   6.151   4.931  0.1476 -0.2651  0.2298
  489SOL     OW 2151   3.146   4.780   7.739  0.0718  0.7538  0.1641
  489SOL    HW1 2152   3.157   4.708   7.800  1.4412 -0.1369 -1.0697
  489SOL    HW2 2153   3.139   4.858   7.794 -0.0227 -0.1571  1.4640
  490SOL     OW 2154   1.745   3.855   7.022 -0.0916 -0.3143  0.2814
  490SOL    HW1 2155   1.786   3.772   6.998 -0.6423 -0.0880 -1.5713
  490SOL    HW2 2156   1.695   3.835   7.101  0.5008 -1.5143  0.3742
  491SOL     OW 2157   4.244   3.353   7.212  0.2660  0.0511  0.9083
  491SOL    HW1 2158   4.293   3.288   7.162  0.5963  0.2015  1.0367
  491SOL    HW2 2159   4.208   3.304   7.286 -0.8738 -0.3436  0.1233
  492SOL     OW 2160   1.497   5.760   5.857 -0.6287  0.0486 -0.1917
  492SOL    HW1 2161   1.550   5.711   5.795  0.8716  2.1925 -0.7105
  492SOL    HW2 2162   1.551   5.767   5.935 -1.0176  0.4809  0.0465
  493SOL     OW 2163   6.834   4.174   3.302  0.2723  0.1425 -0.0867
  493SOL    HW1 2164   6.787   4.186   3.219  0.2761 -0.9254 -0.2650
  493SOL    HW2 2165   6.918   4.217   3.289  0.3565 -0.1960 -0.7312
  494SOL     OW 2166   1.659   3.720   1.432  0.0760 -0.2631 -0.3783
  494SOL    HW1 2167   1.588   3.660   1.407  0.1319 -0.4827 -0.0223
  494SOL    HW2 2168   1.677   3.771   1.353 -0.5238 -0.1612 -0.4527
  495SOL     OW 2169   1.624   4.288   1.926  0.2324 -0.0538  0.1525
  495SOL    HW1 2170   1.535   4.322   1.928  0.7043  1.2538 -0.1696
  495SOL    HW2 2171   1.613   4.193   1.931 -1.2720 -0.0574 -1.9802
  496SOL     OW 2172   2.556   7.480   4.172 -0.1462  0.3254  0.5814
  496SOL    HW1 2173   2.492   7.451   4.107  0.0311 -1.2859  1.0850
  496SOL    HW2 2174   2.637   7.492   4.122 -0.3060  0.2414  0.2996
  497SOL     OW 2175   1.546   4.259   7.419  0.3599  0.3560  0.4318
  497SOL    HW1 2176   1.542   4.347   7.458 -3.1497  0.8720 -0.7584
  497SOL    HW2 2177   1.518   4.201   7.490 -0.0212  0.5640  0.4599
  498SOL     OW 2178   1.968   5.706   1.175  0.7127 -0.0204 -0.6174
  498SOL    HW1 2179   1.939   5.770   1.110 -2.9458 -2.4386 -1.7160
  498SOL    HW2 2180   1.935   5.739   1.258 -0.2326  0.0980 -1.0186
  499SOL     OW 2181   1.961   6.605   5.831 -0.3621  0.1786  0.2608
  499SOL    HW1 2182   1.942   6.530   5.888 -2.2568  0.1271 -0.3715
  499SOL    HW2 2183   1.918   6.679   5.873 -0.1343  0.5295 -0.1138
  500SOL     OW 2184   6.837   0.787   4.693 -0.4006 -0.0632 -0.1469
  500SOL    HW1 2185   6.894   0.722   4.652  1.7819  2.4846 -1.5016
  500SOL    HW2 2186   6.763   0.794   4.634 -0.5671 -1.1255 -0.0882
  501SOL     OW 2187   2.003   6.994   0.323 -0.3099  0.7519  0.6372
  501SOL    HW1 2188   2.011   7.079   0.364 -0.9063  0.3789  1.5549
  501SOL    HW2 2189   2.082   6.946   0.350 -0.3380  0.7612  0.7361
  502SOL     OW 2190   0.067   0.635   2.313  0.1519  0.8357 -0.4653
  502SOL    HW1 2191   0.131   0.589   2.260  0.4110  2.3840 -1.5591
  502SOL    HW2 2192  -0.013   0.583   2.305  1.0250 -0.6849  0.2879
  503SOL     OW 2193   1.020   1.549   6.469  0.0172 -0.3896  0.2882
  503SOL    HW1 2194   1.095   1.497   6.441 -1.1121 -2.0407  0.2221
  503SOL    HW2 2195   0.970   1.564   6.389 -0.1491  0.0179  0.4644
  504SOL     OW 2196   1.363   6.326   4.063  0.0316 -0.3888  0.3388
  504SOL    HW1 2197   1.387   6.319   4.155 -1.2171 -0.0925  0.7131
  504SOL    HW2 2198   1.312   6.247   4.045 -0.5276  0.0013  0.1775
  505SOL     OW 2199   3.978   6.294   2.864  0.1820 -0.2567  0.4754
  505SOL    HW1 2200   3.916   6.229   2.895 -1.8290  0.8247 -1.0139
  505SOL    HW2 2201   3.931   6.377   2.870  0.7577  0.3891 -2.3713
  506SOL     OW 2202   2.896   5.282   7.248 -0.1883  0.6989 -0.6728
  506SOL    HW1 2203   2.833   5.309   7.315  0.9357 -0.0098  0.7014
  506SOL    HW2 2204   2.880   5.189   7.235 -0.6649  0.9037 -1.7275
  507SOL     OW 2205   2.209   2.525   7.600  0.9066 -0.4259 -0.0797
  507SOL    HW1 2206   2.283   2.464   7.605  0.6338 -0.6469  3.0144
  507SOL    HW2 2207   2.131   2.468   7.606  0.6464  0.0580  2.4606
  508SOL     OW 2208   4.584   7.631   2.670 -0.2431  0.7317  0.1916
  508SOL    HW1 2209   4.503   7.672   2.639  0.8337  1.3848 -2.0403
  508SOL    HW2 2210   4.583   7.543   2.632 -0.2840  0.4536  0.8372
  509SOL     OW 2211   7.091   3.023   1.812  0.0497  0.7270  0.3781
  509SOL    HW1 2212   7.131   2.981   1.889  0.6167 -0.1516 -0.3714
  509SOL    HW2 2213   7.000   2.994   1.812  0.0519  0.7222  0.7054
  510SOL     OW 2214   0.422   2.380   1.772 -0.1632  0.1048 -0.3351
  510SOL    HW1 2215   0.478   2.303   1.764  0.7450  0.7806 -0.5683
  510SOL    HW2 2216   0.471   2.451   1.730  0.0149  1.3290  1.8049
  511SOL     OW 2217   3.438   2.565   5.539  0.3090  0.5546  0.1294
  511SOL    HW1 2218   3.385   2.577   5.617 -0.1704  1.2205 -0.2863
  511SOL    HW2 2219   3.468   2.653   5.516  1.3908  0.2281  0.2090
  512SOL     OW 2220   5.674   0.297   1.046  0.1730  0.3198 -0.2707
  512SOL    HW1 2221   5.642   0.216   1.085 -0.5728  0.3551 -0.7827
  512SOL    HW2 2222   5.627   0.366   1.092  1.9322  0.5827  1.2414
  513SOL     OW 2223   5.911   5.742   0.636  0.2321 -0.4873  0.5444
  513SOL    HW1 2224   5.841   5.751   0.701  0.3450 -0.1503  0.6204
  513SOL    HW2 2225   5.991   5.741   0.688  0.2906 -0.7725  0.4489
  514SOL     OW 2226   1.639   6.169   1.906  0.2976 -0.4139  0.1152
  514SOL    HW1 2227   1.726   6.210   1.911  0.0266  0.0091  2.0663
  514SOL    HW2 2228   1.602   6.201   1.824  0.8508  1.7679  0.6510
  515SOL     OW 2229   1.543   4.146   3.931  0.3806  0.3601 -0.0828
  515SOL    HW1 2230   1.591   4.063   3.938 -0.7302 -0.1692  2.0799
  515SOL    HW2 2231   1.457   4.127   3.969 -0.3128  2.2177 -0.6275
  516SOL     OW 2232   0.230   3.799   7.154  0.9295 -0.0664 -0.1034
  516SOL    HW1 2233   0.217   3.830   7.064 -1.8008 -0.1528  0.1998
  516SOL    HW2 2234   0.266   3.710   7.143 -0.1732 -0.4088 -1.1501
  517SOL     OW 2235   2.758   0.344   5.083  0.0769  0.1040 -0.1792
  517SOL    HW1 2236   2.667   0.318   5.098  0.5810 -1.5669  0.1798
  517SOL    HW2 2237   2.792   0.278   5.023  1.5846 -0.4179  1.1937
  518SOL     OW 2238   2.952   4.118   4.112 -0.2740 -0.0663 -0.5535
  518SOL    HW1 2239   2.928   4.052   4.047 -1.9760  0.1224 -0.1522
  518SOL    HW2 2240   2.869   4.147   4.150  0.6481 -0.1571  1.7133
  519SOL     OW 2241   4.275   2.945   5.091  0.1207  0.3450  0.4554
  519SOL    HW1 2242   4.279   2.937   5.186 -0.5554  0.4500  0.4944
  519SOL    HW2 2243   4.188   2.979   5.073 -0.6177 -1.8350 -0.3587
  520SOL     OW 2244   0.631   1.259   4.438 -0.0821 -0.3325 -0.4898
  520SOL    HW1 2245   0.544   1.299   4.437  0.0361 -0.0182  0.7395
  520SOL    HW2 2246   0.627   1.193   4.507  0.0705 -1.7037 -1.7448
  521SOL     OW 2247   7.020   4.734   2.038 -0.5557  0.2215  0.2050
  521SOL    HW1 2248   7.035   4.678   1.962  1.0304 -0.0763  0.6866
  521SOL    HW2 2249   6.991   4.673   2.106  1.7526 -0.2140  0.9061
  522SOL     OW 2250   2.653   5.118   1.772  0.5523  0.4770  0.7269
  522SOL    HW1 2251   2.699   5.133   1.855 -0.0984 -0.8036  1.3616
  522SOL    HW2 2252   2.588   5.051   1.794 -0.8441  1.4224 -0.4136
  523SOL     OW 2253   2.490   5.411   4.465 -0.0586  0.3128  0.3979
  523SOL    HW1 2254   2.519   5.433   4.377 -0.1395 -1.0647  0.0093
  523SOL    HW2 2255   2.396   5.393   4.456 -0.1943  0.7427  0.8851
  524SOL     OW 2256   1.098   4.792   1.772  0.6108  0.7757 -0.4824
  524SOL    HW1 2257   1.158   4.828   1.837 -1.5984 -0.3347  2.3943
  524SOL    HW2 2258   1.011   4.819   1.802 -0.6528 -1.4644 -1.8467
  525SOL     OW 2259   2.562   1.973   1.682 -0.5699  0.4363 -0.3502
  525SOL    HW1 2260   2.496   2.041   1.692 -0.8915  0.2101 -0.8706
  525SOL    HW2 2261   2.515   1.899   1.644 -1.4408 -1.9842  4.6626
  526SOL     OW 2262   2.128   1.629   0.354 -0.0045 -0.4517  0.1566
  526SOL    HW1 2263   2.152   1.686   0.281 -0.2756 -0.2385  0.2349
  526SOL    HW2 2264   2.047   1.587   0.327 -0.6554  0.3872  0.7411
  527SOL     OW 2265   7.434   7.525   0.282  0.1537 -0.2978  0.5177
  527SOL    HW1 2266   7.467   7.521   0.193 -0.2348 -0.0820  0.3589
  527SOL    HW2 2267   7.416   7.618   0.297  1.3829 -0.1571  1.2659
  528SOL     OW 2268   0.653   7.431   6.766 -0.0083  0.1739 -0.2062
  528SOL    HW1 2269   0.627   7.364   6.829  0.0764 -3.3960 -3.5930
  528SOL    HW2 2270   0.571   7.471   6.738  0.0575  3.6135  3.5593
  529SOL     OW 2271   1.447   2.794   4.378 -0.2297  0.6141 -0.0006
  529SOL    HW1 2272   1.537   2.766   4.389 -0.8964 -2.2747 -1.2096
  529SOL    HW2 2273   1.451   2.890   4.383  2.5912  0.5003  1.7740
  530SOL     OW 2274   0.700   4.692   6.990 -0.2643  0.2759  0.3811
  530SOL    HW1 2275   0.741   4.606   6.983 -0.9119 -0.0929  0.9358
  530SOL    HW2 2276   0.698   4.726   6.901 -1.5947 -1.0569 -0.1442
  531SOL     OW 2277   4.002   1.148   2.066  0.1421 -0.3041 -0.7600
  531SOL    HW1 2278   4.054   1.067   2.067  1.0174  0.2445  0.5051
  531SOL    HW2 2279   3.930   1.130   2.127  0.4437 -0.0757 -0.3310
  532SOL     OW 2280   4.312   3.091   0.953 -0.4065 -0.4223  0.2175
  532SOL    HW1 2281   4.223   3.103   0.921  0.0314  0.9680 -0.5831
  532SOL    HW2 2282   4.359   3.050   0.880 -0.6372 -2.3008  1.0683
  533SOL     OW 2283   4.846   0.980   3.786  0.0079  0.2416  0.2397
  533SOL    HW1 2284   4.938   0.953   3.793 -0.0223  0.2621  0.7119
  533SOL    HW2 2285   4.808   0.919   3.723  0.8289  1.4811 -1.5585
  534SOL     OW 2286   2.258   2.885   3.088 -0.3579 -0.1093 -0.1186
  534SOL    HW1 2287   2.192   2.906   3.023 -1.2639 -2.2496  0.0352
  534SOL    HW2 2288   2.339   2.872   3.038 -0.6365  0.0177 -0.5998
  535SOL     OW 2289   4.758   3.320   4.860 -0.1055  0.0958 -0.2228
  535SOL    HW1 2290   4.743   3.295   4.952 -0.2819  0.6660 -0.0955
  535SOL    HW2 2291   4.671   3.319   4.821 -0.1516  0.8129 -0.1412
  536SOL     OW 2292   2.242   3.286   3.283  0.4334 -0.0361 -0.0577
  536SOL    HW1 2293   2.182   3.222   3.245  0.0246  0.5581 -0.4355
  536SOL    HW2 2294   2.261   3.253   3.370  0.8450 -1.0726 -0.5300
  537SOL     OW 2295   1.442   2.981   0.688  0.0451 -0.2448 -0.2655
  537SOL    HW1 2296   1.407   3.065   0.718 -1.0795 -0.6059 -0.5039
  537SOL    HW2 2297   1.385   2.916   0.728 -0.1258 -0.8213 -1.4014
  538SOL     OW 2298   7.652   4.501   4.159 -0.1247  0.2146  0.5635
  538SOL    HW1 2299   7.649   4.430   4.095  0.5660  0.6009  0.0919
  538SOL    HW2 2300   7.724   4.557   4.130 -1.3582  1.7227  0.2853
  539SOL     OW 2301   0.272   5.933   3.626 -0.0349  0.1148 -0.8344
  539SOL    HW1 2302   0.190   5.966   3.588  0.8147  1.4569 -1.5938
  539SOL    HW2 2303   0.330   5.922   3.551  1.4852  2.1864 -0.0394
  540SOL     OW 2304   0.763   5.112   4.532  0.4860  0.0315 -0.6184
  540SOL    HW1 2305   0.802   5.193   4.566 -0.5974  0.5360 -0.5307
  540SOL    HW2 2306   0.675   5.138   4.503  0.3748 -0.9727 -1.2402
  541SOL     OW 2307   1.759   2.531   5.248  0.6866  0.3388 -0.0220
  541SOL    HW1 2308   1.835   2.524   5.190  1.0898  1.3587  0.3534
  541SOL    HW2 2309   1.773   2.464   5.314  1.8193  1.1674  0.6343
  542SOL     OW 2310   6.462   0.109   1.293 -0.0213 -0.1308  0.0291
  542SOL    HW1 2311   6.550   0.081   1.266  0.1383  1.0141 -0.7011
  542SOL    HW2 2312   6.444   0.058   1.372  1.4683 -0.0836  0.4261
  543SOL     OW 2313   2.523   7.126   7.095  0.4467 -0.1862 -0.2961
  543SOL    HW1 2314   2.550   7.036   7.074  0.1264 -0.5773  0.8973
  543SOL    HW2 2315   2.564   7.144   7.180 -1.1895  0.0128  0.4859
  544SOL     OW 2316   1.616   7.336   1.143  0.1816 -0.8699 -0.0712
  544SOL    HW1 2317   1.652   7.419   1.112 -1.4775 -0.1503 -0.1902
  544SOL    HW2 2318   1.668   7.314   1.221  2.3483 -1.1022 -1.4903
  545SOL     OW 2319   4.947   0.322   1.602  0.2431 -0.2648 -0.2697
  545SOL    HW1 2320   4.925   0.271   1.524  1.3452 -2.3061  0.6654
  545SOL    HW2 2321   4.876   0.386   1.610 -0.6485 -0.9548 -2.1270
  546SOL     OW 2322   1.672   3.893   3.977 -0.0693 -0.3129 -0.0643
  546SOL    HW1 2323   1.660   3.805   4.010  0.1773 -0.1725  0.4046
  546SOL    HW2 2324   1.726   3.882   3.898  1.9191 -0.4070  1.2332
  547SOL     OW 2325   7.553   5.084   7.530  0.1113  0.5937  0.9448
  547SOL    HW1 2326   7.528   5.018   7.595 -1.7533  0.7408  0.4154
  547SOL    HW2 2327   7.556   5.166   7.579  0.5892  0.4163  1.2204
  548SOL     OW 2328   3.770   5.291   0.032 -0.9691 -0.1646  0.6365
  548SOL    HW1 2329   3.704   5.361   0.029 -2.3160 -1.2154  2.8365
  548SOL    HW2 2330   3.771   5.255  -0.057 -1.3465  1.6313 -0.1421
  549SOL     OW 2331   6.547   4.564   7.081  0.1400  0.1683  0.1575
  549SOL    HW1 2332   6.467   4.514   7.096  0.4244 -0.1901  0.4974
  549SOL    HW2 2333   6.581   4.583   7.168  2.0791 -2.3622  0.0745
  550SOL     OW 2334   7.728   2.064   5.959 -0.0210 -0.0566 -0.2380
  550SOL    HW1 2335   7.795   2.122   5.996 -1.2451  1.6366 -0.5410
  550SOL    HW2 2336   7.777   1.989   5.925  2.0982  2.1501 -2.5539
  551SOL     OW 2337   2.269   6.078   7.456 -0.1087 -0.3302 -0.1645
  551SOL    HW1 2338   2.327   6.128   7.399  0.3105  0.5722  1.0154
  551SOL    HW2 2339   2.327   6.020   7.505 -0.5172 -1.4844 -0.9895
  552SOL     OW 2340   3.164   5.946   3.043 -0.0475 -0.2972  0.1856
  552SOL    HW1 2341   3.211   5.865   3.023 -1.9172 -1.2601 -0.5053
  552SOL    HW2 2342   3.113   5.925   3.122 -0.2862  0.3155  0.1955
  553SOL     OW 2343   3.353   5.644   0.370  0.2102  0.2083  0.2150
  553SOL    HW1 2344   3.329   5.567   0.421  1.5845 -0.1466  0.3552
  553SOL    HW2 2345   3.297   5.639   0.292 -0.5338 -0.2840  0.7663
  554SOL     OW 2346   7.531   5.125   5.421 -0.3767 -0.6099 -0.0234
  554SOL    HW1 2347   7.599   5.192   5.416 -1.0902  0.3373  1.9230
  554SOL    HW2 2348   7.449   5.174   5.427 -1.2478 -1.7299 -1.9438
  555SOL     OW 2349   5.483   7.097   4.149 -0.2087 -0.4454  0.6389
  555SOL    HW1 2350   5.473   7.073   4.056  1.0998  1.0705  0.0536
  555SOL    HW2 2351   5.415   7.162   4.165  0.8375  0.8302  0.1113
  556SOL     OW 2352   3.635   2.272   6.874  0.4399 -0.3076 -0.1865
  556SOL    HW1 2353   3.608   2.193   6.827 -0.7326 -0.6573  1.0101
  556SOL    HW2 2354   3.553   2.312   6.901  1.0524  0.8914 -0.0636
  557SOL     OW 2355   0.594   2.676   3.860 -0.9448 -0.3130 -0.1699
  557SOL    HW1 2356   0.587   2.756   3.808  4.4227  2.2443  2.2770
  557SOL    HW2 2357   0.536   2.691   3.935  0.7814  1.9809  0.8110
  558SOL     OW 2358   0.553   5.279   3.559 -0.1026 -0.1986  0.3380
  558SOL    HW1 2359   0.503   5.200   3.539  0.2849 -0.3344 -0.1352
  558SOL    HW2 2360   0.625   5.277   3.496  0.5438 -0.0495  1.0669
  559SOL     OW 2361   3.362   1.420   3.910 -0.0815  0.2092  0.3719
  559SOL    HW1 2362   3.423   1.353   3.940 -1.9761 -1.4182  0.7509
  559SOL    HW2 2363   3.298   1.429   3.980 -1.9733 -0.3338 -1.1816
  560SOL     OW 2364   5.628   3.606   1.830 -0.3754 -0.1250  0.4200
  560SOL    HW1 2365   5.566   3.586   1.900 -0.6408  0.5987  0.3946
  560SOL    HW2 2366   5.593   3.559   1.754 -0.3886 -0.4552  0.6242
  561SOL     OW 2367   5.111   0.101   7.598  0.7206 -0.4163 -0.6017
  561SOL    HW1 2368   5.065   0.078   7.679 -0.5551 -0.6297 -1.3608
  561SOL    HW2 2369   5.186   0.042   7.596  0.0731 -1.2828 -0.1923
  562SOL     OW 2370   0.454   3.476   7.080  0.0082 -0.3725  0.0950
  562SOL    HW1 2371   0.482   3.523   7.002  1.1539  0.4958  0.9841
  562SOL    HW2 2372   0.456   3.542   7.150 -0.2965 -1.2896  0.9995
  563SOL     OW 2373   7.643   7.134   7.190  0.7748 -0.1421 -0.4446
  563SOL    HW1 2374   7.680   7.193   7.124  1.4830 -1.7183 -1.5066
  563SOL    HW2 2375   7.667   7.174   7.273  1.2334  1.0696 -1.1271
  564SOL     OW 2376   7.110   3.615   0.393 -0.1545  0.1029  0.4860
  564SOL    HW1 2377   7.202   3.640   0.391  0.0645 -0.6579 -1.7394
  564SOL    HW2 2378   7.093   3.594   0.485  1.8983  0.1915  0.9413
  565SOL     OW 2379   7.512   3.752   5.770  0.1412 -0.0188  0.5239
  565SOL    HW1 2380   7.522   3.778   5.861 -0.5279 -1.2136  0.9540
  565SOL    HW2 2381   7.557   3.821   5.721  0.8641  0.4325  1.7661
  566SOL     OW 2382   3.986   6.391   0.927  0.1324 -0.5873 -0.0825
  566SOL    HW1 2383   4.059   6.426   0.875 -0.8805 -0.3567 -1.4322
  566SOL    HW2 2384   4.023   6.315   0.972  2.0061  1.2827  1.7546
  567SOL     OW 2385   7.295   6.755   5.049 -0.6217  0.2607  0.0835
  567SOL    HW1 2386   7.303   6.785   4.958 -0.7495  2.4343  0.7177
  567SOL    HW2 2387   7.280   6.661   5.043  2.1847 -0.1500 -2.0292
  568SOL     OW 2388   3.844   7.463   2.526 -0.0347  1.0364 -0.5130
  568SOL    HW1 2389   3.787   7.475   2.449 -2.9304  1.2728  1.4895
  568SOL    HW2 2390   3.847   7.549   2.567  1.4452  0.9048 -0.3111
  569SOL     OW 2391   4.851   4.982   3.637  0.6625  0.6625  0.1534
  569SOL    HW1 2392   4.825   5.047   3.702 -0.0020 -0.4784  1.0639
  569SOL    HW2 2393   4.769   4.956   3.594  0.4186 -1.7684  1.9145
  570SOL     OW 2394   1.905   6.334   2.960 -0.6813  0.1759  0.5044
  570SOL    HW1 2395   1.999   6.334   2.976 -0.6788 -0.0454  0.4911
  570SOL    HW2 2396   1.868   6.378   3.036 -0.6315 -0.4658  0.9101
  571SOL     OW 2397   1.301   2.930   3.852 -0.1557  0.2095  0.1492
  571SOL    HW1 2398   1.368   2.900   3.913 -1.2248 -0.9453  0.8144
  571SOL    HW2 2399   1.228   2.955   3.908 -0.5746  0.6731 -0.5937
  572SOL     OW 2400   7.542   4.895   2.967  0.5873 -0.2558 -0.1734
  572SOL    HW1 2401   7.515   4.831   2.901  0.9920 -1.3473  0.6788
  572SOL    HW2 2402   7.611   4.946   2.925  1.1770 -1.2492 -0.4510
  573SOL     OW 2403   0.418   0.751   0.936 -0.0779 -0.0978  0.3900
  573SOL    HW1 2404   0.432   0.664   0.897 -1.2194  0.4713 -1.3949
  573SOL    HW2 2405   0.491   0.762   0.997  0.0410 -2.3403  0.7357
  574SOL     OW 2406   3.159   0.999   5.401  0.2532  0.7551  0.5058
  574SOL    HW1 2407   3.212   0.929   5.439 -1.4586 -0.5156  0.6595
  574SOL    HW2 2408   3.153   0.978   5.308 -1.6283 -0.2783  0.8255
  575SOL     OW 2409   3.620   5.057   2.203 -0.0610  0.5755  0.7215
  575SOL    HW1 2410   3.683   5.040   2.133  0.9074  1.7986  1.2396
  575SOL    HW2 2411   3.627   4.982   2.261 -0.5433 -0.2350 -0.2411
  576SOL     OW 2412   1.691   4.870   1.819 -0.0105 -0.0198 -0.3641
  576SOL    HW1 2413   1.775   4.885   1.862  0.4741  0.5093 -1.4555
  576SOL    HW2 2414   1.711   4.874   1.726 -0.8541 -2.1183 -0.6775
  577SOL     OW 2415   1.897   0.250   0.574  0.2582  0.1886  0.0143
  577SOL    HW1 2416   1.951   0.320   0.611 -0.2236 -0.4468  2.0402
  577SOL    HW2 2417   1.807   0.283   0.580  0.1474 -0.0118 -0.4507
  578SOL     OW 2418   4.732   7.006   2.018  0.2918 -0.3363 -0.3229
  578SOL    HW1 2419   4.785   6.999   1.939 -1.4856 -2.4901 -1.4302
  578SOL    HW2 2420   4.771   6.942   2.078  1.6553  1.3129  0.6470
  579SOL     OW 2421   0.293   6.084   3.264 -0.5350 -0.2917 -0.4016
  579SOL    HW1 2422   0.200   6.083   3.241 -0.3569 -0.7028 -1.1079
  579SOL    HW2 2423   0.334   6.023   3.204  0.2211 -0.0167 -0.1799
  580SOL     OW 2424   0.688   3.757   0.578  1.0626  0.4827  0.2975
  580SOL    HW1 2425   0.684   3.848   0.549  2.9608  0.6959  0.6142
  580SOL    HW2 2426   0.733   3.711   0.508 -2.0631 -0.8186 -1.0671
  581SOL     OW 2427   1.421   4.437   7.110  0.4220  0.5523 -0.0869
  581SOL    HW1 2428   1.382   4.351   7.094  0.2011  0.5988  0.2045
  581SOL    HW2 2429   1.393   4.461   7.198  0.7999  0.7535 -0.0169
  582SOL     OW 2430   3.509   4.771   6.115 -0.0180  0.7616 -0.0269
  582SOL    HW1 2431   3.586   4.720   6.090  0.2368  0.7282  0.8000
  582SOL    HW2 2432   3.484   4.817   6.035  0.8896  0.8023 -0.3026
  583SOL     OW 2433   3.243   2.995   5.465  0.8361 -0.2048 -0.7528
  583SOL    HW1 2434   3.315   3.057   5.453 -1.0582  2.5472  0.8975
  583SOL    HW2 2435   3.263   2.951   5.548  0.2032  1.3498  0.2831
  584SOL     OW 2436   2.205   3.335   0.900 -0.5372 -0.3823 -0.1556
  584SOL    HW1 2437   2.236   3.257   0.853  0.1187  0.2679 -0.8469
  584SOL    HW2 2438   2.270   3.402   0.879 -2.1484  0.9332 -1.2905
  585SOL     OW 2439   3.297   4.378   1.799 -0.1527 -0.2726  0.0076
  585SOL    HW1 2440   3.272   4.396   1.708  0.0997 -0.4754 -0.1004
  585SOL    HW2 2441   3.241   4.306   1.826  0.4200 -0.8357 -0.2868
  586SOL     OW 2442   2.868   6.890   1.318  0.2964  0.3250 -0.1373
  586SOL    HW1 2443   2.787   6.941   1.330 -2.2792 -3.4599  0.2836
  586SOL    HW2 2444   2.901   6.875   1.406  0.4949  0.4225 -0.1933
  587SOL     OW 2445   6.200   2.425   4.385 -0.3413  0.0490 -0.1080
  587SOL    HW1 2446   6.104   2.428   4.380 -0.4073  0.0770  0.8950
  587SOL    HW2 2447   6.220   2.335   4.411 -0.0702 -0.0624 -0.6936
  588SOL     OW 2448   0.518   4.540   5.346  0.2312  0.0346 -0.1278
  588SOL    HW1 2449   0.531   4.448   5.322  0.1041  0.0187 -0.1362
  588SOL    HW2 2450   0.593   4.561   5.402 -0.4556 -0.4692  1.0105
  589SOL     OW 2451   3.421   6.788   5.385  0.2377 -0.0225  0.1738
  589SOL    HW1 2452   3.392   6.717   5.327  0.7544 -0.0609 -0.0402
  589SOL    HW2 2453   3.510   6.762   5.411 -0.3157 -0.4709  1.7106
  590SOL     OW 2454   6.020   0.900   2.862  0.5714 -0.1893  0.2515
  590SOL    HW1 2455   6.011   0.965   2.932 -1.6084 -0.9963  0.8213
  590SOL    HW2 2456   6.079   0.834   2.898  0.5609  0.0915  0.7995
  591SOL     OW 2457   3.488   7.473   0.579  0.0886 -0.2185  0.3646
  591SOL    HW1 2458   3.510   7.526   0.502  1.3866 -0.6285  0.4384
  591SOL    HW2 2459   3.445   7.535   0.638  1.5404  0.7768  0.4349
  592SOL     OW 2460   1.128   5.824   1.192  0.0857  0.6738  0.0174
  592SOL    HW1 2461   1.059   5.886   1.217 -0.5029 -0.0280  0.2004
  592SOL    HW2 2462   1.151   5.848   1.102 -0.8626  0.5237 -0.2778
  593SOL     OW 2463   0.748   3.175   6.542 -0.5478  1.0601  0.0872
  593SOL    HW1 2464   0.694   3.158   6.618 -0.5709 -0.5805 -0.2753
  593SOL    HW2 2465   0.738   3.269   6.526 -0.7855  1.3700  1.8982
  594SOL     OW 2466   6.939   2.356   4.611  0.2520  0.9951  0.2443
  594SOL    HW1 2467   6.953   2.309   4.529 -1.9521 -0.3433  0.5457
  594SOL    HW2 2468   6.862   2.410   4.595 -0.4505  0.4148  1.5129
  595SOL     OW 2469   2.472   7.615   4.403  0.5662  0.4961  0.2422
  595SOL    HW1 2470   2.490   7.572   4.320 -0.7022 -1.4278  0.8849
  595SOL    HW2 2471   2.538   7.581   4.463  1.0597  1.3552  0.2000
  596SOL     OW 2472   5.240   7.706   3.497 -0.6248 -0.4552  0.3870
  596SOL    HW1 2473   5.224   7.670   3.584  0.3228 -0.8814  0.3881
  596SOL    HW2 2474   5.302   7.778   3.511  0.1854 -1.0580 -0.0259
  597SOL     OW 2475   4.744   3.923   6.073  0.2055  0.0804 -0.1363
  597SOL    HW1 2476   4.781   3.951   6.156  1.3134  0.5893 -0.7767
  597SOL    HW2 2477   4.751   4.001   6.017 -0.9447 -0.1148 -0.5739
  598SOL     OW 2478   6.544   6.380   1.426  0.7174  0.4762 -0.6997
  598SOL    HW1 2479   6.520   6.373   1.518  0.6016 -3.0071 -0.8838
  598SOL    HW2 2480   6.462   6.399   1.381  0.2771 -0.4919 -0.3189
  599SOL     OW 2481   3.676   0.529   1.802  0.0620  0.1245  0.3248
  599SOL    HW1 2482   3.613   0.599   1.785 -0.8130 -0.5854  0.5305
  599SOL    HW2 2483   3.626   0.448   1.787  1.2805 -0.4693 -0.7994
  600SOL     OW 2484   6.510   5.575   7.590  0.2250 -0.4112  0.4219
  600SOL    HW1 2485   6.532   5.491   7.549 -1.4343 -1.1364  0.9404
  600SOL    HW2 2486   6.588   5.629   7.577  1.0400 -1.7682 -0.6069
  601SOL     OW 2487   7.469   3.001   3.924 -0.2049 -0.3401  0.4171
  601SOL    HW1 2488   7.473   3.053   4.004  1.3451 -0.2954  0.3309
  601SOL    HW2 2489   7.452   2.912   3.955  1.4725 -0.5179  0.9156
  602SOL     OW 2490   1.944   7.156   7.666  0.2476 -0.6175 -0.4487
  602SOL    HW1 2491   1.883   7.107   7.721 -1.5556  1.7103 -0.2041
  602SOL    HW2 2492   2.011   7.187   7.727 -0.1642 -0.4206 -0.0966
  603SOL     OW 2493   5.644   2.272   4.221 -0.0117 -0.3849  0.6603
  603SOL    HW1 2494   5.692   2.216   4.282  0.0343 -0.6074  0.4206
  603SOL    HW2 2495   5.654   2.229   4.136  0.3122  0.1627  0.4114
  604SOL     OW 2496   5.947   1.146   5.348 -0.2063  0.3807 -0.2525
  604SOL    HW1 2497   5.903   1.064   5.326  0.1707 -0.1967  1.0352
  604SOL    HW2 2498   5.881   1.198   5.393 -0.3209  0.5992 -0.6754
  605SOL     OW 2499   4.551   5.154   4.082  0.0210  0.2913  0.3438
  605SOL    HW1 2500   4.611   5.121   4.149 -0.3973  0.5247  0.8334
  605SOL    HW2 2501   4.497   5.218   4.127 -1.4475 -0.8083  0.2198
  606SOL     OW 2502   0.147   7.263   1.061 -0.2870 -0.1601 -0.1662
  606SOL    HW1 2503   0.201   7.341   1.072 -0.6125 -0.0244  0.4847
  606SOL    HW2 2504   0.057   7.294   1.077 -0.4037 -0.6889  0.2174
  607SOL     OW 2505   0.963   6.420   6.640  0.4889 -0.1386 -0.0871
  607SOL    HW1 2506   0.952   6.504   6.685 -0.8800 -0.8023  0.9070
  607SOL    HW2 2507   0.960   6.355   6.710  0.8660 -1.0653 -0.9095
  608SOL     OW 2508   3.587   2.339   2.567 -0.0028 -0.0938  0.1705
  608SOL    HW1 2509   3.581   2.264   2.627 -0.0203  0.8226  1.3409
  608SOL    HW2 2510   3.678   2.369   2.575 -0.2466  0.5898  0.4352
  609SOL     OW 2511   6.357   5.791   4.651  0.2298  0.1203  0.1235
  609SOL    HW1 2512   6.273   5.779   4.606  0.3746  0.6155 -0.2935
  609SOL    HW2 2513   6.410   5.840   4.588  0.3415  1.0994  0.9505
  610SOL     OW 2514   4.311   0.916   6.227  0.1527 -0.5433 -0.2902
  610SOL    HW1 2515   4.252   0.853   6.187 -0.5542  0.0187 -0.1585
  610SOL    HW2 2516   4.258   0.960   6.293  0.6757  0.0932 -0.2811
  611SOL     OW 2517   4.289   6.949   7.403 -0.3270 -0.3587 -0.5624
  611SOL    HW1 2518   4.304   6.901   7.322 -1.1220 -2.3228  0.3859
  611SOL    HW2 2519   4.195   6.969   7.402 -0.3198 -0.3014 -0.1859
  612SOL     OW 2520   2.220   2.470   3.563 -0.5721 -0.0120 -0.5010
  612SOL    HW1 2521   2.301   2.419   3.567  0.4156  1.5725  1.2819
  612SOL    HW2 2522   2.179   2.456   3.648 -0.4632  1.8078 -0.1065
  613SOL     OW 2523   2.739   3.051   1.246  1.0218  0.1139 -0.1255
  613SOL    HW1 2524   2.785   3.038   1.329  2.8055 -0.3631 -1.1313
  613SOL    HW2 2525   2.745   2.966   1.202  0.9568  0.6171 -1.1442
  614SOL     OW 2526   3.866   6.594   6.046 -0.4221  0.0938  0.0363
  614SOL    HW1 2527   3.832   6.508   6.019 -1.1600  0.1099  0.8592
  614SOL    HW2 2528   3.940   6.573   6.103 -1.2140 -0.0368  1.0425
  615SOL     OW 2529   7.085   6.531   6.622 -0.0597 -0.3823 -0.1604
  615SOL    HW1 2530   7.065   6.611   6.573 -0.6602 -0.8344 -0.6755
  615SOL    HW2 2531   7.178   6.516   6.606  0.2112  0.5496  0.4608
  616SOL     OW 2532   0.651   3.824   4.504 -0.0796 -0.5329 -0.1143
  616SOL    HW1 2533   0.556   3.812   4.510 -0.5024  1.9918 -0.6361
  616SOL    HW2 2534   0.680   3.827   4.595 -0.8680  0.8235  0.1213
  617SOL     OW 2535   1.499   7.026   2.715  0.4548 -0.2581  0.3320
  617SOL    HW1 2536   1.479   6.984   2.799  1.4890  0.4836  0.9835
  617SOL    HW2 2537   1.516   7.118   2.738 -2.6345  0.8281 -1.1412
  618SOL     OW 2538   7.722   7.759   1.908 -0.2045  0.0226  0.0160
  618SOL    HW1 2539   7.813   7.740   1.929 -0.6090 -2.1109  0.0498
  618SOL    HW2 2540   7.713   7.738   1.815 -0.7721 -0.2667  0.1282
  619SOL     OW 2541   3.918   6.757   2.334 -0.6834 -0.2778 -0.2470
  619SOL    HW1 2542   3.947   6.804   2.256 -1.4563  2.1597  0.8543
  619SOL    HW2 2543   3.928   6.819   2.406 -3.4688 -1.1169  1.0267
  620SOL     OW 2544   6.149   2.830   3.781  0.4381 -0.0429  0.3055
  620SOL    HW1 2545   6.178   2.744   3.811 -0.2729 -0.3773  0.0598
  620SOL    HW2 2546   6.199   2.846   3.700  0.6724 -0.1607  0.4274
  621SOL     OW 2547   3.391   4.486   2.981 -0.5507 -0.0467 -0.6447
  621SOL    HW1 2548   3.321   4.451   3.036 -1.6358 -0.5659 -2.2798
  621SOL    HW2 2549   3.439   4.409   2.950 -0.8321  0.1095 -1.5168
  622SOL     OW 2550   5.176   3.032   2.309 -0.4541  0.4419  0.6168
  622SOL    HW1 2551   5.212   3.116   2.334  0.9898  0.0078  0.0664
  622SOL    HW2 2552   5.242   2.993   2.252 -3.4418  1.3337 -3.9358
  623SOL     OW 2553   5.572   1.702   5.187  0.3867 -0.1066 -0.0863
  623SOL    HW1 2554   5.523   1.784   5.177 -0.6034 -0.6051  0.5176
  623SOL    HW2 2555   5.603   1.703   5.277 -1.0596 -1.1284  0.4678
  624SOL     OW 2556   2.434   2.209   5.669 -0.3465  0.1560  0.3326
  624SOL    HW1 2557   2.432   2.250   5.583  0.3865  0.9553  0.6915
  624SOL    HW2 2558   2.458   2.118   5.651 -0.3404  0.2811 -0.3155
  625SOL     OW 2559   2.626   6.685   2.599  0.3317  0.2002  0.2548
  625SOL    HW1 2560   2.574   6.722   2.528 -1.8168 -0.2816  1.4935
  625SOL    HW2 2561   2.717   6.690   2.568 -0.5360 -0.2060 -2.5945
  626SOL     OW 2562   0.457   6.283   4.960 -1.2052 -0.2580 -0.4419
  626SOL    HW1 2563   0.474   6.219   5.029  0.8037  1.2205  0.5455
  626SOL    HW2 2564   0.485   6.240   4.880  0.4169 -0.5507  0.2509
  627SOL     OW 2565   4.233   6.872   3.030 -0.8828  0.6398  0.0293
  627SOL    HW1 2566   4.290   6.795   3.036  0.6504  1.4906 -2.3630
  627SOL    HW2 2567   4.282   6.942   3.072 -0.8535  1.0178 -0.6200
  628SOL     OW 2568   6.186   2.301   2.450  0.3886 -0.2347  0.0207
  628SOL    HW1 2569   6.141   2.226   2.412 -0.3936 -0.0920  0.6266
  628SOL    HW2 2570   6.165   2.297   2.544  1.0641  0.2426  0.2051
  629SOL     OW 2571   6.469   6.922   3.712 -0.3241 -0.3668  0.2979
  629SOL    HW1 2572   6.489   7.016   3.719 -2.0715  0.0606  0.0150
  629SOL    HW2 2573   6.542   6.886   3.661 -0.6277  1.2582 -1.4208
  630SOL     OW 2574   0.344   6.108   1.867 -0.3989 -0.0479  0.7987
  630SOL    HW1 2575   0.342   6.203   1.854  0.3599  0.0077  1.0270
  630SOL    HW2 2576   0.321   6.096   1.959 -0.7136 -0.0988  0.7128
  631SOL     OW 2577   4.593   3.560   4.954  0.4908 -0.1441 -0.0866
  631SOL    HW1 2578   4.537   3.484   4.969  2.6174 -1.6721  0.6301
  631SOL    HW2 2579   4.570   3.621   5.024 -1.8787  0.3491 -1.1958
  632SOL     OW 2580   3.193   3.769   1.355 -0.4778  0.1299  0.2947
  632SOL    HW1 2581   3.149   3.850   1.328  0.8493  1.2794  1.4197
  632SOL    HW2 2582   3.141   3.737   1.429  0.4656  1.4510  1.5854
  633SOL     OW 2583   4.759   2.153   1.761  0.2852  0.0249 -0.3210
  633SOL    HW1 2584   4.840   2.102   1.753 -0.3643 -1.0309 -0.4506
  633SOL    HW2 2585   4.787   2.240   1.788  1.3262 -0.8542  1.5929
  634SOL     OW 2586   4.354   3.074   1.931 -0.4705 -0.2347 -0.2399
  634SOL    HW1 2587   4.442   3.087   1.895 -0.3317  0.5180  0.3430
  634SOL    HW2 2588   4.308   3.156   1.911 -0.0059  0.7497  2.3162
  635SOL     OW 2589   6.806   1.104   5.642 -0.4026 -0.0097  0.1017
  635SOL    HW1 2590   6.755   1.135   5.717  1.3303 -0.3413  1.4728
  635SOL    HW2 2591   6.745   1.048   5.594 -1.3157 -0.5325  1.7637
  636SOL     OW 2592   2.830   5.215   7.568 -0.6284 -0.4405  0.0433
  636SOL    HW1 2593   2.805   5.206   7.660  0.7143  0.0407  0.4718
  636SOL    HW2 2594   2.778   5.289   7.537  0.7986  1.0762  1.1420
  637SOL     OW 2595   3.827   4.694   7.456  0.0537 -0.1612 -0.6586
  637SOL    HW1 2596   3.777   4.708   7.537  0.1865  1.2253 -0.7874
  637SOL    HW2 2597   3.817   4.601   7.437  1.4532 -0.9611  1.9272
  638SOL     OW 2598   0.661   3.168   6.802  0.2574  0.0324  0.2980
  638SOL    HW1 2599   0.693   3.255   6.824 -0.4223 -0.1387  2.1382
  638SOL    HW2 2600   0.732   3.109   6.830  0.9805 -0.0228 -1.4963
  639SOL     OW 2601   4.344   0.318   2.652 -0.0752 -0.8594 -0.2543
  639SOL    HW1 2602   4.335   0.408   2.623 -1.3322 -1.3121 -1.4184
  639SOL    HW2 2603   4.372   0.270   2.574 -1.5153 -1.7820 -0.2535
  640SOL     OW 2604   0.727   7.698   1.656 -0.0505  0.2417  1.0475
  640SOL    HW1 2605   0.693   7.669   1.741 -1.5191 -0.4354  0.2647
  640SOL    HW2 2606   0.769   7.620   1.619  0.2189  0.4228  0.9698
  641SOL     OW 2607   2.504   4.163   7.143  0.4054  0.1222  0.1018
  641SOL    HW1 2608   2.417   4.146   7.106  0.6238  0.6860 -0.7153
  641SOL    HW2 2609   2.527   4.082   7.189  0.1453 -0.6715 -1.0977
  642SOL     OW 2610   2.043   6.376   1.536  0.0092  0.1478 -0.8461
  642SOL    HW1 2611   2.034   6.438   1.463 -0.7544  0.1990 -0.7139
  642SOL    HW2 2612   2.129   6.397   1.574 -1.5455  3.4543  1.2829
  643SOL     OW 2613   7.705   2.864   7.155 -0.7055  0.6618  0.0054
  643SOL    HW1 2614   7.732   2.844   7.244  0.2410 -0.6050 -0.5375
  643SOL    HW2 2615   7.738   2.953   7.140 -0.5365  0.7364  0.7708
  644SOL     OW 2616   1.126   5.317   1.337  0.1009 -0.2637  0.4871
  644SOL    HW1 2617   1.214   5.355   1.341  0.7317 -1.7317  1.4890
  644SOL    HW2 2618   1.132   5.250   1.269  0.3740 -1.7189  1.8745
  645SOL     OW 2619   6.905   7.098   4.247 -0.1852 -0.0153  0.0939
  645SOL    HW1 2620   6.849   7.102   4.325 -2.1860  1.8368 -1.3221
  645SOL    HW2 2621   6.919   7.189   4.223  0.7635 -0.5345 -1.4653
  646SOL     OW 2622   2.373   5.531   4.022 -0.6133 -0.6582  0.1703
  646SOL    HW1 2623   2.408   5.509   3.935 -1.4599  2.1501 -0.9820
  646SOL    HW2 2624   2.451   5.546   4.076 -0.0693 -0.7365 -0.5844
  647SOL     OW 2625   0.384   3.782   2.402  0.4141 -0.0694 -0.2878
  647SOL    HW1 2626   0.379   3.762   2.308  0.5099 -1.8445  0.0462
  647SOL    HW2 2627   0.317   3.727   2.442 -0.5870  1.6909  0.5757
  648SOL     OW 2628   7.680   4.657   0.048  0.0016  0.2881  0.0471
  648SOL    HW1 2629   7.614   4.679   0.113  0.7239  0.2279  0.8215
  648SOL    HW2 2630   7.737   4.594   0.092  0.6506  0.4479 -0.5475
  649SOL     OW 2631   6.867   2.426   5.744 -0.4210  0.1249  0.1121
  649SOL    HW1 2632   6.937   2.431   5.678 -0.5514  0.3082 -0.0130
  649SOL    HW2 2633   6.787   2.443   5.695 -0.5305  0.1483  0.2995
  650SOL     OW 2634   2.372   5.064   2.328  0.1735 -0.1294  0.2070
  650SOL    HW1 2635   2.331   5.089   2.411  0.4679 -1.4934  0.7950
  650SOL    HW2 2636   2.432   5.136   2.308 -1.6172  1.3281 -0.0696
  651SOL     OW 2637   4.844   5.930   6.456 -0.0396 -0.0231 -0.1782
  651SOL    HW1 2638   4.915   5.911   6.396  0.2909 -1.1349  0.5319
  651SOL    HW2 2639   4.883   5.987   6.522  0.1522 -0.4545  0.0894
  652SOL     OW 2640   2.941   3.713   6.561 -0.7666  0.1551  0.6458
  652SOL    HW1 2641   3.009   3.761   6.515  0.9822 -1.5222  1.3528
  652SOL    HW2 2642   2.908   3.774   6.627 -0.8309  1.3786 -0.4797
  653SOL     OW 2643   3.555   5.671   2.765  0.1397  0.2650 -0.5529
  653SOL    HW1 2644   3.588   5.592   2.724 -1.8444 -0.2113 -1.3674
  653SOL    HW2 2645   3.476   5.643   2.812  0.6700  1.3631  1.0837
  654SOL     OW 2646   3.246   2.907   0.393 -0.0754  0.2858  0.2986
  654SOL    HW1 2647   3.225   2.881   0.303  1.1193  1.5818 -0.3766
  654SOL    HW2 2648   3.221   2.999   0.398  0.1337  0.2963  1.2021
  655SOL     OW 2649   5.848   2.799   3.629  0.0008  0.1046 -0.6399
  655SOL    HW1 2650   5.926   2.783   3.576  1.0408 -0.5099  0.9994
  655SOL    HW2 2651   5.882   2.836   3.710 -1.4640  0.1276 -0.0153
  656SOL     OW 2652   4.230   1.722   5.066  0.2396 -0.0408 -0.4619
  656SOL    HW1 2653   4.307   1.675   5.099 -0.0692 -0.5443 -0.4444
  656SOL    HW2 2654   4.263   1.773   4.992  0.2550 -1.7158 -1.6835
  657SOL     OW 2655   7.543   6.878   3.619  0.5341 -0.0978 -0.5059
  657SOL    HW1 2656   7.579   6.943   3.559 -0.7821 -0.1668 -1.4166
  657SOL    HW2 2657   7.471   6.922   3.663  0.4840 -0.5305 -0.1428
  658SOL     OW 2658   6.115   4.017   7.240 -0.5565 -0.0401  0.2517
  658SOL    HW1 2659   6.070   3.938   7.210 -1.7405  0.6993  0.0142
  658SOL    HW2 2660   6.068   4.042   7.320  0.2869  0.0242  0.7417
  659SOL     OW 2661   2.088   2.587   4.828 -0.4852  0.1361 -0.0218
  659SOL    HW1 2662   2.157   2.652   4.840 -1.2377  0.5828  2.4974
  659SOL    HW2 2663   2.135   2.504   4.820  0.4533  0.8055 -2.6323
  660SOL     OW 2664   6.669   1.361   1.979  0.3209 -0.0072 -0.1090
  660SOL    HW1 2665   6.672   1.374   2.074 -3.4813  1.9537 -0.0679
  660SOL    HW2 2666   6.604   1.292   1.967 -0.5920  1.0107 -1.2718
  661SOL     OW 2667   3.055   3.651   0.598 -0.1301 -0.3133  0.0910
  661SOL    HW1 2668   3.051   3.557   0.617 -3.4087  0.0741  2.3236
  661SOL    HW2 2669   3.022   3.692   0.678  2.1672  2.8813 -0.4232
  662SOL     OW 2670   4.125   1.815   5.512  0.0834 -0.3819  0.3156
  662SOL    HW1 2671   4.051   1.815   5.572 -0.4264 -1.2409 -0.2814
  662SOL    HW2 2672   4.177   1.738   5.537 -1.2567 -2.0406 -1.6017
  663SOL     OW 2673   3.831   0.047   0.613  0.5309 -0.3280  0.1670
  663SOL    HW1 2674   3.915   0.027   0.572  0.6880 -1.1271  0.8540
  663SOL    HW2 2675   3.844   0.028   0.706 -0.0500  0.7085  0.4733
  664SOL     OW 2676   2.953   4.624   2.307 -0.5211  0.0590  0.1873
  664SOL    HW1 2677   2.887   4.654   2.370 -1.2281  1.7411 -1.2643
  664SOL    HW2 2678   2.940   4.529   2.302 -1.7093  0.1400  1.1768
  665SOL     OW 2679   4.101   1.570   2.901 -0.1778 -0.2565 -0.1835
  665SOL    HW1 2680   4.188   1.610   2.895 -1.6018  3.8133  2.2291
  665SOL    HW2 2681   4.117   1.483   2.937  2.9571 -0.5904 -2.0109
  666SOL     OW 2682   6.119   4.534   6.925 -0.4122 -0.6095  0.0788
  666SOL    HW1 2683   6.103   4.628   6.917 -1.6969 -0.7641  0.6472
  666SOL    HW2 2684   6.104   4.500   6.836  0.3281 -0.2526 -0.1914
  667SOL     OW 2685   7.757   6.655   2.083 -0.8982  0.0450  0.2155
  667SOL    HW1 2686   7.682   6.698   2.041  0.0069  1.0415 -0.4312
  667SOL    HW2 2687   7.775   6.579   2.028 -0.5267  0.6266 -0.4832
  668SOL     OW 2688   4.768   7.188   3.927 -0.6630  0.0210 -0.3404
  668SOL    HW1 2689   4.826   7.173   4.002 -1.9468 -0.0778  0.6701
  668SOL    HW2 2690   4.824   7.178   3.851  0.3498 -1.5354  0.5547
  669SOL     OW 2691   3.087   6.694   3.367 -0.0281  0.1771 -0.1830
  669SOL    HW1 2692   3.131   6.701   3.282 -0.1390 -0.2329 -0.2777
  669SOL    HW2 2693   3.019   6.761   3.364 -0.0997  0.0941 -0.4646
  670SOL     OW 2694   2.171   5.132   7.776  0.5697  0.1527  0.2780
  670SOL    HW1 2695   2.212   5.211   7.740 -0.0128  0.4348  0.2262
  670SOL    HW2 2696   2.126   5.162   7.855 -0.8449  0.1764 -0.4919
  671SOL     OW 2697   2.340   4.073   5.866 -0.4660  0.2819 -0.0157
  671SOL    HW1 2698   2.370   4.139   5.804 -0.2303  0.3641  0.1839
  671SOL    HW2 2699   2.371   4.104   5.951  0.2731 -0.4515 -0.0048
  672SOL     OW 2700   7.323   2.877   1.293  0.2112 -0.4340  0.5498
  672SOL    HW1 2701   7.272   2.817   1.238  0.1915 -0.5333  0.6783
  672SOL    HW2 2702   7.345   2.826   1.371  1.3412 -0.7201  0.0653
  673SOL     OW 2703   7.693   3.617   6.507 -0.1206  0.2048 -0.5389
  673SOL    HW1 2704   7.664   3.708   6.510 -0.3472  0.1386 -0.6908
  673SOL    HW2 2705   7.696   3.595   6.414 -3.2772 -0.9371 -0.5182
  674SOL     OW 2706   3.839   7.601   1.293  0.0237  0.3647  0.1447
  674SOL    HW1 2707   3.752   7.563   1.288  0.7439 -1.5196  1.1949
  674SOL    HW2 2708   3.834   7.678   1.236 -2.0582 -0.1779 -0.4995
  675SOL     OW 2709   3.007   2.403   5.878 -0.4891 -0.0736  0.0907
  675SOL    HW1 2710   3.023   2.497   5.874 -0.7106 -0.0507 -0.2600
  675SOL    HW2 2711   2.959   2.383   5.797  0.6868 -0.7002 -0.4827
  676SOL     OW 2712   7.382   6.237   6.359  0.1272  0.2270 -0.1197
  676SOL    HW1 2713   7.364   6.329   6.380  2.2006  0.8107 -0.6379
  676SOL    HW2 2714   7.351   6.227   6.269  0.0686  0.4603 -0.1280
  677SOL     OW 2715   1.853   4.772   4.750  0.3284  0.0499 -0.7023
  677SOL    HW1 2716   1.930   4.749   4.802 -0.1229 -0.3515 -0.2078
  677SOL    HW2 2717   1.885   4.840   4.689  0.5226  1.6708  1.1131
  678SOL     OW 2718   5.432   5.392   3.565  0.2916 -0.1948 -0.2844
  678SOL    HW1 2719   5.405   5.482   3.581 -0.5920 -0.4394 -0.3288
  678SOL    HW2 2720   5.370   5.339   3.616  1.1803 -0.7569  0.2416
  679SOL     OW 2721   2.802   6.862   0.865  0.1424 -0.1359 -0.3806
  679SOL    HW1 2722   2.749   6.942   0.874 -1.0490 -0.9908  0.6489
  679SOL    HW2 2723   2.890   6.888   0.891 -0.5142  0.5686  1.3060
  680SOL     OW 2724   1.574   1.554   5.527 -0.2428 -0.2078  0.1071
  680SOL    HW1 2725   1.596   1.477   5.473  0.4198 -0.6415  0.9630
  680SOL    HW2 2726   1.523   1.610   5.469  1.2272 -0.2267 -1.2836
  681SOL     OW 2727   4.390   3.637   5.174  0.0498 -0.0531  0.1474
  681SOL    HW1 2728   4.424   3.691   5.245 -0.4408 -0.2908  0.5687
  681SOL    HW2 2729   4.350   3.699   5.113 -1.6664 -0.0132  1.2624
  682SOL     OW 2730   3.682   3.792   4.248 -0.9358 -0.0812 -0.2093
  682SOL    HW1 2731   3.637   3.778   4.332 -1.2757  0.9825 -0.2026
  682SOL    HW2 2732   3.611   3.793   4.183 -0.5458 -2.8911 -0.8377
  683SOL     OW 2733   2.437   4.933   3.489 -0.6530  0.2136  0.7570
  683SOL    HW1 2734   2.467   4.883   3.413 -0.5864 -0.6160  1.3041
  683SOL    HW2 2735   2.517   4.968   3.529 -0.7389  1.1825  0.0987
  684SOL     OW 2736   3.865   0.896   0.390  0.6952 -0.1942  0.3714
  684SOL    HW1 2737   3.925   0.891   0.465 -0.9840  0.0078  1.7792
  684SOL    HW2 2738   3.806   0.968   0.411 -0.2843 -0.6145 -0.8119
  685SOL     OW 2739   3.024   3.606   3.472  0.1131  0.0557  0.6992
  685SOL    HW1 2740   3.011   3.558   3.390  0.3582 -1.7305  1.6630
  685SOL    HW2 2741   2.947   3.661   3.481 -0.3467 -0.4150 -0.2789
  686SOL     OW 2742   3.608   0.241   2.561  0.3777 -0.2862 -0.7355
  686SOL    HW1 2743   3.570   0.195   2.636  0.5886 -1.0439 -1.0727
  686SOL    HW2 2744   3.668   0.177   2.522  0.6298  0.2619 -1.2669
  687SOL     OW 2745   7.589   6.126   7.734  0.0794  0.1522 -0.2361
  687SOL    HW1 2746   7.679   6.120   7.700  0.6700 -1.4073  1.4040
  687SOL    HW2 2747   7.601   6.143   7.828 -1.3365 -0.3178  0.0478
  688SOL     OW 2748   4.941   5.064   3.352 -0.1545 -0.4638  0.2562
  688SOL    HW1 2749   5.000   5.140   3.358 -0.6858  0.0250 -0.4894
  688SOL    HW2 2750   4.959   5.027   3.266  0.0488 -1.1502  0.5876
  689SOL     OW 2751   0.919   2.143   3.416  0.3417 -0.0919  0.9191
  689SOL    HW1 2752   0.867   2.209   3.460  0.4118 -0.2468  1.2388
  689SOL    HW2 2753   0.908   2.162   3.323  1.1177  0.9394  1.0286
  690SOL     OW 2754   3.014   1.712   5.373  0.2306  0.0904 -0.0182
  690SOL    HW1 2755   3.008   1.723   5.468 -0.4724  0.7234 -0.1270
  690SOL    HW2 2756   3.095   1.662   5.359  2.0578  2.6740  0.6788
  691SOL     OW 2757   3.138   4.580   4.637  0.1490  0.0780 -0.0799
  691SOL    HW1 2758   3.093   4.618   4.712  1.4455  0.4683  0.5201
  691SOL    HW2 2759   3.101   4.492   4.629 -0.9348  0.4879  0.1850
  692SOL     OW 2760   4.299   4.071   1.073 -0.3293  0.2910  0.0488
  692SOL    HW1 2761   4.262   4.013   1.139  0.5476 -0.5606 -0.1749
  692SOL    HW2 2762   4.368   4.119   1.119 -0.0908  0.0960 -0.0953
  693SOL     OW 2763   6.541   4.108   1.060  0.3198  0.1883 -0.0052
  693SOL    HW1 2764   6.474   4.042   1.077  0.3497 -0.0279 -0.7190
  693SOL    HW2 2765   6.621   4.070   1.097  0.0900  0.3881  0.7247
  694SOL     OW 2766   4.422   6.301   6.095 -0.1010 -0.1663  0.0677
  694SOL    HW1 2767   4.460   6.301   6.182 -0.1378  0.1847  0.0856
  694SOL    HW2 2768   4.408   6.394   6.074 -1.2274 -0.2856  0.1913
  695SOL     OW 2769   7.755   6.416   4.976 -0.1631 -0.3307  0.6512
  695SOL    HW1 2770   7.730   6.461   5.057  2.7797  0.8194  1.0529
  695SOL    HW2 2771   7.751   6.483   4.908  0.2288 -0.5050  0.4465
  696SOL     OW 2772   5.371   1.161   6.721 -0.3564 -0.4072  0.1163
  696SOL    HW1 2773   5.309   1.232   6.703 -1.4626 -1.0398  1.2082
  696SOL    HW2 2774   5.446   1.204   6.762 -0.3606  0.2958 -0.5965
  697SOL     OW 2775   0.402   6.368   1.876  0.3703  0.6969  0.1341
  697SOL    HW1 2776   0.412   6.450   1.925 -0.1523  1.0703 -0.3744
  697SOL    HW2 2777   0.384   6.395   1.786 -1.5136  0.0690  0.2764
  698SOL     OW 2778   5.979   6.847   1.566 -0.1869  0.1665  0.2143
  698SOL    HW1 2779   5.931   6.795   1.631 -0.9527  1.5031  0.7798
  698SOL    HW2 2780   6.047   6.788   1.533 -1.7507 -1.5597 -0.0750
  699SOL     OW 2781   4.811   1.893   4.320  0.3032  0.3286  0.3471
  699SOL    HW1 2782   4.735   1.875   4.375  0.1615 -1.3713 -0.3293
  699SOL    HW2 2783   4.843   1.806   4.295  2.8489  0.9600  1.1004
  700SOL     OW 2784   4.544   1.777   2.474  0.4565  0.1500 -0.0240
  700SOL    HW1 2785   4.558   1.729   2.392 -1.4321  0.4635 -0.5708
  700SOL    HW2 2786   4.527   1.709   2.538 -2.3247 -0.0021 -0.8213
  701SOL     OW 2787   2.723   0.860   7.286 -0.1180 -0.1233  0.0667
  701SOL    HW1 2788   2.646   0.804   7.277  1.1074 -2.0778  1.0249
  701SOL    HW2 2789   2.796   0.804   7.260  0.9547  1.9221 -1.6347
  702SOL     OW 2790   1.921   4.416   4.429 -0.3531 -0.1173  0.2796
  702SOL    HW1 2791   2.009   4.420   4.466 -0.2799 -0.4676  0.1399
  702SOL    HW2 2792   1.934   4.395   4.336 -0.5101  1.1734 -0.0552
  703SOL     OW 2793   5.032   0.970   4.269 -0.1443  0.1690  0.1530
  703SOL    HW1 2794   5.097   1.017   4.321 -0.8466  0.6989  0.5872
  703SOL    HW2 2795   4.999   0.902   4.328 -1.3591  1.1392  0.6389
  704SOL     OW 2796   1.138   0.140   7.625  0.6054  0.4030 -0.6286
  704SOL    HW1 2797   1.128   0.235   7.628  0.2320  0.3480  2.0324
  704SOL    HW2 2798   1.224   0.127   7.585  1.5137  1.9787  0.6761
  705SOL     OW 2799   1.468   6.358   3.254  0.3030  0.2232 -0.0137
  705SOL    HW1 2800   1.430   6.441   3.226  0.8473 -0.3535 -2.7200
  705SOL    HW2 2801   1.428   6.292   3.196  1.2980 -1.1451  0.7908
  706SOL     OW 2802   4.401   1.462   5.801  0.3567 -0.0795 -0.4441
  706SOL    HW1 2803   4.388   1.555   5.820  1.0359 -0.0819  0.0662
  706SOL    HW2 2804   4.321   1.420   5.833  0.2821  0.2631 -0.1746
  707SOL     OW 2805   0.061   7.135   3.714 -0.1203 -1.1172  0.2497
  707SOL    HW1 2806   0.134   7.091   3.672 -0.2771 -1.7789  0.6424
  707SOL    HW2 2807   0.029   7.071   3.779 -1.6446 -1.2369 -0.5655
  708SOL     OW 2808   6.096   6.452   0.458  0.2046 -0.3506  0.2959
  708SOL    HW1 2809   6.041   6.374   0.462  0.0239 -0.3024 -1.0412
  708SOL    HW2 2810   6.044   6.517   0.411  1.3822 -0.3200 -1.0406
  709SOL     OW 2811   2.462   0.614   0.547  0.0686  0.1347  0.1016
  709SOL    HW1 2812   2.449   0.562   0.626 -0.9423 -2.5126 -1.6391
  709SOL    HW2 2813   2.546   0.585   0.512  0.1846  0.7672 -0.1654
  710SOL     OW 2814   4.055   6.060   5.495 -0.0968 -0.0917 -0.1636
  710SOL    HW1 2815   4.042   6.122   5.567  0.7364  0.6918 -0.6636
  710SOL    HW2 2816   3.974   6.009   5.492 -0.4582  0.4037  0.8105
  711SOL     OW 2817   7.604   4.791   4.162 -0.3894  0.0913  0.3452
  711SOL    HW1 2818   7.640   4.817   4.247 -1.9596 -0.5034  1.2406
  711SOL    HW2 2819   7.571   4.702   4.176 -0.9336  0.0921 -0.8085
  712SOL     OW 2820   4.321   4.113   2.178 -0.5555 -0.1794 -0.2379
  712SOL    HW1 2821   4.311   4.123   2.273  1.2352 -0.5826  0.0400
  712SOL    HW2 2822   4.374   4.188   2.152 -0.9371 -0.1356 -0.9003
  713SOL     OW 2823   5.412   0.617   2.296 -0.2084 -0.2305 -0.2969
  713SOL    HW1 2824   5.397   0.711   2.292  0.7387 -0.0693 -0.1448
  713SOL    HW2 2825   5.505   0.607   2.318 -0.5995 -1.1762  1.1360
  714SOL     OW 2826   4.793   2.471   4.210 -0.4061  0.0535 -0.1153
  714SOL    HW1 2827   4.844   2.469   4.290 -0.5543 -1.4041 -0.0249
  714SOL    HW2 2828   4.707   2.436   4.235 -0.3994 -0.5810 -0.9354
  715SOL     OW 2829   5.940   4.296   2.309  1.0607  0.7699  0.3947
  715SOL    HW1 2830   5.988   4.377   2.295  0.5073  1.2267  1.1092
  715SOL    HW2 2831   5.852   4.323   2.334  0.3469 -0.0579 -1.0493
  716SOL     OW 2832   0.389   5.804   1.831 -0.0627  0.4004  0.2025
  716SOL    HW1 2833   0.335   5.778   1.905 -1.3777  1.4453 -0.3617
  716SOL    HW2 2834   0.400   5.898   1.840 -2.4386  1.0441 -2.2389
  717SOL     OW 2835   0.277   0.479   2.805  0.0572  0.0909 -0.2097
  717SOL    HW1 2836   0.277   0.384   2.799  0.2009  0.1694 -1.7709
  717SOL    HW2 2837   0.346   0.499   2.869  0.0804 -0.8381  0.0691
  718SOL     OW 2838   1.116   6.425   0.346  0.0108  0.0089 -0.5883
  718SOL    HW1 2839   1.081   6.513   0.359 -0.3634 -0.1086 -0.7664
  718SOL    HW2 2840   1.203   6.438   0.309 -0.2155  0.3021 -1.0268
  719SOL     OW 2841   4.145   5.813   5.659 -0.3358  0.6990 -0.9808
  719SOL    HW1 2842   4.137   5.838   5.751 -0.4822 -1.2164 -0.4144
  719SOL    HW2 2843   4.069   5.853   5.617 -0.9206  0.6562 -0.0148
  720SOL     OW 2844   3.792   5.300   3.220 -0.1270 -0.5699 -0.5978
  720SOL    HW1 2845   3.869   5.257   3.257 -0.4011 -0.5524  0.0038
  720SOL    HW2 2846   3.764   5.241   3.150 -0.6185 -1.4926  0.3448
  721SOL     OW 2847   7.217   4.681   7.403  0.2625 -0.4722 -0.5723
  721SOL    HW1 2848   7.300   4.721   7.377  0.1733  0.5816  0.6848
  721SOL    HW2 2849   7.239   4.629   7.480 -0.0256 -1.2151 -0.9793
  722SOL     OW 2850   4.700   6.025   5.635  0.5934  0.4043 -0.7262
  722SOL    HW1 2851   4.608   6.002   5.649  1.0617 -0.7359  0.7544
  722SOL    HW2 2852   4.707   6.114   5.670  0.6674 -0.6452  2.2114
  723SOL     OW 2853   3.613   2.655   3.817 -0.0714  0.8695 -0.9728
  723SOL    HW1 2854   3.669   2.722   3.856 -0.4994  1.6174 -1.6047
  723SOL    HW2 2855   3.648   2.643   3.729  0.0230  0.2282 -0.8534
  724SOL     OW 2856   3.425   7.308   1.279 -0.2136  0.2413 -0.0272
  724SOL    HW1 2857   3.503   7.290   1.332  0.3580  0.7205 -0.6938
  724SOL    HW2 2858   3.457   7.361   1.207 -1.1351  0.2869 -0.4106
  725SOL     OW 2859   1.910   2.938   7.214 -0.1262  0.1542 -0.0253
  725SOL    HW1 2860   1.908   2.876   7.287 -1.4423 -0.3542 -0.4656
  725SOL    HW2 2861   1.976   3.003   7.240 -0.6917  0.0926  1.7078
  726SOL     OW 2862   5.848   7.256   0.973  0.2271  0.0906 -0.9744
  726SOL    HW1 2863   5.861   7.171   0.931 -0.0165 -1.0770  1.1907
  726SOL    HW2 2864   5.768   7.245   1.024  1.7562  0.6185  1.6924
  727SOL     OW 2865   1.407   3.939   3.621 -0.5715 -0.2892 -0.4337
  727SOL    HW1 2866   1.494   3.953   3.583 -0.9826 -0.5338 -1.4929
  727SOL    HW2 2867   1.408   3.847   3.648 -0.5868 -0.3711 -0.7015
  728SOL     OW 2868   0.099   3.582   6.888 -0.0281  0.2582  0.0835
  728SOL    HW1 2869   0.136   3.670   6.897  0.1258  0.3140 -0.9865
  728SOL    HW2 2870   0.135   3.549   6.806 -0.1955 -0.7561  0.4075
  729SOL     OW 2871   2.612   3.648   3.124  0.0275  0.0657  0.5329
  729SOL    HW1 2872   2.535   3.593   3.140  1.2577 -1.4866  1.4965
  729SOL    HW2 2873   2.634   3.633   3.032 -0.3356 -0.1405  0.4784
  730SOL     OW 2874   3.222   3.036   2.885  0.5636 -0.4515  0.0784
  730SOL    HW1 2875   3.171   3.100   2.935  0.0880 -0.6233 -0.1791
  730SOL    HW2 2876   3.313   3.052   2.911  0.3660 -0.2330  0.6453
  731SOL     OW 2877   2.980   5.412   2.307 -0.1249 -0.4759  0.3072
  731SOL    HW1 2878   2.893   5.436   2.277  0.4615  0.6076 -0.6133
  731SOL    HW2 2879   2.972   5.321   2.336 -1.6840 -0.2087  0.7995
  732SOL     OW 2880   0.302   3.276   6.926  0.0715  0.0175 -0.2857
  732SOL    HW1 2881   0.360   3.337   6.971 -1.1622 -0.1922  1.7335
  732SOL    HW2 2882   0.217   3.288   6.968 -0.5631 -2.0175 -0.8454
  733SOL     OW 2883   7.195   7.196   2.456 -0.6709 -0.4916  0.4084
  733SOL    HW1 2884   7.254   7.142   2.508  0.5549  1.8419  1.6023
  733SOL    HW2 2885   7.158   7.259   2.518 -1.9384  0.1539 -0.9247
  734SOL     OW 2886   7.283   3.618   0.931  0.2618  0.0172 -0.1523
  734SOL    HW1 2887   7.238   3.686   0.982  0.7027  1.1715 -1.2740
  734SOL    HW2 2888   7.373   3.647   0.925  0.6653 -1.1195  0.0745
  735SOL     OW 2889   3.020   1.125   3.725 -0.0785  0.2599 -0.0896
  735SOL    HW1 2890   3.108   1.153   3.700 -0.1379  0.4493 -0.0921
  735SOL    HW2 2891   3.011   1.152   3.816  0.2648 -0.7450  0.2533
  736SOL     OW 2892   2.526   6.829   1.017  0.5652  0.4793 -0.0536
  736SOL    HW1 2893   2.460   6.868   1.074  0.6271  1.2402 -0.4808
  736SOL    HW2 2894   2.589   6.900   1.002  0.7253  0.1889 -0.7840
  737SOL     OW 2895   1.755   6.625   2.774  0.4050  0.4712 -0.0720
  737SOL    HW1 2896   1.738   6.691   2.841  1.5101  0.7697 -0.0667
  737SOL    HW2 2897   1.850   6.618   2.771  0.3175 -1.4448  0.2361
  738SOL     OW 2898   7.682   5.035   5.636 -0.3176  0.0318 -0.4594
  738SOL    HW1 2899   7.634   5.049   5.554  1.8943  2.7414 -1.5031
  738SOL    HW2 2900   7.762   5.088   5.625  1.4172 -1.7431  2.3558
  739SOL     OW 2901   7.764   4.884   2.738  0.8780 -0.2305 -0.0165
  739SOL    HW1 2902   7.848   4.885   2.784  2.6633  0.5035 -3.0542
  739SOL    HW2 2903   7.750   4.793   2.715  1.6367 -0.1520 -0.8150
  740SOL     OW 2904   3.946   0.357   4.887  0.1829  0.1431 -0.0891
  740SOL    HW1 2905   4.030   0.310   4.884  1.9593  2.9485  1.5106
  740SOL    HW2 2906   3.957   0.421   4.957 -3.1532  1.0054 -0.2042
  741SOL     OW 2907   3.291   2.004   5.462 -0.4559  0.4545 -0.0774
  741SOL    HW1 2908   3.296   1.948   5.540 -0.0994 -3.6718 -2.7964
  741SOL    HW2 2909   3.381   2.031   5.446  0.1411 -1.8336 -1.0058
  742SOL     OW 2910   5.418   6.003   6.359  0.2453 -0.5579 -0.0660
  742SOL    HW1 2911   5.462   6.006   6.275 -1.0274 -2.2064 -0.8610
  742SOL    HW2 2912   5.381   5.914   6.364  0.0576 -0.4240  2.1133
  743SOL     OW 2913   1.725   4.321   7.124 -0.2375  1.0012 -0.3442
  743SOL    HW1 2914   1.661   4.391   7.117 -0.5542  0.7500 -0.0142
  743SOL    HW2 2915   1.680   4.243   7.091 -0.7718  0.4120  1.6252
  744SOL     OW 2916   3.604   3.272   7.508  0.1025 -0.1771 -0.0844
  744SOL    HW1 2917   3.531   3.314   7.554 -1.1676 -0.8000 -1.4649
  744SOL    HW2 2918   3.664   3.345   7.488  0.6197  0.1487  2.2819
  745SOL     OW 2919   0.654   3.849   6.711 -0.0982  0.0890  0.3166
  745SOL    HW1 2920   0.572   3.822   6.672 -0.4902  1.2303  0.3060
  745SOL    HW2 2921   0.706   3.882   6.638  0.6356 -1.2166  0.2241
  746SOL     OW 2922   0.442   3.718   6.565 -0.1626  0.0206  0.1363
  746SOL    HW1 2923   0.453   3.784   6.497  0.7262  0.8315  1.0221
  746SOL    HW2 2924   0.360   3.674   6.544 -0.4529  0.9943 -0.8228
  747SOL     OW 2925   6.124   3.515   7.040  0.1424  0.5124  0.2257
  747SOL    HW1 2926   6.028   3.514   7.042  0.1382  1.2595  0.8495
  747SOL    HW2 2927   6.147   3.455   6.969 -0.7593 -0.3326  0.6257
  748SOL     OW 2928   5.614   7.307   5.323  0.0675  0.0643  0.3461
  748SOL    HW1 2929   5.675   7.234   5.323 -0.5201 -0.4679 -1.4950
  748SOL    HW2 2930   5.537   7.274   5.276 -1.1127  1.1550  1.4272
  749SOL     OW 2931   6.284   3.451   7.495  0.0864  0.3587 -0.1226
  749SOL    HW1 2932   6.283   3.475   7.403  0.9378 -1.0013 -0.5087
  749SOL    HW2 2933   6.346   3.378   7.501 -2.3105 -1.7518  0.9479
  750SOL     OW 2934   6.263   3.889   2.036 -0.0526  0.3271  0.4983
  750SOL    HW1 2935   6.251   3.833   2.112  1.1251 -1.3325 -0.4618
  750SOL    HW2 2936   6.356   3.909   2.036 -0.3709  1.8824  0.5234
  751SOL     OW 2937   0.692   4.661   2.069 -0.1822  0.4129  0.6401
  751SOL    HW1 2938   0.627   4.606   2.025  0.9734 -0.2380 -0.3127
  751SOL    HW2 2939   0.763   4.601   2.093  0.9202  1.3840 -0.0370
  752SOL     OW 2940   6.496   5.041   7.144 -0.2648 -0.6105  0.1454
  752SOL    HW1 2941   6.410   4.998   7.146  0.0059 -1.1993 -0.4525
  752SOL    HW2 2942   6.551   4.986   7.200 -0.6630  0.6783  1.8903
  753SOL     OW 2943   7.264   2.164   4.358 -0.0506  0.4427 -0.3069
  753SOL    HW1 2944   7.287   2.215   4.435  2.2023  1.2309 -1.4150
  753SOL    HW2 2945   7.179   2.197   4.332 -0.4709  0.7411  1.3319
  754SOL     OW 2946   7.501   0.804   0.860 -0.3227  0.3886  0.6055
  754SOL    HW1 2947   7.559   0.877   0.843 -0.1940  0.1199 -0.1320
  754SOL    HW2 2948   7.559   0.729   0.871 -0.5254  0.0814 -0.3310
  755SOL     OW 2949   3.321   3.597   7.321  0.6351  0.1462 -0.1456
  755SOL    HW1 2950   3.372   3.572   7.398 -0.5075 -1.6693  0.0852
  755SOL    HW2 2951   3.265   3.669   7.352  1.9338  1.1503 -0.0111
  756SOL     OW 2952   6.202   2.367   6.006  0.0613  0.4150  0.2224
  756SOL    HW1 2953   6.271   2.327   6.059 -0.6264  0.5485  1.2558
  756SOL    HW2 2954   6.206   2.320   5.923  0.6184 -0.3846  0.6764
  757SOL     OW 2955   4.952   2.769   2.795 -0.4151  0.0356 -0.0552
  757SOL    HW1 2956   4.951   2.729   2.708  3.4335 -0.2578 -0.1613
  757SOL    HW2 2957   5.040   2.749   2.829 -1.1834  1.5732  3.2252
  758SOL     OW 2958   1.909   2.788   0.348 -0.0607  0.8699  0.0282
  758SOL    HW1 2959   1.950   2.863   0.303  0.8337  0.8283  0.7382
  758SOL    HW2 2960   1.981   2.727   0.364 -0.5695  0.3735  0.4880
  759SOL     OW 2961   3.255   6.582   6.237  0.5348 -0.1748 -0.8335
  759SOL    HW1 2962   3.342   6.617   6.259  0.8042 -1.1175 -0.3514
  759SOL    HW2 2963   3.223   6.544   6.319 -0.9974  1.4589 -0.5980
  760SOL     OW 2964   5.292   5.610   6.163  0.0434  0.2273  0.0819
  760SOL    HW1 2965   5.385   5.594   6.181  0.2581  0.9660 -0.3208
  760SOL    HW2 2966   5.292   5.660   6.081 -0.6577  1.0748  0.5876
  761SOL     OW 2967   3.484   3.087   6.263 -0.2491  0.0430  0.0467
  761SOL    HW1 2968   3.572   3.060   6.290  0.6755  2.2937 -0.4910
  761SOL    HW2 2969   3.431   3.082   6.343  1.5256  3.0270  1.5781
  762SOL     OW 2970   4.614   2.067   1.548 -0.0188 -0.0780 -0.6348
  762SOL    HW1 2971   4.655   2.066   1.635 -2.9247  1.7010  0.8985
  762SOL    HW2 2972   4.676   2.114   1.493  0.7735  1.0524  1.1482
  763SOL     OW 2973   6.200   3.352   3.013 -0.0435  0.2886 -0.4930
  763SOL    HW1 2974   6.241   3.438   3.005  2.1132 -0.6066  0.1986
  763SOL    HW2 2975   6.114   3.369   3.052  0.7144  2.0468  0.5107
  764SOL     OW 2976   7.730   3.183   0.883  0.5561  0.3712 -0.3473
  764SOL    HW1 2977   7.726   3.214   0.974  2.7316  0.0769 -0.0834
  764SOL    HW2 2978   7.684   3.099   0.884 -1.0163  1.1902  0.0419
  765SOL     OW 2979   3.220   2.898   7.423 -0.6969  0.2221 -0.6596
  765SOL    HW1 2980   3.167   2.835   7.471 -0.4693 -1.5397 -2.5757
  765SOL    HW2 2981   3.308   2.886   7.458 -1.1366  1.7509  1.1378
  766SOL     OW 2982   2.658   1.767   1.163 -0.3536  0.2688 -0.4354
  766SOL    HW1 2983   2.569   1.735   1.149 -0.4210  0.0126  0.5173
  766SOL    HW2 2984   2.681   1.813   1.082 -1.3840  0.4072 -0.6513
  767SOL     OW 2985   3.494   4.675   7.361  0.0421  0.0812  0.0121
  767SOL    HW1 2986   3.548   4.656   7.437 -0.7059  1.6835  0.9910
  767SOL    HW2 2987   3.424   4.610   7.364  0.4373 -0.3415  0.2337
  768SOL     OW 2988   1.499   7.575   5.863 -0.0719 -0.2994 -0.6852
  768SOL    HW1 2989   1.471   7.654   5.911 -1.1710 -1.0207 -0.1005
  768SOL    HW2 2990   1.587   7.596   5.833 -0.5592  1.3993 -1.0664
  769SOL     OW 2991   1.690   7.063   3.085  0.3638  0.0642  0.5159
  769SOL    HW1 2992   1.614   7.118   3.103  0.3190  0.5584 -1.0815
  769SOL    HW2 2993   1.742   7.112   3.022  2.3695  0.0137  2.0181
  770SOL     OW 2994   4.370   0.528   1.353 -0.2984 -0.0689  0.2615
  770SOL    HW1 2995   4.430   0.457   1.375 -0.6610 -0.3138  0.4714
  770SOL    HW2 2996   4.300   0.486   1.304  0.3720  0.4281 -1.1782
  771SOL     OW 2997   6.756   4.738   2.426  0.0477  0.5291  0.8776
  771SOL    HW1 2998   6.789   4.776   2.508  2.5848 -0.5502  0.4688
  771SOL    HW2 2999   6.756   4.643   2.443 -1.7335  0.4009  0.3753
  772SOL     OW 3000   0.329   5.432   0.811  0.2642 -0.1115 -0.2256
  772SOL    HW1 3001   0.233   5.422   0.808  0.3273 -0.5457 -1.3819
  772SOL    HW2 3002   0.356   5.425   0.720  1.1625  2.7647 -0.2516
  773SOL     OW 3003   3.777   6.334   7.252 -0.4287 -0.4081  0.0192
  773SOL    HW1 3004   3.750   6.247   7.223 -0.6682 -0.1410 -0.5639
  773SOL    HW2 3005   3.853   6.355   7.198 -0.8180  0.0490 -0.3591
  774SOL     OW 3006   2.128   4.679   0.823 -0.6925 -0.5322  0.1626
  774SOL    HW1 3007   2.159   4.589   0.832  1.4089  0.1991  0.8042
  774SOL    HW2 3008   2.187   4.719   0.758 -2.4919  0.0415 -1.2212
  775SOL     OW 3009   6.124   1.677   2.903 -0.1673 -0.4417  0.2294
  775SOL    HW1 3010   6.028   1.676   2.907 -0.1977  1.1324  0.6552
  775SOL    HW2 3011   6.145   1.674   2.810 -0.6315 -0.6908  0.1318
  776SOL     OW 3012   0.948   7.018   0.234  0.1180 -0.0270 -0.3204
  776SOL    HW1 3013   1.024   7.004   0.291 -1.5909  0.3229  2.1977
  776SOL    HW2 3014   0.874   6.983   0.283 -1.6823  1.5657 -1.7190
  777SOL     OW 3015   6.429   1.111   0.382 -0.4497 -0.1891  0.0420
  777SOL    HW1 3016   6.376   1.173   0.432 -0.4821 -0.8496  0.8585
  777SOL    HW2 3017   6.428   1.145   0.292  1.4773  2.2702  0.8500
  778SOL     OW 3018   7.033   6.215   1.852  0.0835 -0.2789 -0.6007
  778SOL    HW1 3019   7.004   6.280   1.789  2.5396  1.0278 -0.5218
  778SOL    HW2 3020   6.960   6.206   1.913 -1.1556  0.7430 -1.8692
  779SOL     OW 3021   3.400   4.704   3.276  0.0071 -0.2483  0.1980
  779SOL    HW1 3022   3.417   4.783   3.225 -1.1685 -0.5370 -0.6776
  779SOL    HW2 3023   3.314   4.720   3.316  0.8358 -0.0874  1.9958
  780SOL     OW 3024   5.202   6.740   0.453  0.4441 -0.4514 -0.3490
  780SOL    HW1 3025   5.192   6.666   0.514 -2.3874 -0.4499 -0.7007
  780SOL    HW2 3026   5.204   6.700   0.367 -0.8983 -0.1718 -0.5294
  781SOL     OW 3027   5.770   3.831   3.173 -0.3494  0.5627 -0.6514
  781SOL    HW1 3028   5.857   3.869   3.164  0.4409 -1.1608 -0.7300
  781SOL    HW2 3029   5.756   3.784   3.091 -0.5746 -0.6448  0.0527
  782SOL     OW 3030   1.807   7.118   6.967  0.7027 -0.1032  0.3988
  782SOL    HW1 3031   1.812   7.074   6.883 -0.4742  1.0110 -0.2977
  782SOL    HW2 3032   1.849   7.058   7.029  1.0774 -1.1891 -0.8725
  783SOL     OW 3033   3.212   6.007   1.256 -0.4568 -0.1200 -0.4656
  783SOL    HW1 3034   3.193   6.000   1.163  3.2627  0.9266 -1.4758
  783SOL    HW2 3035   3.256   5.925   1.278  0.2490  0.3341 -0.1181
  784SOL     OW 3036   2.082   6.733   3.462  0.0142 -0.3406  0.2566
  784SOL    HW1 3037   2.127   6.651   3.481  1.2556 -0.0339 -1.2008
  784SOL    HW2 3038   1.991   6.717   3.487  0.6997 -1.3017  2.3473
  785SOL     OW 3039   7.244   7.442   4.046 -0.3158 -0.4719 -0.1586
  785SOL    HW1 3040   7.329   7.443   4.003 -0.3431 -0.5056 -0.2132
  785SOL    HW2 3041   7.192   7.506   3.998 -0.9098 -1.7628 -1.3118
  786SOL     OW 3042   6.092   2.632   0.910 -0.2347  0.1115  0.1676
  786SOL    HW1 3043   6.067   2.622   0.818  2.3855 -0.5714 -0.5555
  786SOL    HW2 3044   6.066   2.721   0.933  0.6670  0.9376 -1.8005
  787SOL     OW 3045   1.523   2.897   0.339 -0.2036  0.0533 -0.2500
  787SOL    HW1 3046   1.439   2.874   0.379  0.2384  0.8083  1.1801
  787SOL    HW2 3047   1.566   2.813   0.322 -1.8838 -0.4461 -2.5746
  788SOL     OW 3048   3.855   3.040   4.298 -0.4520 -1.2027  0.2772
  788SOL    HW1 3049   3.809   2.957   4.286  0.5884 -1.5569 -1.5465
  788SOL    HW2 3050   3.915   3.046   4.224  1.5998 -0.1759  1.9068
  789SOL     OW 3051   1.503   2.518   2.369  0.5520  0.4644  0.2401
  789SOL    HW1 3052   1.524   2.454   2.437  1.4977  1.4069  0.8678
  789SOL    HW2 3053   1.427   2.565   2.403 -0.3309 -0.4831 -0.3543
  790SOL     OW 3054   4.574   2.879   1.119 -0.5701 -0.0875  0.4860
  790SOL    HW1 3055   4.604   2.969   1.111  0.0686 -0.4032 -1.2422
  790SOL    HW2 3056   4.526   2.862   1.037 -0.2193 -1.4657  0.5317
  791SOL     OW 3057   0.376   2.085   7.667  0.0976  0.6876 -0.5348
  791SOL    HW1 3058   0.441   2.015   7.665 -0.0067  0.5918 -0.5965
  791SOL    HW2 3059   0.303   2.049   7.717  0.4750  1.1340  0.3567
  792SOL     OW 3060   2.631   3.977   4.964  0.4180 -0.4178 -0.1910
  792SOL    HW1 3061   2.548   3.936   4.939  1.1281 -2.9249  1.2151
  792SOL    HW2 3062   2.616   4.071   4.953 -1.8841 -0.9190 -1.9889
  793SOL     OW 3063   0.204   5.968   7.127 -0.3269 -0.5554  0.0203
  793SOL    HW1 3064   0.152   5.974   7.207  0.0404 -0.6540  0.2683
  793SOL    HW2 3065   0.200   6.055   7.089 -0.2741 -0.4353  0.2887
  794SOL     OW 3066   5.045   0.245   2.356 -0.0627  1.0842  0.1890
  794SOL    HW1 3067   4.971   0.305   2.368  0.4803  2.0405 -0.9432
  794SOL    HW2 3068   5.122   0.302   2.355  0.9834 -0.0921  3.4908
  795SOL     OW 3069   4.930   3.041   5.003  0.0086 -0.0177  0.4905
  795SOL    HW1 3070   4.917   3.121   5.053  1.3174  0.0636  0.7289
  795SOL    HW2 3071   4.893   3.061   4.917 -0.5055  0.5122  0.8277
  796SOL     OW 3072   2.465   3.346   2.911  0.3882 -0.0786 -0.3881
  796SOL    HW1 3073   2.506   3.410   2.853  0.9940  1.0282  1.1766
  796SOL    HW2 3074   2.523   3.270   2.908  1.9148  0.9634  0.7508
  797SOL     OW 3075   7.034   2.328   2.562 -0.1028 -0.5806 -0.4145
  797SOL    HW1 3076   6.948   2.369   2.562  0.8797  1.5810 -0.8765
  797SOL    HW2 3077   7.051   2.308   2.470 -0.4452 -1.8517 -0.2274
  798SOL     OW 3078   6.951   3.331   0.130  0.0862  0.2770  0.6648
  798SOL    HW1 3079   6.896   3.391   0.080 -0.3806 -1.2393 -0.7238
  798SOL    HW2 3080   7.039   3.342   0.094 -0.2698 -0.9021 -0.6831
  799SOL     OW 3081   6.916   3.679   5.504  0.0549  0.3265 -0.0613
  799SOL    HW1 3082   6.955   3.655   5.588  0.2219 -1.1033 -0.5247
  799SOL    HW2 3083   6.906   3.775   5.509 -0.1099  0.2551  1.6428
  800SOL     OW 3084   5.406   3.483   0.450  0.2980  0.4066  0.2285
  800SOL    HW1 3085   5.343   3.418   0.482  0.2835  0.3941  0.1736
  800SOL    HW2 3086   5.432   3.452   0.364  0.9576 -0.0032  0.5622
  801SOL     OW 3087   1.202   0.628   3.768 -0.2683 -0.7970  0.0949
  801SOL    HW1 3088   1.130   0.624   3.831 -0.0508 -1.0204  0.3325
  801SOL    HW2 3089   1.256   0.701   3.797  0.2269 -1.3551  0.6004
  802SOL     OW 3090   4.043   6.727   1.548 -0.1180  0.2869  0.4943
  802SOL    HW1 3091   4.126   6.746   1.592 -0.4573 -0.0711  1.2992
  802SOL    HW2 3092   4.061   6.646   1.499  0.4843  1.0949 -0.6729
  803SOL     OW 3093   2.839   6.945   0.278 -0.5065 -0.8026 -0.3020
  803SOL    HW1 3094   2.887   6.895   0.212  0.0131  1.2182 -1.5177
  803SOL    HW2 3095   2.748   6.920   0.265 -0.6017  0.5815 -2.7843
  804SOL     OW 3096   5.777   4.955   3.267  0.0831 -0.0243  0.0199
  804SOL    HW1 3097   5.739   4.911   3.192 -0.1465 -0.6168  0.4763
  804SOL    HW2 3098   5.865   4.980   3.239  0.9615 -2.5001  0.3743
  805SOL     OW 3099   0.266   7.525   2.181 -0.4478 -0.4533  0.6116
  805SOL    HW1 3100   0.347   7.522   2.232  0.3631  1.5129 -0.4618
  805SOL    HW2 3101   0.258   7.616   2.153 -1.4476 -1.2076 -1.8386
  806SOL     OW 3102   7.613   5.773   6.999  0.4211  0.0985  0.0130
  806SOL    HW1 3103   7.530   5.819   6.992  0.0330 -0.6587 -0.5092
  806SOL    HW2 3104   7.674   5.825   6.948  0.0287  0.1111 -0.4468
  807SOL     OW 3105   2.685   0.276   1.128  0.0134 -0.5581  0.1155
  807SOL    HW1 3106   2.606   0.240   1.087 -0.4333  1.6081 -1.0553
  807SOL    HW2 3107   2.658   0.362   1.161  2.0222  0.5688 -0.9689
  808SOL     OW 3108   5.008   3.595   0.977 -0.1269 -0.1839  0.0453
  808SOL    HW1 3109   4.915   3.593   1.002 -0.6309  1.0890 -1.5229
  808SOL    HW2 3110   5.043   3.512   1.009 -1.5393 -0.2482  1.6109
  809SOL     OW 3111   5.958   3.357   1.265  0.0834 -0.2030  0.0077
  809SOL    HW1 3112   5.959   3.320   1.353 -0.8192 -1.7184 -0.5984
  809SOL    HW2 3113   5.920   3.289   1.210  0.1563  0.9108 -1.4833
  810SOL     OW 3114   7.775   6.198   1.358  0.3056  0.1495 -0.7560
  810SOL    HW1 3115   7.850   6.138   1.356 -0.2764 -0.6104 -0.5912
  810SOL    HW2 3116   7.776   6.241   1.272  1.1521  0.4314 -0.6067
  811SOL     OW 3117   0.503   0.418   2.200 -0.0876  0.1293  0.0822
  811SOL    HW1 3118   0.579   0.367   2.227 -1.1261 -1.4098  0.2490
  811SOL    HW2 3119   0.508   0.420   2.104  0.1402 -0.0024  0.0904
  812SOL     OW 3120   6.371   6.975   2.775  0.0281 -0.3379 -0.0622
  812SOL    HW1 3121   6.394   6.895   2.822 -0.4635 -1.1243 -1.1255
  812SOL    HW2 3122   6.448   6.995   2.721  0.1002 -0.1574  0.1043
  813SOL     OW 3123   0.662   6.405   0.388  0.1018 -0.1184  0.0235
  813SOL    HW1 3124   0.686   6.460   0.463 -0.6732 -0.8684  0.8537
  813SOL    HW2 3125   0.588   6.353   0.420 -2.5679  1.9064 -2.3419
  814SOL     OW 3126   7.444   4.455   3.955  0.2339  0.5949 -0.6221
  814SOL    HW1 3127   7.384   4.508   4.008 -1.3855 -1.3880 -0.3325
  814SOL    HW2 3128   7.447   4.370   4.000  1.0660 -0.2274 -2.1556
  815SOL     OW 3129   0.778   6.937   7.281  0.7162 -0.3417 -0.1266
  815SOL    HW1 3130   0.793   6.926   7.187  0.0149  0.1720 -0.3024
  815SOL    HW2 3131   0.742   7.025   7.289 -4.9095 -2.2396 -0.1140
  816SOL     OW 3132   3.159   0.273   4.464  0.1720 -0.0661 -0.3694
  816SOL    HW1 3133   3.150   0.197   4.522  2.5200  0.7029  1.1271
  816SOL    HW2 3134   3.207   0.239   4.388 -0.9085 -0.5734 -0.8466
  817SOL     OW 3135   0.988   3.572   4.673 -0.3188 -0.5073  0.0726
  817SOL    HW1 3136   0.997   3.666   4.656  0.4576 -0.8500 -1.5862
  817SOL    HW2 3137   1.032   3.558   4.757  1.5219  0.2842 -0.7089
  818SOL     OW 3138   3.915   6.486   7.532 -0.3494  0.0306  0.0048
  818SOL    HW1 3139   3.868   6.436   7.598 -3.0182  0.8118 -1.1708
  818SOL    HW2 3140   3.872   6.465   7.450  0.9433  1.3486 -1.0688
  819SOL     OW 3141   3.160   0.668   6.455 -0.1365  0.7235 -0.0488
  819SOL    HW1 3142   3.148   0.725   6.531 -1.1464 -0.7004  0.9113
  819SOL    HW2 3143   3.073   0.633   6.437  0.5584 -1.0897 -0.1031
  820SOL     OW 3144   4.449   7.088   0.709 -0.4805  0.1453 -1.1325
  820SOL    HW1 3145   4.382   7.135   0.659 -0.7091 -0.0496 -1.0143
  820SOL    HW2 3146   4.522   7.079   0.648  0.0104  1.6347 -0.8105
  821SOL     OW 3147   7.480   4.415   5.397  0.0781 -0.4247 -0.0260
  821SOL    HW1 3148   7.538   4.488   5.375 -0.3057 -0.7486 -2.4056
  821SOL    HW2 3149   7.418   4.452   5.460 -0.4318  1.5147 -1.5464
  822SOL     OW 3150   5.314   6.601   2.474  0.1303  0.0884 -0.2676
  822SOL    HW1 3151   5.389   6.548   2.503 -0.8770 -0.9914  0.4700
  822SOL    HW2 3152   5.239   6.560   2.517 -0.6829  2.2039  0.4213
  823SOL     OW 3153   6.628   7.159   4.148  0.9531 -0.5133  0.7160
  823SOL    HW1 3154   6.627   7.236   4.204  0.0619  0.8538 -1.0658
  823SOL    HW2 3155   6.675   7.187   4.069  1.2903 -2.0393  0.3408
  824SOL     OW 3156   3.128   3.954   0.812  0.4593  0.2856 -0.1735
  824SOL    HW1 3157   3.201   3.971   0.752  1.2365  0.3665  0.7740
  824SOL    HW2 3158   3.160   3.885   0.870  0.1084  0.9185  0.7987
  825SOL     OW 3159   1.721   4.163   5.680  0.1230  0.3063  0.0640
  825SOL    HW1 3160   1.748   4.198   5.595  0.2201 -1.4734 -0.6902
  825SOL    HW2 3161   1.788   4.099   5.702 -0.1777  0.3698  1.2546
  826SOL     OW 3162   2.189   3.651   0.417 -0.7494  0.1770 -0.0396
  826SOL    HW1 3163   2.096   3.630   0.425 -0.5277 -0.7648  0.2260
  826SOL    HW2 3164   2.192   3.729   0.362 -1.6721 -0.0430 -0.4162
  827SOL     OW 3165   5.012   6.710   1.557  0.0409  0.1056  0.1393
  827SOL    HW1 3166   4.993   6.627   1.600  3.5819 -0.9421  0.0157
  827SOL    HW2 3167   4.987   6.697   1.466  0.3446 -0.7598  0.1718
  828SOL     OW 3168   0.987   3.866   1.876 -0.4803 -0.2961  0.3343
  828SOL    HW1 3169   0.972   3.960   1.888 -1.1752 -0.4453  0.6491
  828SOL    HW2 3170   0.954   3.847   1.788  2.0438  0.2453 -0.8128
  829SOL     OW 3171   7.588   7.767   3.163  0.6513 -0.0602  0.1577
  829SOL    HW1 3172   7.591   7.858   3.191  0.4866 -0.0517  0.1516
  829SOL    HW2 3173   7.673   7.731   3.189  0.7950  0.1466 -0.0247
  830SOL     OW 3174   4.495   6.527   4.796 -0.0367  0.3896  0.1600
  830SOL    HW1 3175   4.457   6.513   4.883  1.7333 -2.7105  0.5975
  830SOL    HW2 3176   4.433   6.487   4.735  1.1676 -2.5255  0.6554
  831SOL     OW 3177   2.771   2.961   4.187  0.1974 -0.0003  0.3296
  831SOL    HW1 3178   2.744   2.973   4.096 -1.5417  0.4947  0.8736
  831SOL    HW2 3179   2.757   3.047   4.228  0.9256 -0.2271  1.0886
  832SOL     OW 3180   7.056   5.142   5.940 -0.6776 -0.0789 -0.2578
  832SOL    HW1 3181   7.142   5.160   5.978  0.2921  1.5738 -2.9057
  832SOL    HW2 3182   6.994   5.164   6.009  0.9853 -0.3741  1.4165
  833SOL     OW 3183   2.466   0.489   4.330  0.2931 -0.4869  0.0717
  833SOL    HW1 3184   2.550   0.533   4.343 -1.2599  2.5342  0.8790
  833SOL    HW2 3185   2.423   0.494   4.416 -0.8045 -1.7981 -0.3732
  834SOL     OW 3186   1.070   3.090   1.807 -0.2285 -0.4620 -0.1030
  834SOL    HW1 3187   1.033   3.072   1.894 -0.4684 -1.6854 -0.4435
  834SOL    HW2 3188   1.126   3.166   1.821  3.9492 -3.5237  2.3577
  835SOL     OW 3189   4.620   1.196   3.342  0.1727 -0.2222  0.9264
  835SOL    HW1 3190   4.674   1.213   3.420  1.3010  0.6372 -0.0141
  835SOL    HW2 3191   4.651   1.259   3.277  0.8849 -2.4497 -1.0300
  836SOL     OW 3192   4.304   2.990   0.361  0.3007  0.8587  0.2442
  836SOL    HW1 3193   4.241   3.012   0.293  0.7226  0.0536 -0.4166
  836SOL    HW2 3194   4.305   2.895   0.364  1.2412  0.8629  0.4757
  837SOL     OW 3195   0.913   0.159   6.478  0.0633 -0.0767 -0.1146
  837SOL    HW1 3196   0.841   0.107   6.514 -0.7637  1.4754  0.5656
  837SOL    HW2 3197   0.884   0.249   6.486  2.3888  0.6798  0.9079
  838SOL     OW 3198   0.783   0.725   6.488  0.3278  0.7665 -0.6437
  838SOL    HW1 3199   0.723   0.687   6.424 -0.1099 -0.0238  0.2129
  838SOL    HW2 3200   0.755   0.690   6.572  1.8381  0.5639 -0.1819
  839SOL     OW 3201   0.801   3.611   6.578 -0.0439 -0.7101 -0.7676
  839SOL    HW1 3202   0.809   3.706   6.593 -0.9555 -0.8966  1.1672
  839SOL    HW2 3203   0.892   3.580   6.575  0.2631 -0.0568  0.8020
  840SOL     OW 3204   0.344   0.178   5.225  0.9391  0.1256 -0.2272
  840SOL    HW1 3205   0.399   0.100   5.221 -0.4691 -0.8743 -1.1749
  840SOL    HW2 3206   0.334   0.204   5.133  1.9262  1.8545  0.1169
  841SOL     OW 3207   4.842   5.163   3.878  0.3889 -0.5452  0.2142
  841SOL    HW1 3208   4.808   5.249   3.902 -0.4218 -0.7737 -0.0994
  841SOL    HW2 3209   4.934   5.179   3.857  0.9000 -0.1974  2.5348
  842SOL     OW 3210   4.017   0.332   3.647  0.1916  0.4188  0.0999
  842SOL    HW1 3211   3.982   0.247   3.619 -0.9172  1.0866 -0.6533
  842SOL    HW2 3212   4.088   0.350   3.585  0.1560  0.2234 -0.0011
  843SOL     OW 3213   3.291   6.333   6.781 -0.4189  0.2141 -0.2205
  843SOL    HW1 3214   3.364   6.273   6.795 -0.8889 -0.1329  0.8555
  843SOL    HW2 3215   3.316   6.412   6.829 -0.7165  0.1142  0.1046
  844SOL     OW 3216   2.503   2.252   6.801 -0.1653  0.0477 -0.1642
  844SOL    HW1 3217   2.485   2.319   6.868  2.9658 -0.6294  1.5341
  844SOL    HW2 3218   2.541   2.301   6.728  0.2095  0.3752  0.2431
  845SOL     OW 3219   3.058   5.830   6.667 -0.9695  0.3911  0.2125
  845SOL    HW1 3220   3.112   5.754   6.685 -1.3536  0.4864  2.0139
  845SOL    HW2 3221   2.971   5.807   6.701 -0.8831  1.8987  1.6262
  846SOL     OW 3222   4.525   2.150   6.465 -0.5698 -0.0519 -0.2102
  846SOL    HW1 3223   4.492   2.195   6.543  2.1346 -1.1484  1.7295
  846SOL    HW2 3224   4.618   2.173   6.462 -0.6804  0.3705 -3.4945
  847SOL     OW 3225   4.202   6.940   0.890  0.0023 -0.1905  0.0250
  847SOL    HW1 3226   4.295   6.921   0.892 -0.1647 -1.0134  0.9389
  847SOL    HW2 3227   4.196   7.035   0.895  0.7828 -0.1397  0.0908
  848SOL     OW 3228   7.279   4.202   4.142 -0.6274  0.3836  0.2149
  848SOL    HW1 3229   7.255   4.113   4.168  0.2534  0.1594  0.2805
  848SOL    HW2 3230   7.371   4.211   4.166 -0.8403  1.5093  0.7223
  849SOL     OW 3231   4.867   4.782   5.686 -0.0590 -0.2034 -0.2845
  849SOL    HW1 3232   4.947   4.749   5.645 -1.1574 -2.5637 -0.6781
  849SOL    HW2 3233   4.807   4.798   5.612 -0.3056  0.6207  0.0767
  850SOL     OW 3234   6.759   0.668   4.933  0.2025  0.0932 -0.1329
  850SOL    HW1 3235   6.807   0.728   4.876  0.0492  2.0411  1.6570
  850SOL    HW2 3236   6.668   0.677   4.907  0.0071  1.7175  0.9556
  851SOL     OW 3237   4.884   4.537   2.543 -0.6189  0.3007  0.3377
  851SOL    HW1 3238   4.859   4.446   2.558 -0.6868 -0.0418 -1.6308
  851SOL    HW2 3239   4.958   4.533   2.483  0.3650  1.5238  1.3962
  852SOL     OW 3240   1.975   7.206   0.503 -0.0591  0.4033 -0.0931
  852SOL    HW1 3241   2.016   7.287   0.532  1.5429 -0.8786  1.4289
  852SOL    HW2 3242   1.947   7.162   0.583  1.6959 -1.8284 -0.5952
  853SOL     OW 3243   7.110   3.973   2.049 -0.1312 -0.7965 -0.1779
  853SOL    HW1 3244   7.132   4.053   2.098 -0.0952 -0.9509  0.0569
  853SOL    HW2 3245   7.014   3.970   2.052 -0.1449 -0.6367 -0.3889
  854SOL     OW 3246   7.544   1.100   4.079 -0.1862  0.0469 -0.4393
  854SOL    HW1 3247   7.588   1.170   4.030 -0.2889  0.0894 -0.4709
  854SOL    HW2 3248   7.553   1.023   4.023 -0.5832  0.1677 -0.6736
  855SOL     OW 3249   3.019   7.337   0.663  0.0328  0.1068 -0.0053
  855SOL    HW1 3250   2.953   7.387   0.712  0.0083 -0.6603  0.7624
  855SOL    HW2 3251   2.981   7.328   0.576 -0.2321  0.9007  0.0189
  856SOL     OW 3252   6.979   0.195   5.405 -0.0237  0.0081 -0.0798
  856SOL    HW1 3253   7.002   0.229   5.492 -0.7696  0.1320  0.0702
  856SOL    HW2 3254   7.064   0.169   5.367  0.1767 -1.7470  1.3907
  857SOL     OW 3255   6.327   4.430   4.100  0.2208 -0.3991  0.3321
  857SOL    HW1 3256   6.411   4.400   4.064  0.7120  0.0573  1.0789
  857SOL    HW2 3257   6.276   4.457   4.024 -0.0561 -2.6125 -0.3577
  858SOL     OW 3258   6.477   4.470   5.880 -0.2036 -0.4432  0.1064
  858SOL    HW1 3259   6.416   4.415   5.929 -2.1254  0.9830 -0.5894
  858SOL    HW2 3260   6.453   4.559   5.902  1.1206  0.1761 -0.8169
  859SOL     OW 3261   4.812   5.151   3.017  0.0973  0.3560  1.3231
  859SOL    HW1 3262   4.733   5.101   3.034  1.3512 -1.4552  2.1121
  859SOL    HW2 3263   4.868   5.092   2.967  0.8991  1.6587  0.6177
  860SOL     OW 3264   5.340   0.638   4.008  0.6695 -0.3126  0.3361
  860SOL    HW1 3265   5.324   0.733   4.010 -3.8025 -0.7820 -1.0411
  860SOL    HW2 3266   5.332   0.610   4.099 -0.1365  0.4246  0.5052
  861SOL     OW 3267   7.634   1.262   4.474 -0.2872  0.0219 -0.1812
  861SOL    HW1 3268   7.653   1.332   4.412  0.5417  0.1288  0.1782
  861SOL    HW2 3269   7.640   1.182   4.421  0.7496  0.0883 -0.1930
  862SOL     OW 3270   5.606   6.885   4.797 -0.4424  0.4433  0.0375
  862SOL    HW1 3271   5.685   6.834   4.782 -1.2828 -0.2454 -2.6072
  862SOL    HW2 3272   5.596   6.887   4.892  2.3955  0.0637  0.4268
  863SOL     OW 3273   7.255   0.483   6.633 -0.1796  0.2037 -0.4483
  863SOL    HW1 3274   7.283   0.568   6.668 -0.9013 -0.4912  2.0242
  863SOL    HW2 3275   7.164   0.474   6.662  0.4330 -2.1883  1.0422
  864SOL     OW 3276   2.462   5.404   2.017  0.2612  0.2166  0.0324
  864SOL    HW1 3277   2.438   5.352   2.094 -0.9549 -0.5775 -0.8416
  864SOL    HW2 3278   2.387   5.461   2.003  1.6419  2.3979  1.0697
  865SOL     OW 3279   5.344   5.018   1.475  0.1603  0.0384  0.0046
  865SOL    HW1 3280   5.415   4.955   1.461  0.0174  0.0351 -0.6846
  865SOL    HW2 3281   5.341   5.028   1.571  0.6171 -0.4992  0.0834
  866SOL     OW 3282   6.477   7.199   5.306 -0.0088  0.2522  0.3555
  866SOL    HW1 3283   6.478   7.182   5.212 -1.1403  0.5775  0.2656
  866SOL    HW2 3284   6.443   7.118   5.345 -0.6039  0.5010  0.3713
  867SOL     OW 3285   7.053   7.388   1.022 -0.0776 -0.4788  0.1192
  867SOL    HW1 3286   7.119   7.435   0.970 -1.0965  0.0704 -0.7221
  867SOL    HW2 3287   6.977   7.446   1.022 -0.8034 -1.3994  0.4948
  868SOL     OW 3288   7.318   1.477   2.614  0.5456 -0.1452 -0.5441
  868SOL    HW1 3289   7.371   1.397   2.609  0.9448  0.0830 -0.0505
  868SOL    HW2 3290   7.353   1.524   2.689  1.7224  1.4983 -2.0185
  869SOL     OW 3291   4.004   0.381   4.410  0.0248  0.2181 -0.0139
  869SOL    HW1 3292   3.965   0.337   4.335  0.6478 -0.7362  0.1927
  869SOL    HW2 3293   4.036   0.465   4.376 -1.1534  0.5059 -0.4285
  870SOL     OW 3294   3.362   1.838   2.192  0.5000 -0.6459 -0.1006
  870SOL    HW1 3295   3.360   1.888   2.273 -1.6702  0.8306 -0.9466
  870SOL    HW2 3296   3.375   1.903   2.123 -0.9183 -1.3684 -1.1331
  871SOL     OW 3297   2.859   5.899   0.839  0.0807 -0.6610 -0.0519
  871SOL    HW1 3298   2.893   5.955   0.770  0.0130 -0.2110  0.2721
  871SOL    HW2 3299   2.934   5.881   0.895 -0.3908  1.2573  1.2918
  872SOL     OW 3300   6.846   3.729   7.561 -0.1620  0.4205  0.6550
  872SOL    HW1 3301   6.782   3.794   7.590 -0.3040  0.0499  1.1925
  872SOL    HW2 3302   6.794   3.655   7.529 -0.0044  0.6924 -0.2589
  873SOL     OW 3303   7.685   2.230   4.883 -0.2301  0.1200  0.0005
  873SOL    HW1 3304   7.681   2.219   4.788  1.2557 -0.2884 -0.0385
  873SOL    HW2 3305   7.667   2.323   4.896  0.1361  0.3060 -0.7398
  874SOL     OW 3306   0.382   5.502   1.304  0.3246  0.1355  0.3572
  874SOL    HW1 3307   0.394   5.515   1.210  1.7565  0.5175  0.5701
  874SOL    HW2 3308   0.377   5.591   1.340  2.5094  0.0758  0.9338
  875SOL     OW 3309   4.113   7.356   2.829  0.4171 -0.0892  0.6139
  875SOL    HW1 3310   4.075   7.437   2.863  0.1911  0.0765 -0.0201
  875SOL    HW2 3311   4.205   7.360   2.857  0.5529  0.6706  0.0844
  876SOL     OW 3312   1.876   1.420   4.591  0.2247 -0.2065  0.7396
  876SOL    HW1 3313   1.951   1.363   4.574  0.4094 -0.4731  2.3145
  876SOL    HW2 3314   1.811   1.394   4.525  1.2099 -0.5094 -0.1433
  877SOL     OW 3315   3.326   0.649   0.458 -0.7606 -0.0493  0.5718
  877SOL    HW1 3316   3.278   0.695   0.389 -1.0438  0.7984  1.3260
  877SOL    HW2 3317   3.273   0.661   0.536 -0.6137 -1.2968  0.8844
  878SOL     OW 3318   4.841   3.017   4.714  0.1020  0.2785  0.5180
  878SOL    HW1 3319   4.922   3.062   4.688 -0.2876  0.5711 -0.2537
  878SOL    HW2 3320   4.838   2.940   4.657  2.3174 -2.5526  3.8563
  879SOL     OW 3321   7.020   1.489   2.811 -0.1296 -0.5243  0.1397
  879SOL    HW1 3322   6.948   1.539   2.774 -0.5681 -1.0788  0.2299
  879SOL    HW2 3323   7.021   1.408   2.760  0.5633 -0.4334  0.0013
  880SOL     OW 3324   7.708   3.582   4.077 -0.1912 -0.2564  0.2492
  880SOL    HW1 3325   7.712   3.615   3.988  0.8583  0.3914  0.5165
  880SOL    HW2 3326   7.618   3.552   4.088  0.3575 -3.1577 -2.0065
  881SOL     OW 3327   3.837   3.875   0.507  0.0508  0.2729 -0.2812
  881SOL    HW1 3328   3.767   3.866   0.443  0.9547 -1.4907 -1.0971
  881SOL    HW2 3329   3.864   3.966   0.501 -2.2503  1.0413  0.1832
  882SOL     OW 3330   7.089   2.415   4.311  0.0908  0.3993  0.1635
  882SOL    HW1 3331   7.113   2.477   4.243  0.9650 -0.2168 -0.1055
  882SOL    HW2 3332   7.100   2.463   4.393 -0.3672  0.9495 -0.0880
  883SOL     OW 3333   3.314   2.638   6.503  0.1409 -0.5480 -0.0600
  883SOL    HW1 3334   3.405   2.639   6.474 -0.7990  0.6720 -3.4107
  883SOL    HW2 3335   3.312   2.698   6.577  1.9550 -0.0466 -0.3590
  884SOL     OW 3336   4.564   6.287   4.581  0.4885 -0.2035  0.0177
  884SOL    HW1 3337   4.488   6.343   4.601 -0.6884 -1.5628 -0.4891
  884SOL    HW2 3338   4.564   6.222   4.651  0.2945 -1.0714 -0.7720
  885SOL     OW 3339   0.289   2.657   4.001 -0.1803  0.1963 -0.1438
  885SOL    HW1 3340   0.282   2.658   3.905 -1.2461  0.3109 -0.0699
  885SOL    HW2 3341   0.248   2.739   4.028  1.4793  0.9182  0.3437
  886SOL     OW 3342   7.310   6.500   7.744 -0.1639 -0.3747 -0.2988
  886SOL    HW1 3343   7.336   6.412   7.771  0.2991 -0.8518 -2.1885
  886SOL    HW2 3344   7.234   6.486   7.687 -0.3145  0.4858 -0.3280
  887SOL     OW 3345   1.327   4.799   4.314 -0.2524 -0.4121  0.0917
  887SOL    HW1 3346   1.401   4.748   4.346  0.8824 -0.3028 -2.1473
  887SOL    HW2 3347   1.253   4.738   4.313  0.3459 -1.1488  0.3086
  888SOL     OW 3348   0.422   6.098   5.172 -0.4264 -0.3586 -0.0549
  888SOL    HW1 3349   0.414   6.115   5.266 -1.5598 -0.4573 -0.1231
  888SOL    HW2 3350   0.344   6.137   5.134 -0.1401 -0.6101 -0.9210
  889SOL     OW 3351   4.116   2.442   1.052  0.0293 -0.9410  0.2034
  889SOL    HW1 3352   4.029   2.404   1.064  0.4001 -1.9500 -0.2326
  889SOL    HW2 3353   4.101   2.537   1.054 -1.4061 -1.0581 -1.8831
  890SOL     OW 3354   1.000   1.925   1.676  0.4389  0.1566  0.0043
  890SOL    HW1 3355   0.972   1.953   1.763  1.3859 -0.4530  0.5224
  890SOL    HW2 3356   1.041   2.002   1.638 -0.9289  0.7339 -0.3287
  891SOL     OW 3357   3.284   0.537   7.006  0.1152 -0.6747 -0.2740
  891SOL    HW1 3358   3.291   0.556   7.099  0.1715 -1.8799 -0.0051
  891SOL    HW2 3359   3.337   0.458   6.994  1.7860  0.5908 -1.7212
  892SOL     OW 3360   4.073   7.341   5.483 -1.1649 -0.0218 -0.2903
  892SOL    HW1 3361   4.136   7.413   5.491 -0.9752 -0.4203  3.1640
  892SOL    HW2 3362   3.989   7.382   5.501 -1.3460 -0.2802 -0.5485
  893SOL     OW 3363   6.891   5.893   0.003 -0.1153 -0.0148 -0.2421
  893SOL    HW1 3364   6.853   5.946  -0.068 -1.5483 -1.2689 -0.4761
  893SOL    HW2 3365   6.961   5.947   0.039 -1.0403  1.7119 -0.9359
  894SOL     OW 3366   0.511   2.666   0.254 -0.3236 -0.4651  0.5502
  894SOL    HW1 3367   0.532   2.604   0.184 -0.9922  0.7619 -0.7806
  894SOL    HW2 3368   0.581   2.731   0.251 -0.3626 -0.3969  1.0209
  895SOL     OW 3369   0.328   0.063   6.062 -0.4776 -0.1387 -0.5248
  895SOL    HW1 3370   0.416   0.028   6.059 -0.8094 -1.2267  1.0390
  895SOL    HW2 3371   0.292   0.046   5.975 -0.2191 -2.7121 -0.2095
  896SOL     OW 3372   3.111   4.926   5.415  0.4951 -0.1515 -0.3158
  896SOL    HW1 3373   3.154   4.937   5.330  2.0762  1.0006  0.5782
  896SOL    HW2 3374   3.071   5.011   5.433 -0.9260 -0.7738 -0.4600
  897SOL     OW 3375   4.459   1.098   5.079 -1.0966 -0.0424 -0.0313
  897SOL    HW1 3376   4.473   1.144   4.996  1.1923  0.0437  0.3412
  897SOL    HW2 3377   4.465   1.166   5.145  2.0414 -0.6612  0.5060
  898SOL     OW 3378   3.423   3.976   0.716 -0.5438 -0.3538 -0.6492
  898SOL    HW1 3379   3.423   3.883   0.693  0.3332 -0.1592 -1.5258
  898SOL    HW2 3380   3.491   3.984   0.783  0.0366 -0.2057 -1.2457
  899SOL     OW 3381   2.113   1.295   1.233  0.0646  0.1107  0.1622
  899SOL    HW1 3382   2.089   1.283   1.141  0.2553  1.3293 -0.0581
  899SOL    HW2 3383   2.030   1.315   1.277  0.0634  0.1606  0.1378
  900SOL     OW 3384   1.581   3.281   0.889 -0.0722  1.0370 -0.1152
  900SOL    HW1 3385   1.566   3.366   0.929  2.4606  0.5648  2.0921
  900SOL    HW2 3386   1.659   3.294   0.835  0.1236  0.2001 -0.0384
  901SOL     OW 3387   3.104   4.125   2.909 -0.1297 -0.2995  0.3394
  901SOL    HW1 3388   3.169   4.159   2.847 -1.9451  2.0468 -0.4355
  901SOL    HW2 3389   3.151   4.120   2.992  1.0405  1.5199 -0.1433
  902SOL     OW 3390   6.027   0.703   6.744 -0.4671  0.1713 -0.2425
  902SOL    HW1 3391   6.054   0.616   6.716 -3.6772 -0.4474 -1.8931
  902SOL    HW2 3392   5.966   0.688   6.816  0.8355  1.2897  1.1779
  903SOL     OW 3393   6.672   2.958   3.377  0.4378  0.1627  0.0441
  903SOL    HW1 3394   6.741   2.978   3.313 -2.1018  2.9677 -2.0922
  903SOL    HW2 3395   6.641   2.871   3.352  0.5342  0.5786 -1.6317
  904SOL     OW 3396   3.968   1.918   0.160  0.6463 -0.1657  0.4679
  904SOL    HW1 3397   3.998   1.906   0.070  0.4985  0.9458  0.2672
  904SOL    HW2 3398   3.963   1.829   0.195  1.4746 -0.5569 -0.3658
  905SOL     OW 3399   4.900   4.305   0.900  0.0957 -0.3136 -0.2163
  905SOL    HW1 3400   4.923   4.219   0.937  1.5511 -0.7369 -1.9501
  905SOL    HW2 3401   4.812   4.293   0.865 -0.0072 -0.8895  0.2149
  906SOL     OW 3402   7.014   6.711   3.384  0.1590  0.5720 -0.2555
  906SOL    HW1 3403   7.017   6.801   3.352 -0.2008  0.5278 -0.4197
  906SOL    HW2 3404   6.921   6.689   3.386  0.0503  0.9934  2.0173
  907SOL     OW 3405   1.310   5.770   5.367  0.2133 -1.0630 -0.1440
  907SOL    HW1 3406   1.346   5.737   5.449  2.6345  0.3039 -0.5621
  907SOL    HW2 3407   1.379   5.754   5.302 -0.7841 -0.2187 -1.4700
  908SOL     OW 3408   6.517   0.758   6.398  0.5878 -0.1096 -0.1746
  908SOL    HW1 3409   6.496   0.675   6.439 -0.0835 -0.8076 -1.8486
  908SOL    HW2 3410   6.606   0.778   6.428  0.0492 -0.4164  1.7791
  909SOL     OW 3411   6.456   3.117   7.699  0.3268  0.4158 -0.3188
  909SOL    HW1 3412   6.480   3.184   7.635 -0.2627  0.9538  0.0037
  909SOL    HW2 3413   6.535   3.064   7.709  0.7716  0.9964 -0.6663
  910SOL     OW 3414   6.957   4.063   7.084  0.2034 -0.1787 -0.5285
  910SOL    HW1 3415   7.021   3.993   7.071  1.0106  0.1363  1.4323
  910SOL    HW2 3416   6.932   4.057   7.176 -2.5893 -0.2278 -1.1896
  911SOL     OW 3417   2.972   3.963   1.912  0.5728  1.0196 -0.1117
  911SOL    HW1 3418   2.981   3.868   1.910  0.0316  0.9287 -3.6663
  911SOL    HW2 3419   2.890   3.978   1.960  1.8729 -0.0454  2.6702
  912SOL     OW 3420   2.530   4.420   6.562  0.6119  0.7919 -0.3868
  912SOL    HW1 3421   2.459   4.480   6.586  0.4460  1.1933 -1.8361
  912SOL    HW2 3422   2.606   4.476   6.547  1.5311  0.3040  1.9594
  913SOL     OW 3423   7.478   6.853   5.247  0.1261  0.2345  0.1572
  913SOL    HW1 3424   7.478   6.781   5.310 -1.4169 -0.0779 -0.1661
  913SOL    HW2 3425   7.401   6.838   5.193  0.3544  1.5644 -0.5880
  914SOL     OW 3426   0.914   3.038   2.792  0.3679  0.2801 -0.2951
  914SOL    HW1 3427   0.847   3.010   2.729  0.6357  0.3698 -0.6282
  914SOL    HW2 3428   0.960   3.109   2.747 -1.5431  2.6737  1.2722
  915SOL     OW 3429   0.882   6.875   7.759  0.4249  0.0269 -0.5521
  915SOL    HW1 3430   0.839   6.946   7.807  1.5004  0.6869 -0.5291
  915SOL    HW2 3431   0.846   6.795   7.797 -1.3779  0.5415 -1.1094
  916SOL     OW 3432   5.729   3.765   4.100  0.4339 -0.1138  0.8097
  916SOL    HW1 3433   5.661   3.760   4.167 -0.3546 -0.2625  0.0213
  916SOL    HW2 3434   5.747   3.673   4.077  0.9885 -0.0825  1.0809
  917SOL     OW 3435   2.128   5.045   4.730  0.0723  0.0982  0.0614
  917SOL    HW1 3436   2.196   5.111   4.746  1.2661 -1.1224  0.2154
  917SOL    HW2 3437   2.066   5.088   4.671  1.0020  1.2482 -0.1168
  918SOL     OW 3438   4.971   6.457   7.130  0.0331 -0.0995 -0.3367
  918SOL    HW1 3439   5.039   6.444   7.195 -1.3567 -1.1094  0.9901
  918SOL    HW2 3440   4.968   6.375   7.081  0.6387  0.4235 -1.2750
  919SOL     OW 3441   3.659   2.740   1.072 -0.0929 -0.7176  0.1585
  919SOL    HW1 3442   3.575   2.739   1.027 -0.9480  0.7545  1.6055
  919SOL    HW2 3443   3.708   2.668   1.033 -1.8474 -1.3287 -1.0385
  920SOL     OW 3444   4.278   0.554   0.180  0.1419  0.0847 -0.2532
  920SOL    HW1 3445   4.273   0.474   0.233  0.3505  1.1711  1.4960
  920SOL    HW2 3446   4.366   0.587   0.195 -0.3700  1.3340  0.1168
  921SOL     OW 3447   2.980   7.184   0.141 -0.2159 -0.0605  0.3090
  921SOL    HW1 3448   2.952   7.190   0.050  4.2851 -4.1972 -1.7829
  921SOL    HW2 3449   2.911   7.132   0.183 -2.3519  1.8935 -0.5717
  922SOL     OW 3450   4.724   6.316   1.302 -0.3848 -0.6425  0.6721
  922SOL    HW1 3451   4.638   6.281   1.328  0.0953 -1.1120  1.7151
  922SOL    HW2 3452   4.786   6.246   1.324  0.3844  0.0979  0.9356
  923SOL     OW 3453   1.647   4.501   5.462  0.3809 -0.2998 -0.2976
  923SOL    HW1 3454   1.717   4.547   5.508 -0.4629  0.7893 -0.0494
  923SOL    HW2 3455   1.610   4.566   5.403  0.5037 -1.2712 -1.4899
  924SOL     OW 3456   1.459   2.795   6.168  0.3394  0.2068 -0.3509
  924SOL    HW1 3457   1.555   2.799   6.171  0.3221  1.4065 -0.9053
  924SOL    HW2 3458   1.432   2.879   6.130 -0.9639  0.1584  0.3944
  925SOL     OW 3459   6.661   6.526   5.031 -0.5959 -0.2324 -0.0842
  925SOL    HW1 3460   6.755   6.516   5.046 -0.5552 -1.3626 -0.9167
  925SOL    HW2 3461   6.637   6.607   5.076  0.2191 -1.3618  2.5721
  926SOL     OW 3462   3.949   2.271   3.183 -0.0564 -0.0521  0.0397
  926SOL    HW1 3463   3.878   2.302   3.126  0.3819  1.1511  0.1095
  926SOL    HW2 3464   3.951   2.334   3.255  1.1301 -0.0190  0.0020
  927SOL     OW 3465   2.792   3.743   7.038 -0.2567 -0.4482 -0.5646
  927SOL    HW1 3466   2.822   3.802   6.969 -0.3050 -0.5746 -0.6926
  927SOL    HW2 3467   2.857   3.674   7.042 -0.8115 -1.0351 -1.2383
  928SOL     OW 3468   2.984   6.794   7.003  0.7139  0.2320 -0.0181
  928SOL    HW1 3469   3.047   6.749   7.059  0.6061 -0.0655 -0.1356
  928SOL    HW2 3470   3.015   6.778   6.914  1.4437  1.5231 -0.0276
  929SOL     OW 3471   1.272   7.434   0.011 -0.1772  0.2184 -0.0154
  929SOL    HW1 3472   1.317   7.496  -0.046  0.7955  0.3739  0.8800
  929SOL    HW2 3473   1.179   7.457   0.005 -0.1920 -0.2278 -2.0503
  930SOL     OW 3474   7.614   5.211   5.087 -0.6558 -0.4697  0.2230
  930SOL    HW1 3475   7.679   5.175   5.148  1.0780  0.2935 -1.0841
  930SOL    HW2 3476   7.614   5.150   5.014 -1.2250 -0.3075  0.0846
  931SOL     OW 3477   5.759   5.506   2.414  0.0182  0.1118  0.0934
  931SOL    HW1 3478   5.846   5.467   2.425  0.2179  0.1909 -1.0140
  931SOL    HW2 3479   5.767   5.593   2.454  0.5101  0.1864 -0.1576
  932SOL     OW 3480   4.380   6.966   5.729 -0.1381  0.6550  0.4270
  932SOL    HW1 3481   4.303   6.997   5.776  0.7930  1.2153  1.6240
  932SOL    HW2 3482   4.427   6.912   5.792 -0.0113 -0.4768 -0.5934
  933SOL     OW 3483   3.538   7.384   3.892 -0.6620 -0.0987  0.0818
  933SOL    HW1 3484   3.503   7.453   3.949  0.9240  1.8304 -1.1392
  933SOL    HW2 3485   3.612   7.348   3.942 -0.3318  0.4179 -0.0157
  934SOL     OW 3486   7.297   3.312   2.051 -0.3341  0.3865  0.0484
  934SOL    HW1 3487   7.393   3.309   2.055 -0.2778 -3.1532 -0.5555
  934SOL    HW2 3488   7.269   3.233   2.098 -2.9120  0.7198 -0.7834
  935SOL     OW 3489   2.127   7.228   6.886  0.0884 -0.4790  0.1657
  935SOL    HW1 3490   2.152   7.245   6.796  2.1517 -0.2670  0.7311
  935SOL    HW2 3491   2.127   7.132   6.894  0.7165 -0.4810  0.1506
  936SOL     OW 3492   1.919   5.473   2.226  0.5355 -0.1675 -0.3467
  936SOL    HW1 3493   1.966   5.555   2.208  0.0655  0.0418 -0.6640
  936SOL    HW2 3494   1.986   5.405   2.221  0.9858  0.2223  0.1957
  937SOL     OW 3495   6.968   4.993   7.248  0.0937  1.4319 -0.1217
  937SOL    HW1 3496   7.008   4.921   7.199 -0.4727  0.6908  0.4763
  937SOL    HW2 3497   6.995   4.978   7.339 -1.8610  0.6599  0.3751
  938SOL     OW 3498   4.384   6.490   1.119 -0.3161  0.3320 -0.4818
  938SOL    HW1 3499   4.349   6.578   1.131 -1.1461  0.1040 -1.1243
  938SOL    HW2 3500   4.401   6.458   1.207  0.7210  1.4142 -0.2660
  939SOL     OW 3501   5.597   1.390   0.120  0.7362 -0.1234 -0.1482
  939SOL    HW1 3502   5.554   1.305   0.129 -0.2999  0.2801 -0.9776
  939SOL    HW2 3503   5.677   1.382   0.171 -0.2498 -0.9670  1.3478
  940SOL     OW 3504   0.633   6.874   0.138 -0.0978 -1.0089 -0.2071
  940SOL    HW1 3505   0.642   6.779   0.147  0.0185 -0.8728  1.5886
  940SOL    HW2 3506   0.661   6.908   0.223 -0.6919  0.6003 -0.6284
  941SOL     OW 3507   3.114   0.723   3.418 -0.9930  0.5747 -0.5463
  941SOL    HW1 3508   3.044   0.774   3.376 -0.8890 -0.4100 -1.9904
  941SOL    HW2 3509   3.195   0.757   3.380 -0.8486  0.1127 -0.6576
  942SOL     OW 3510   1.317   7.535   3.900  0.5178 -0.2725 -0.5475
  942SOL    HW1 3511   1.383   7.599   3.874 -0.8457  2.1658  1.5191
  942SOL    HW2 3512   1.328   7.526   3.995 -0.7125 -1.5006 -0.4883
  943SOL     OW 3513   0.512   6.641   4.549  0.2909 -0.4721 -0.1020
  943SOL    HW1 3514   0.483   6.727   4.518 -0.7812 -0.9603 -0.5034
  943SOL    HW2 3515   0.584   6.617   4.490  0.1948 -0.1136 -0.3643
  944SOL     OW 3516   6.985   3.778   4.494  0.3148  0.3406 -0.2051
  944SOL    HW1 3517   6.894   3.809   4.496 -0.1956 -1.0643  1.6373
  944SOL    HW2 3518   6.992   3.731   4.411 -0.5808  0.6392 -0.4676
  945SOL     OW 3519   1.498   7.446   5.292 -0.3465  0.4026 -0.2819
  945SOL    HW1 3520   1.413   7.489   5.285 -1.3093 -1.2858  0.4941
  945SOL    HW2 3521   1.538   7.457   5.206 -2.0100 -0.0838 -1.1534
  946SOL     OW 3522   7.774   5.185   2.172  0.4996  0.0456 -0.3094
  946SOL    HW1 3523   7.804   5.095   2.158  0.0055 -0.0256 -0.9927
  946SOL    HW2 3524   7.788   5.201   2.265  3.7517  0.4499 -0.7784
  947SOL     OW 3525   1.678   7.222   1.897  0.5102 -0.3853 -0.2760
  947SOL    HW1 3526   1.737   7.215   1.822  0.1870  1.1661 -0.6903
  947SOL    HW2 3527   1.608   7.159   1.878  0.1684  0.3387 -1.5306
  948SOL     OW 3528   5.691   4.318   1.611  0.6386 -0.1979 -0.2923
  948SOL    HW1 3529   5.676   4.224   1.624  0.3307 -0.2536 -0.9750
  948SOL    HW2 3530   5.745   4.323   1.532  1.4130  0.1652  0.2515
  949SOL     OW 3531   0.609   4.494   3.007 -0.2421 -0.6446  1.0067
  949SOL    HW1 3532   0.648   4.548   3.076 -1.4858 -0.0828  1.3067
  949SOL    HW2 3533   0.574   4.417   3.054  1.1761 -1.5554  0.6339
  950SOL     OW 3534   5.121   5.243   3.121  0.5195  0.1237 -0.2171
  950SOL    HW1 3535   5.101   5.154   3.092 -2.4564  0.6526 -0.1569
  950SOL    HW2 3536   5.130   5.236   3.217  2.9023 -0.4355 -0.4143
  951SOL     OW 3537   3.687   6.376   4.028  0.3790 -0.6843  0.0123
  951SOL    HW1 3538   3.625   6.447   4.045  0.3557 -0.8321  0.5846
  951SOL    HW2 3539   3.631   6.300   4.010  0.4003 -0.6634 -0.1426
  952SOL     OW 3540   2.608   4.384   7.550  0.4009 -0.0180 -0.5858
  952SOL    HW1 3541   2.540   4.317   7.561  0.2860  0.2334  0.3209
  952SOL    HW2 3542   2.622   4.389   7.455  0.6029 -1.5235 -0.6591
  953SOL     OW 3543   1.200   1.750   5.661 -0.3901  0.9599  0.2596
  953SOL    HW1 3544   1.247   1.760   5.578 -0.5153  0.1491  0.0837
  953SOL    HW2 3545   1.109   1.773   5.640 -0.9729 -1.6765 -0.4844
  954SOL     OW 3546   3.676   3.176   4.457 -0.3205 -0.1483 -0.3439
  954SOL    HW1 3547   3.747   3.138   4.405  0.2802  1.6811 -0.9413
  954SOL    HW2 3548   3.615   3.210   4.392 -1.4736 -1.1750  0.1704
  955SOL     OW 3549   1.103   3.985   1.276 -0.4095 -0.2686 -0.1781
  955SOL    HW1 3550   1.193   3.952   1.280 -0.9693 -1.7952  0.5795
  955SOL    HW2 3551   1.112   4.076   1.245  1.1593 -1.3054 -3.2277
  956SOL     OW 3552   5.033   3.603   3.631 -0.3223 -0.1427 -0.1335
  956SOL    HW1 3553   5.078   3.521   3.614  0.7102  0.0204  1.5370
  956SOL    HW2 3554   4.951   3.577   3.674 -0.5212 -0.3421 -0.6353
  957SOL     OW 3555   6.711   7.006   7.480 -0.5951  0.3354  0.0431
  957SOL    HW1 3556   6.669   7.052   7.553 -0.1227  0.4989  0.2125
  957SOL    HW2 3557   6.673   6.918   7.483 -1.2551  0.6098 -0.0782
  958SOL     OW 3558   5.193   3.991   6.818 -0.3492 -0.4565 -0.1388
  958SOL    HW1 3559   5.167   4.036   6.738  0.2896  0.9025  0.3794
  958SOL    HW2 3560   5.222   3.904   6.789 -0.7937 -0.2339 -1.2814
  959SOL     OW 3561   6.186   4.705   6.393 -0.7290 -0.2949 -0.2376
  959SOL    HW1 3562   6.155   4.623   6.355  0.1160  0.3250 -2.3955
  959SOL    HW2 3563   6.128   4.772   6.356 -1.2849  0.1320  1.3468
  960SOL     OW 3564   4.140   7.471   5.133 -0.3280  0.2424  0.0197
  960SOL    HW1 3565   4.141   7.512   5.047 -0.4459  0.8274  0.2937
  960SOL    HW2 3566   4.120   7.542   5.193 -1.8640 -0.4423  0.3657
  961SOL     OW 3567   5.692   3.384   6.102  0.2291  0.1682 -0.2917
  961SOL    HW1 3568   5.647   3.392   6.018 -0.4758 -0.1312  0.0453
  961SOL    HW2 3569   5.778   3.422   6.087  0.3654 -0.5205 -1.3458
  962SOL     OW 3570   7.163   2.474   1.971 -0.0474 -0.4390 -0.3692
  962SOL    HW1 3571   7.122   2.398   1.929 -0.6515 -0.1330 -0.3481
  962SOL    HW2 3572   7.248   2.442   2.001 -0.2528 -1.0790 -0.4569
  963SOL     OW 3573   3.142   5.258   1.987  0.1314  0.1165  0.2516
  963SOL    HW1 3574   3.206   5.284   1.920  1.1889 -0.5786  0.9581
  963SOL    HW2 3575   3.164   5.167   2.007 -1.8913 -0.5566 -0.3596
  964SOL     OW 3576   5.835   7.434   5.899 -0.0754  0.3018  0.1419
  964SOL    HW1 3577   5.840   7.455   5.806  0.2121  1.5121  0.4081
  964SOL    HW2 3578   5.825   7.519   5.942  0.6699 -0.1634  1.2723
  965SOL     OW 3579   1.121   3.663   6.471 -0.3720 -0.2965 -0.0588
  965SOL    HW1 3580   1.067   3.626   6.400  0.7385  0.1371 -1.1607
  965SOL    HW2 3581   1.201   3.611   6.469  0.2136  0.5858 -0.0160
  966SOL     OW 3582   5.771   4.271   1.018  0.3818 -0.2722 -0.0542
  966SOL    HW1 3583   5.721   4.244   1.095 -0.7875 -1.0924 -1.0630
  966SOL    HW2 3584   5.807   4.190   0.983  0.2905  0.0023 -0.7869
  967SOL     OW 3585   1.901   0.694   7.489 -0.1043  0.5410 -0.0789
  967SOL    HW1 3586   1.987   0.718   7.523 -0.0862  1.1145 -0.5262
  967SOL    HW2 3587   1.912   0.605   7.456 -0.3490 -0.4441  2.2449
  968SOL     OW 3588   2.543   7.227   4.832  0.1596  0.2281  0.0921
  968SOL    HW1 3589   2.509   7.165   4.767  2.1485 -0.2002 -0.6309
  968SOL    HW2 3590   2.574   7.172   4.904  1.7247  0.3263 -0.4517
  969SOL     OW 3591   3.465   3.468   1.263 -0.4324  0.4398 -0.1403
  969SOL    HW1 3592   3.398   3.400   1.270 -0.7545  0.7022 -0.6465
  969SOL    HW2 3593   3.524   3.437   1.195 -0.1365  0.2981  0.1762
  970SOL     OW 3594   5.506   6.118   5.100  0.2001  0.6997  0.4952
  970SOL    HW1 3595   5.529   6.206   5.069 -1.5122  0.6015 -1.2861
  970SOL    HW2 3596   5.419   6.128   5.138 -0.0845 -0.2309  0.1269
  971SOL     OW 3597   2.929   2.913   3.383 -0.1303  1.0357  0.5315
  971SOL    HW1 3598   2.869   2.846   3.418  1.0453 -0.6167 -0.4711
  971SOL    HW2 3599   2.992   2.927   3.454 -1.7541  2.9943  1.7046
  972SOL     OW 3600   4.269   2.835   6.018  0.3013 -0.1479 -0.5699
  972SOL    HW1 3601   4.237   2.753   6.057  1.3118  1.6168  4.7399
  972SOL    HW2 3602   4.364   2.827   6.020  0.4297  1.2639  0.5298
  973SOL     OW 3603   4.383   2.397   3.190 -0.0790  0.5237  0.5322
  973SOL    HW1 3604   4.304   2.350   3.165 -0.3034  0.7481  0.8110
  973SOL    HW2 3605   4.453   2.331   3.186 -0.5935 -0.1779  2.1846
  974SOL     OW 3606   6.644   2.293   2.132  0.1420 -0.3676 -0.0113
  974SOL    HW1 3607   6.722   2.286   2.077  0.7105  1.7483  0.4283
  974SOL    HW2 3608   6.634   2.206   2.171  1.2294 -1.1746 -1.4272
  975SOL     OW 3609   6.131   6.418   6.795 -0.0233  0.5388  0.2652
  975SOL    HW1 3610   6.045   6.459   6.792 -0.9405 -1.2851 -1.5380
  975SOL    HW2 3611   6.124   6.353   6.865 -0.1665  0.3508  0.0811
  976SOL     OW 3612   1.157   0.812   4.398 -0.0281 -0.0385 -0.5693
  976SOL    HW1 3613   1.234   0.766   4.431  0.4186 -0.0465 -1.5903
  976SOL    HW2 3614   1.192   0.894   4.361 -0.7885  1.0933  1.0881
  977SOL     OW 3615   6.740   3.122   7.470  0.4485  0.7242 -0.0489
  977SOL    HW1 3616   6.734   3.196   7.531  0.6211  0.4311  0.3237
  977SOL    HW2 3617   6.744   3.045   7.526  0.9258  0.4715 -0.4249
  978SOL     OW 3618   7.226   4.909   2.022 -0.1164 -0.0777 -0.2495
  978SOL    HW1 3619   7.232   4.960   2.103  2.1198 -1.5184  0.6016
  978SOL    HW2 3620   7.146   4.858   2.032  0.6200 -0.9795  1.5869
  979SOL     OW 3621   5.332   1.719   4.230 -0.6171  0.6010 -0.1970
  979SOL    HW1 3622   5.362   1.664   4.302 -2.3183  0.2947  0.3328
  979SOL    HW2 3623   5.394   1.792   4.228  0.7065 -0.4775  0.1567
  980SOL     OW 3624   0.635   2.936   6.506  0.0306  0.0811  0.2015
  980SOL    HW1 3625   0.641   2.898   6.594 -2.4083  1.3784  1.0153
  980SOL    HW2 3626   0.687   3.016   6.512 -1.7383  1.2154  1.1490
  981SOL     OW 3627   1.824   1.831   5.223  0.3791 -0.4376 -0.3052
  981SOL    HW1 3628   1.915   1.841   5.194  1.0474 -0.7122  1.5726
  981SOL    HW2 3629   1.815   1.892   5.296 -0.3933 -1.7258  0.7075
  982SOL     OW 3630   3.765   5.990   4.574 -0.0686  0.2152 -0.4618
  982SOL    HW1 3631   3.751   5.903   4.610  0.5397 -0.9421 -2.7775
  982SOL    HW2 3632   3.830   5.977   4.505  1.8858  2.9337  0.6741
  983SOL     OW 3633   1.928   1.075   6.313 -0.0832 -0.3758  0.0785
  983SOL    HW1 3634   1.925   1.100   6.220  0.8075 -2.6477 -0.6314
  983SOL    HW2 3635   2.014   1.034   6.324 -0.0531  0.1192  2.0031
  984SOL     OW 3636   1.134   3.357   6.426 -0.0548  0.4445 -0.1238
  984SOL    HW1 3637   1.216   3.397   6.398  1.9949 -2.7897  0.7702
  984SOL    HW2 3638   1.066   3.415   6.390  2.4241  5.4414  2.1687
  985SOL     OW 3639   2.396   4.452   0.750 -0.0291  0.2657  0.1478
  985SOL    HW1 3640   2.473   4.457   0.693 -0.7970 -2.2124 -1.2477
  985SOL    HW2 3641   2.424   4.496   0.831  3.7590 -2.4472  0.6151
  986SOL     OW 3642   4.534   4.455   1.123  0.1919  0.0284  0.1743
  986SOL    HW1 3643   4.614   4.507   1.129 -0.0089  0.2617  0.9439
  986SOL    HW2 3644   4.464   4.520   1.120 -0.0935 -0.1663  1.6410
  987SOL     OW 3645   5.174   3.766   4.420 -1.0566 -0.2178  0.4002
  987SOL    HW1 3646   5.201   3.770   4.328  2.7727 -2.2373  1.2299
  987SOL    HW2 3647   5.202   3.850   4.457  1.1171 -0.9393  0.4861
  988SOL     OW 3648   0.279   5.764   3.271  0.1554 -0.1197  0.0339
  988SOL    HW1 3649   0.230   5.841   3.300 -1.2970 -0.7759 -0.5713
  988SOL    HW2 3650   0.296   5.779   3.178  1.7619  0.4067  0.3751
  989SOL     OW 3651   6.438   5.334   4.050  0.5870  0.2689 -0.0866
  989SOL    HW1 3652   6.349   5.325   4.083  0.6893  1.8511  0.7288
  989SOL    HW2 3653   6.433   5.304   3.960 -1.1311  1.6902 -0.5241
  990SOL     OW 3654   5.328   6.462   3.132  0.2838  0.5357 -0.1836
  990SOL    HW1 3655   5.314   6.399   3.202 -0.6254  0.6764 -0.2211
  990SOL    HW2 3656   5.252   6.451   3.074  1.1660  0.1989 -1.3201
  991SOL     OW 3657   1.397   2.515   2.053 -0.1641 -0.3138  0.3132
  991SOL    HW1 3658   1.444   2.590   2.018  1.8655 -0.6247  2.1697
  991SOL    HW2 3659   1.342   2.552   2.123  0.5279 -0.4614  0.9521
  992SOL     OW 3660   5.294   4.437   1.830  0.3254 -0.5535  0.4554
  992SOL    HW1 3661   5.329   4.385   1.758  0.5453 -0.9883  0.8693
  992SOL    HW2 3662   5.308   4.528   1.803 -0.7759 -0.6796 -0.6206
  993SOL     OW 3663   6.352   3.494   4.344 -0.2249  0.9929  0.2746
  993SOL    HW1 3664   6.347   3.559   4.273 -1.5893  0.4358 -0.1718
  993SOL    HW2 3665   6.317   3.414   4.305 -0.9488  0.6586  1.5678
  994SOL     OW 3666   6.583   4.127   5.736 -0.1649 -0.6084 -0.0969
  994SOL    HW1 3667   6.519   4.095   5.800  0.2270 -1.2024 -0.0034
  994SOL    HW2 3668   6.596   4.054   5.675  0.1075 -0.3420 -0.3651
  995SOL     OW 3669   7.109   3.179   6.591 -0.3840 -0.3951 -0.8571
  995SOL    HW1 3670   7.035   3.227   6.629 -0.1306 -1.1457  0.6878
  995SOL    HW2 3671   7.156   3.144   6.667  0.0534 -2.1620 -1.8825
  996SOL     OW 3672   5.069   6.177   7.652  0.2223  0.2423 -0.0479
  996SOL    HW1 3673   5.033   6.219   7.574  2.1446  1.4791 -0.3147
  996SOL    HW2 3674   5.003   6.192   7.720 -1.5509 -0.9644 -1.3789
  997SOL     OW 3675   2.493   2.100   1.018  0.7895 -0.3585  0.1939
  997SOL    HW1 3676   2.509   2.145   1.101  0.3388 -1.6370  0.9932
  997SOL    HW2 3677   2.562   2.034   1.012  1.2372  0.1678 -0.8058
  998SOL     OW 3678   4.705   4.290   0.105 -0.3156  0.1322  0.4255
  998SOL    HW1 3679   4.696   4.366   0.048 -2.7674  2.3540  3.4592
  998SOL    HW2 3680   4.641   4.227   0.071 -1.9302  1.5208  0.7653
  999SOL     OW 3681   3.723   2.619   5.096 -0.3553 -0.0056  0.2117
  999SOL    HW1 3682   3.784   2.667   5.152  0.1509  0.1140 -0.4329
  999SOL    HW2 3683   3.727   2.529   5.127  0.5982 -0.1149 -0.1951
 1000SOL     OW 3684   4.925   2.130   1.056 -0.1739  0.3771  0.3555
 1000SOL    HW1 3685   4.991   2.063   1.040  0.1073  0.6161  0.5188
 1000SOL    HW2 3686   4.842   2.085   1.042  0.0206  0.0716  0.1677
 1001SOL     OW 3687   7.435   3.617   6.203 -0.4441  0.1230 -0.2272
 1001SOL    HW1 3688   7.426   3.581   6.115  0.2193  1.7150 -0.9912
 1001SOL    HW2 3689   7.509   3.570   6.241 -0.5827 -0.4065 -0.6020
 1002SOL     OW 3690   5.661   5.321   3.457 -0.0024  0.1466 -0.5413
 1002SOL    HW1 3691   5.706   5.387   3.405  1.8681  0.0915  0.8799
 1002SOL    HW2 3692   5.592   5.369   3.502  1.6556  1.3284  0.8799
 1003SOL     OW 3693   4.972   5.618   6.648  0.8041 -0.2025  0.1860
 1003SOL    HW1 3694   4.892   5.571   6.670  1.1436 -1.0347 -0.3050
 1003SOL    HW2 3695   4.975   5.692   6.708 -0.6769  0.2182 -0.2222
 1004SOL     OW 3696   5.628   6.019   1.056  0.0074 -0.2763  0.0101
 1004SOL    HW1 3697   5.699   5.960   1.033 -0.0999 -0.9780  1.4060
 1004SOL    HW2 3698   5.639   6.036   1.149 -0.7014  0.9164 -0.0967
 1005SOL     OW 3699   6.889   6.874   1.775 -0.3760 -0.7258  0.4374
 1005SOL    HW1 3700   6.819   6.823   1.817 -0.1883 -0.4231  1.1379
 1005SOL    HW2 3701   6.961   6.873   1.838  0.4825 -1.5308 -0.5267
 1006SOL     OW 3702   5.786   7.107   1.392  0.2754 -0.2074 -0.5075
 1006SOL    HW1 3703   5.829   7.164   1.328  0.4871  0.2016 -0.0043
 1006SOL    HW2 3704   5.831   7.125   1.475 -1.2673  0.6760  0.1742
 1007SOL     OW 3705   3.743   4.436   1.798  0.3238 -0.1359  0.0020
 1007SOL    HW1 3706   3.821   4.490   1.812  0.3603 -0.2968  0.4469
 1007SOL    HW2 3707   3.761   4.355   1.846 -0.3775  0.0801  0.6517
 1008SOL     OW 3708   4.199   1.198   2.420  0.7430  0.5579  0.5468
 1008SOL    HW1 3709   4.165   1.280   2.458 -0.3804  0.4115 -0.0891
 1008SOL    HW2 3710   4.133   1.132   2.443  0.6563  0.2273 -0.5885
 1009SOL     OW 3711   7.635   5.735   5.656 -0.3653 -0.6962 -0.6881
 1009SOL    HW1 3712   7.637   5.778   5.570 -0.7989 -0.4491 -0.5811
 1009SOL    HW2 3713   7.595   5.650   5.639  0.2305 -0.9473 -0.8530
 1010SOL     OW 3714   6.241   0.184   1.525 -0.3682  1.2168 -0.7595
 1010SOL    HW1 3715   6.265   0.232   1.604 -2.9432  0.8757  0.3207
 1010SOL    HW2 3716   6.279   0.097   1.537 -1.5916  0.8351  0.6558
 1011SOL     OW 3717   6.380   3.377   7.776 -0.2161 -0.3889  0.8585
 1011SOL    HW1 3718   6.436   3.299   7.770 -1.9052 -1.6291  0.4252
 1011SOL    HW2 3719   6.293   3.343   7.797 -0.9145  1.4421  1.1472
 1012SOL     OW 3720   0.582   0.948   4.997  0.0272  0.6974 -0.6129
 1012SOL    HW1 3721   0.515   1.008   5.028 -2.5841 -1.0457 -2.3848
 1012SOL    HW2 3722   0.625   0.994   4.925 -1.0554  0.9871 -1.0999
 1013SOL     OW 3723   7.338   6.937   6.539 -0.4822  0.6743 -0.1908
 1013SOL    HW1 3724   7.258   6.917   6.490  0.3518 -0.9979 -0.9472
 1013SOL    HW2 3725   7.403   6.874   6.506  0.1295 -0.6069  3.0806
 1014SOL     OW 3726   2.369   5.508   6.045  0.2698  0.6221 -0.3044
 1014SOL    HW1 3727   2.355   5.600   6.068 -1.3876  0.4054 -0.2698
 1014SOL    HW2 3728   2.363   5.505   5.950 -1.3677  0.3620 -0.2334
 1015SOL     OW 3729   5.379   1.154   1.094 -0.0066 -0.0688  0.0270
 1015SOL    HW1 3730   5.442   1.101   1.045 -0.3477 -1.7483  1.3305
 1015SOL    HW2 3731   5.294   1.115   1.074 -0.2644 -0.0400  1.0361
 1016SOL     OW 3732   4.728   5.534   7.208 -0.7724 -0.1523  0.0273
 1016SOL    HW1 3733   4.815   5.494   7.217  0.1520  1.8495  0.6564
 1016SOL    HW2 3734   4.714   5.541   7.114 -1.2605 -2.4321 -0.1344
 1017SOL     OW 3735   2.095   6.303   4.279  0.7576  0.0198 -0.7999
 1017SOL    HW1 3736   2.040   6.226   4.294 -1.7397  1.8521  0.1044
 1017SOL    HW2 3737   2.106   6.306   4.184  1.5964 -1.8264 -0.8187
 1018SOL     OW 3738   5.219   2.583   3.832 -0.2932  0.2949 -0.6572
 1018SOL    HW1 3739   5.233   2.638   3.755 -0.5342 -0.7794 -1.5038
 1018SOL    HW2 3740   5.153   2.630   3.883 -0.5583  0.7526 -1.4000
 1019SOL     OW 3741   0.257   2.376   4.973 -0.2852 -0.8043 -0.6517
 1019SOL    HW1 3742   0.349   2.358   4.950 -0.0438  0.5161 -0.7672
 1019SOL    HW2 3743   0.208   2.350   4.895  0.1802  0.1763 -1.2910
 1020SOL     OW 3744   3.562   4.389   7.013  0.4325  0.7356 -0.2457
 1020SOL    HW1 3745   3.545   4.298   6.989  2.4147  0.0858  0.5804
 1020SOL    HW2 3746   3.516   4.400   7.097 -0.1013  0.6147 -0.5180
 1021SOL     OW 3747   2.732   3.417   4.614  0.4176 -0.1155  0.8654
 1021SOL    HW1 3748   2.738   3.485   4.547 -0.1121  0.9871  1.8878
 1021SOL    HW2 3749   2.788   3.347   4.583  2.4808  1.5307  0.6131
 1022SOL     OW 3750   0.214   2.207   3.089  1.3815 -0.1834  0.0245
 1022SOL    HW1 3751   0.206   2.129   3.035  1.8581 -0.3006  0.1259
 1022SOL    HW2 3752   0.138   2.260   3.064  1.5956 -0.2320 -0.7579
 1023SOL     OW 3753   2.662   0.494   3.920  0.9283 -0.1547  0.4469
 1023SOL    HW1 3754   2.705   0.456   3.997 -1.7895 -0.6662  1.8356
 1023SOL    HW2 3755   2.623   0.575   3.951  1.6576  0.8095 -1.0232
 1024SOL     OW 3756   1.375   3.945   2.947  0.5195 -0.1305 -0.0017
 1024SOL    HW1 3757   1.282   3.934   2.926 -0.2215  1.9252  1.7636
 1024SOL    HW2 3758   1.393   3.880   3.015  0.3523 -0.4809 -0.2921
 1025SOL     OW 3759   7.610   1.436   7.463  0.5660 -0.1449  0.0280
 1025SOL    HW1 3760   7.688   1.441   7.407 -0.3716 -2.5749 -1.7008
 1025SOL    HW2 3761   7.549   1.380   7.414 -2.5596  2.0974  1.0014
 1026SOL     OW 3762   7.454   0.074   1.446 -0.8203  0.6188  0.4467
 1026SOL    HW1 3763   7.398   0.036   1.378 -0.6953 -1.5465  1.4614
 1026SOL    HW2 3764   7.462   0.004   1.511 -0.0766  2.2614  2.1803
 1027SOL     OW 3765   2.115   0.127   2.330 -0.0843 -0.2678 -0.2864
 1027SOL    HW1 3766   2.150   0.089   2.249  2.5335 -1.8510  1.4564
 1027SOL    HW2 3767   2.138   0.220   2.325  2.6080 -0.8510 -0.2099
 1028SOL     OW 3768   4.719   3.186   0.450  0.1763 -0.1790  0.3120
 1028SOL    HW1 3769   4.646   3.185   0.388  0.1897 -0.0862  0.2937
 1028SOL    HW2 3770   4.713   3.102   0.496  0.7682 -0.6855 -0.5183
 1029SOL     OW 3771   4.375   0.586   0.874  0.1276  0.4777 -0.0247
 1029SOL    HW1 3772   4.326   0.530   0.934  1.5110  0.2165  0.9224
 1029SOL    HW2 3773   4.355   0.675   0.904  1.2921  0.3387  1.2950
 1030SOL     OW 3774   0.934   1.828   7.043 -0.1147 -0.3016  0.7700
 1030SOL    HW1 3775   0.901   1.853   7.129  0.1893 -0.6882  1.0050
 1030SOL    HW2 3776   0.940   1.733   7.047 -1.3522 -0.4297 -0.1419
 1031SOL     OW 3777   6.194   5.280   3.593 -0.0483 -0.2044  0.4129
 1031SOL    HW1 3778   6.146   5.265   3.511  1.8835  0.4931 -0.9277
 1031SOL    HW2 3779   6.126   5.301   3.657 -1.7124 -1.7198 -0.7527
 1032SOL     OW 3780   2.417   6.761   0.078 -0.3940 -0.2929  0.1623
 1032SOL    HW1 3781   2.340   6.710   0.053 -0.6778  0.9425 -1.6176
 1032SOL    HW2 3782   2.471   6.699   0.127 -1.5276 -1.7935 -0.4102
 1033SOL     OW 3783   1.522   4.688   3.412  0.6592 -0.4155 -0.3399
 1033SOL    HW1 3784   1.574   4.654   3.484  2.6695  0.2511 -1.3946
 1033SOL    HW2 3785   1.574   4.669   3.334 -1.3493 -0.9470 -1.6297
 1034SOL     OW 3786   3.369   4.437   4.857  0.5946 -0.2971  0.7296
 1034SOL    HW1 3787   3.365   4.382   4.779  0.8794  2.9064 -1.7825
 1034SOL    HW2 3788   3.311   4.395   4.920  0.9093 -3.4361 -0.9052
 1035SOL     OW 3789   6.841   7.645   4.379 -0.1961 -0.8688 -0.0818
 1035SOL    HW1 3790   6.758   7.634   4.332  0.0520  2.5027 -1.6185
 1035SOL    HW2 3791   6.817   7.691   4.459  0.0365 -1.4339  0.3206
 1036SOL     OW 3792   3.905   2.773   3.644 -0.3194 -0.1460 -0.2209
 1036SOL    HW1 3793   3.860   2.854   3.666  0.9075  0.0736  1.7258
 1036SOL    HW2 3794   3.972   2.799   3.580 -0.6106  0.1699 -0.4006
 1037SOL     OW 3795   0.103   3.821   5.249  0.3772 -0.1953  0.0319
 1037SOL    HW1 3796   0.154   3.863   5.319 -1.4752  0.1412  1.2322
 1037SOL    HW2 3797   0.015   3.857   5.258 -0.5539 -2.1424 -0.8115
 1038SOL     OW 3798   2.436   3.539   1.587 -0.3289  0.4732 -0.0129
 1038SOL    HW1 3799   2.360   3.556   1.642 -0.1837  2.1396 -0.2640
 1038SOL    HW2 3800   2.401   3.493   1.511 -0.6228 -1.2941  1.1503
 1039SOL     OW 3801   0.026   5.147   4.775 -0.4273  0.5076 -0.2729
 1039SOL    HW1 3802  -0.008   5.105   4.854 -0.1864 -0.0467 -0.4516
 1039SOL    HW2 3803   0.048   5.073   4.717  1.5796  0.7951  0.0510
 1040SOL     OW 3804   2.403   1.357   1.160  0.4935 -0.3722 -0.8742
 1040SOL    HW1 3805   2.422   1.297   1.088  1.1553  0.1135 -1.1113
 1040SOL    HW2 3806   2.318   1.328   1.194  1.9850 -3.1766  0.8002
 1041SOL     OW 3807   6.291   3.820   6.419  0.1404 -0.2955  0.1533
 1041SOL    HW1 3808   6.301   3.781   6.506 -1.6472  0.1165  0.5846
 1041SOL    HW2 3809   6.197   3.833   6.409  0.1645 -1.3673 -2.3337
 1042SOL     OW 3810   7.451   3.165   4.203  0.6035 -0.0370  0.1102
 1042SOL    HW1 3811   7.521   3.134   4.260  0.1873 -0.3219  0.4739
 1042SOL    HW2 3812   7.371   3.146   4.251  0.0433 -2.7426 -1.6686
 1043SOL     OW 3813   7.100   6.747   2.840 -0.2857 -0.2472 -0.9396
 1043SOL    HW1 3814   7.105   6.815   2.908  0.2113 -0.3488 -0.8731
 1043SOL    HW2 3815   7.131   6.791   2.761 -1.2294 -0.0154 -1.1974
 1044SOL     OW 3816   1.166   6.304   0.018  0.2827 -0.1121  0.2863
 1044SOL    HW1 3817   1.235   6.340  -0.037 -0.3216 -0.2011 -0.5437
 1044SOL    HW2 3818   1.189   6.333   0.107  1.8721 -0.9117  0.1632
 1045SOL     OW 3819   2.973   0.138   4.262  0.6233  1.0256 -0.0702
 1045SOL    HW1 3820   2.947   0.224   4.295 -0.1809  0.4925  0.7316
 1045SOL    HW2 3821   3.066   0.132   4.281  0.8908  2.0547 -0.9213
 1046SOL     OW 3822   5.206   4.637   3.125  0.5265  0.1316  0.0819
 1046SOL    HW1 3823   5.168   4.709   3.074 -0.2387  0.5341  1.1724
 1046SOL    HW2 3824   5.156   4.560   3.098 -0.5474  0.5107  0.8872
 1047SOL     OW 3825   2.322   3.385   5.117 -0.2841  0.3889 -0.2675
 1047SOL    HW1 3826   2.328   3.463   5.172 -2.5319  0.2902  0.2389
 1047SOL    HW2 3827   2.412   3.361   5.098  0.5043  1.7389  1.5284
 1048SOL     OW 3828   2.149   6.277   5.342 -0.0858 -0.3423 -0.0737
 1048SOL    HW1 3829   2.057   6.303   5.343  0.3096  1.1832  0.6264
 1048SOL    HW2 3830   2.155   6.211   5.273 -2.0764 -1.9884  1.1927
 1049SOL     OW 3831   7.397   2.835   3.120  0.3947 -0.1277 -0.3793
 1049SOL    HW1 3832   7.467   2.895   3.146  0.0657  1.0350 -2.0254
 1049SOL    HW2 3833   7.317   2.875   3.154  0.4295 -1.2256  1.1084
 1050SOL     OW 3834   7.029   1.588   2.209  0.2521 -0.8999  0.0987
 1050SOL    HW1 3835   7.039   1.520   2.276  2.8800 -1.0938 -0.4026
 1050SOL    HW2 3836   6.975   1.546   2.141  0.1320 -1.7575  0.7034
 1051SOL     OW 3837   3.456   4.133   6.917 -0.4724  0.1844 -1.0603
 1051SOL    HW1 3838   3.510   4.090   6.984  0.3488  0.1284 -1.7342
 1051SOL    HW2 3839   3.371   4.146   6.959 -0.1083 -0.2458 -0.1585
 1052SOL     OW 3840   4.617   0.758   4.087 -0.3821 -0.1740  0.4345
 1052SOL    HW1 3841   4.634   0.728   3.998  1.3125 -3.1035  1.5692
 1052SOL    HW2 3842   4.703   0.784   4.120 -0.8589  0.1911  1.4051
 1053SOL     OW 3843   2.029   1.482   6.844 -0.0242 -0.2870  0.2850
 1053SOL    HW1 3844   2.122   1.504   6.845 -0.1833  0.6044 -1.1671
 1053SOL    HW2 3845   2.023   1.404   6.789 -0.3957  1.2956 -2.0298
 1054SOL     OW 3846   0.988   5.381   4.895 -0.7468 -0.4557 -0.5253
 1054SOL    HW1 3847   0.958   5.353   4.809 -0.6741  1.1351 -1.1108
 1054SOL    HW2 3848   1.083   5.384   4.887 -0.6823 -1.2200 -0.0819
 1055SOL     OW 3849   3.403   2.423   3.207  0.3126 -0.5220  0.3439
 1055SOL    HW1 3850   3.323   2.372   3.218 -0.4549  0.6437  0.3627
 1055SOL    HW2 3851   3.391   2.470   3.125 -0.5517  2.1943  1.8692
 1056SOL     OW 3852   0.781   6.456   4.677 -0.0046  0.6663  0.5146
 1056SOL    HW1 3853   0.748   6.366   4.678  2.7929 -0.4349  1.1481
 1056SOL    HW2 3854   0.732   6.499   4.747 -2.4182  0.1191 -0.7190
 1057SOL     OW 3855   5.877   7.457   3.491 -0.2109 -0.5225  0.1292
 1057SOL    HW1 3856   5.965   7.438   3.525 -0.6879 -1.8839  0.6532
 1057SOL    HW2 3857   5.833   7.372   3.490 -1.6065  0.1802  0.0867
 1058SOL     OW 3858   6.500   4.163   7.408 -0.3053  0.0720  0.2818
 1058SOL    HW1 3859   6.519   4.173   7.501  1.5381  2.3181 -0.2211
 1058SOL    HW2 3860   6.431   4.227   7.391  0.8402  1.2346 -0.2133
 1059SOL     OW 3861   1.592   4.595   2.695 -0.0147  0.3933  0.0396
 1059SOL    HW1 3862   1.500   4.593   2.668 -0.9479  1.9639  2.7402
 1059SOL    HW2 3863   1.613   4.503   2.713 -1.8395  0.1998  1.5663
 1060SOL     OW 3864   0.505   7.708   3.623 -0.0692 -0.0690 -0.2264
 1060SOL    HW1 3865   0.448   7.635   3.601 -0.5537  0.8943 -2.5239
 1060SOL    HW2 3866   0.470   7.743   3.705 -2.6556  0.2931 -1.3789
 1061SOL     OW 3867   5.750   5.201   0.625  0.5162 -0.1682 -0.2833
 1061SOL    HW1 3868   5.675   5.192   0.684 -0.3615  0.2716 -1.2878
 1061SOL    HW2 3869   5.781   5.290   0.639 -0.1055  0.1616 -0.9336
 1062SOL     OW 3870   1.065   1.352   1.116  0.2134  0.0475  0.6747
 1062SOL    HW1 3871   0.999   1.388   1.056  0.1122 -0.6670  0.3373
 1062SOL    HW2 3872   1.046   1.258   1.117  2.2653 -0.4506 -0.7853
 1063SOL     OW 3873   5.583   6.237   0.162 -0.2566  0.4868 -0.3601
 1063SOL    HW1 3874   5.642   6.266   0.093  0.1731  0.1229 -0.1498
 1063SOL    HW2 3875   5.575   6.142   0.148  0.5282  0.2662  0.6081
 1064SOL     OW 3876   6.592   3.169   6.554  0.0573 -0.5374 -0.1690
 1064SOL    HW1 3877   6.548   3.187   6.471  0.3303  0.1961 -0.1635
 1064SOL    HW2 3878   6.681   3.205   6.542  0.1908 -0.6935  0.3282
 1065SOL     OW 3879   6.613   5.442   3.702 -0.0802 -0.2807  0.0510
 1065SOL    HW1 3880   6.682   5.465   3.764  0.6945  0.4822 -1.0615
 1065SOL    HW2 3881   6.579   5.526   3.672 -1.4690 -0.6424  0.5160
 1066SOL     OW 3882   3.224   3.528   4.076 -0.2422  0.3870  0.0485
 1066SOL    HW1 3883   3.207   3.608   4.026  1.5894  1.1914  0.6194
 1066SOL    HW2 3884   3.152   3.470   4.054 -1.2882  1.9676 -0.8778
 1067SOL     OW 3885   3.277   2.603   5.754  0.3472  0.9000  0.4481
 1067SOL    HW1 3886   3.258   2.547   5.829 -0.5769 -1.3145 -1.3540
 1067SOL    HW2 3887   3.193   2.645   5.734  0.2496  0.4087 -0.1829
 1068SOL     OW 3888   6.824   3.994   4.890  0.7626 -0.4151 -0.0713
 1068SOL    HW1 3889   6.792   3.940   4.962 -1.5347  0.6563 -0.2133
 1068SOL    HW2 3890   6.748   4.008   4.834  1.3146  2.6618 -0.2282
 1069SOL     OW 3891   2.450   2.305   7.536 -0.2720  0.1209  0.4387
 1069SOL    HW1 3892   2.522   2.336   7.590  0.6198  1.2045 -1.3109
 1069SOL    HW2 3893   2.483   2.308   7.447 -1.1514 -3.1232 -0.1365
 1070SOL     OW 3894   4.622   6.571   2.521  0.1413  0.7609  0.6359
 1070SOL    HW1 3895   4.565   6.648   2.528  0.8410  1.6365 -2.0697
 1070SOL    HW2 3896   4.711   6.607   2.530  0.5355  0.5412 -1.8270
 1071SOL     OW 3897   5.288   4.442   2.864 -0.7101  0.1263 -0.0425
 1071SOL    HW1 3898   5.194   4.429   2.860 -0.9741  1.8151  0.0655
 1071SOL    HW2 3899   5.306   4.470   2.953 -0.2361  0.7100 -0.3127
 1072SOL     OW 3900   7.600   1.117   2.275 -0.1257  0.0669 -0.4784
 1072SOL    HW1 3901   7.608   1.048   2.341 -1.7756  0.1162 -0.1923
 1072SOL    HW2 3902   7.688   1.154   2.268  0.2341 -0.4032  1.1889
 1073SOL     OW 3903   4.990   3.312   3.561  0.3087 -0.2356  0.1125
 1073SOL    HW1 3904   4.981   3.221   3.533 -1.3767 -0.2663  0.6551
 1073SOL    HW2 3905   5.054   3.310   3.631  0.7804 -0.8978 -0.3335
 1074SOL     OW 3906   4.638   7.293   4.804 -0.2242 -0.2626  0.3729
 1074SOL    HW1 3907   4.566   7.230   4.799 -1.0827  0.7566 -0.7290
 1074SOL    HW2 3908   4.601   7.366   4.854  0.6630 -0.4680  1.3715
 1075SOL     OW 3909   4.539   3.620   0.066  0.3477  0.4052  0.0208
 1075SOL    HW1 3910   4.575   3.704   0.035  0.5515  0.0382 -0.7702
 1075SOL    HW2 3911   4.591   3.599   0.144  0.7750  0.6707 -0.1838
 1076SOL     OW 3912   0.641   4.916   2.997 -0.0725  0.2774  0.1440
 1076SOL    HW1 3913   0.581   4.990   2.993  0.1215  0.4042 -0.5012
 1076SOL    HW2 3914   0.726   4.953   2.974 -0.1287 -0.3037 -1.0979
 1077SOL     OW 3915   5.058   1.342   2.918  0.0776 -0.1175 -0.0828
 1077SOL    HW1 3916   5.038   1.435   2.909 -4.5888 -0.9222 -0.8697
 1077SOL    HW2 3917   5.052   1.325   3.011  0.9109  0.3245  0.0608
 1078SOL     OW 3918   1.730   4.238   5.098  0.3334  0.3776 -0.2251
 1078SOL    HW1 3919   1.732   4.142   5.096  0.3612  0.3757 -0.1320
 1078SOL    HW2 3920   1.726   4.264   5.006  0.6617  0.2950 -0.2652
 1079SOL     OW 3921   6.441   2.399   6.163  0.6777  0.0728 -0.2921
 1079SOL    HW1 3922   6.475   2.474   6.114 -0.1499  2.4186  2.4296
 1079SOL    HW2 3923   6.497   2.393   6.240 -1.0862 -0.0759  1.0607
 1080SOL     OW 3924   3.100   5.598   5.744  0.5112 -0.3835 -0.3394
 1080SOL    HW1 3925   3.073   5.515   5.705  1.2085  0.4135 -2.6904
 1080SOL    HW2 3926   3.141   5.647   5.672  0.1039  2.0215  0.9441
 1081SOL     OW 3927   6.577   2.336   7.616  0.1893  0.8264 -0.0214
 1081SOL    HW1 3928   6.624   2.395   7.674  1.8385  0.6162 -1.0551
 1081SOL    HW2 3929   6.641   2.314   7.548 -0.8276 -1.0078 -0.4573
 1082SOL     OW 3930   2.911   5.501   6.654 -0.1459 -0.0642 -0.1937
 1082SOL    HW1 3931   2.912   5.411   6.688 -1.3946 -0.1214 -0.2599
 1082SOL    HW2 3932   2.948   5.554   6.724  0.8847 -0.6466 -0.2676
 1083SOL     OW 3933   3.122   5.100   7.069 -0.4074  0.1947 -0.1200
 1083SOL    HW1 3934   3.037   5.072   7.103  0.1239 -1.0760  0.2007
 1083SOL    HW2 3935   3.184   5.081   7.139 -0.0192  2.5481  0.2795
 1084SOL     OW 3936   0.141   5.388   1.404  0.0517 -0.3966 -0.1773
 1084SOL    HW1 3937   0.090   5.469   1.406  0.5790 -0.0516 -0.3932
 1084SOL    HW2 3938   0.228   5.415   1.375  0.5549 -0.8568  0.8183
 1085SOL     OW 3939   3.466   4.140   5.613 -0.1777 -0.2174  0.1212
 1085SOL    HW1 3940   3.465   4.233   5.594  0.6891  0.0566  1.2910
 1085SOL    HW2 3941   3.471   4.135   5.708 -1.4931 -1.4805  0.1678
 1086SOL     OW 3942   3.271   6.203   4.601 -0.4622 -0.2793 -0.2887
 1086SOL    HW1 3943   3.365   6.199   4.618 -0.2358 -0.7061 -1.5629
 1086SOL    HW2 3944   3.243   6.112   4.603 -1.0592 -0.0829  1.1139
 1087SOL     OW 3945   3.662   5.301   3.901  0.1325  0.6242 -0.3584
 1087SOL    HW1 3946   3.713   5.378   3.876 -1.3099  1.5515 -0.6055
 1087SOL    HW2 3947   3.692   5.232   3.841  3.6119  0.0269  1.8239
 1088SOL     OW 3948   1.889   3.779   5.911 -0.5840  0.0367  0.2186
 1088SOL    HW1 3949   1.974   3.749   5.878 -0.4793 -1.2167  1.4978
 1088SOL    HW2 3950   1.830   3.706   5.894 -0.7127 -0.2975  1.9168
 1089SOL     OW 3951   1.566   3.987   2.240 -0.0881 -0.1286 -0.3214
 1089SOL    HW1 3952   1.608   3.904   2.261  0.4737  0.5661  1.4823
 1089SOL    HW2 3953   1.622   4.054   2.279 -2.6742  0.8658  2.1067
 1090SOL     OW 3954   5.419   2.542   2.733 -0.0953 -0.9092 -0.3948
 1090SOL    HW1 3955   5.386   2.507   2.815 -1.8712 -0.4671 -0.8819
 1090SOL    HW2 3956   5.378   2.628   2.726  1.6775 -0.0381 -0.7574
 1091SOL     OW 3957   7.717   6.948   3.195 -0.4782 -0.1633 -0.0923
 1091SOL    HW1 3958   7.694   6.951   3.288 -0.9187 -0.6363 -0.1829
 1091SOL    HW2 3959   7.745   6.857   3.181  1.5955  0.3981  0.0486
 1092SOL     OW 3960   5.279   6.643   7.462 -0.2320 -0.3885 -0.1639
 1092SOL    HW1 3961   5.199   6.665   7.510  0.3739  0.8849  0.3060
 1092SOL    HW2 3962   5.338   6.717   7.478  0.9398 -1.1622 -0.7350
 1093SOL     OW 3963   7.166   1.139   0.957  0.4357  0.5076  0.6898
 1093SOL    HW1 3964   7.171   1.234   0.965  0.8796  0.5313  0.2096
 1093SOL    HW2 3965   7.184   1.121   0.865 -0.5019  0.0078  0.5938
 1094SOL     OW 3966   5.750   4.576   6.594  0.1864  0.4939 -0.2817
 1094SOL    HW1 3967   5.706   4.623   6.665  1.6161 -0.0136  0.9988
 1094SOL    HW2 3968   5.752   4.638   6.522 -0.6595  1.3020  0.3686
 1095SOL     OW 3969   5.944   2.833   1.705 -0.2975  0.4376  0.1057
 1095SOL    HW1 3970   5.870   2.872   1.658  0.4058 -0.3804 -1.7667
 1095SOL    HW2 3971   5.921   2.740   1.711 -0.1837  0.4631  1.0341
 1096SOL     OW 3972   1.274   4.416   5.694  0.1326 -0.3942 -0.2137
 1096SOL    HW1 3973   1.344   4.369   5.649 -0.4009 -1.0916 -0.3200
 1096SOL    HW2 3974   1.266   4.372   5.779 -0.5630 -0.6692 -0.4260
 1097SOL     OW 3975   5.671   0.244   7.091 -0.3879  0.5111 -0.4367
 1097SOL    HW1 3976   5.626   0.181   7.147  1.0653 -1.2244 -1.0900
 1097SOL    HW2 3977   5.643   0.221   7.002  1.3062 -0.3026 -0.8138
 1098SOL     OW 3978   4.461   6.010   5.410 -0.0970 -0.0337 -0.1015
 1098SOL    HW1 3979   4.444   6.038   5.500  0.3094  1.3774 -0.4413
 1098SOL    HW2 3980   4.392   6.053   5.358  0.4816  0.2771 -0.6253
 1099SOL     OW 3981   4.801   5.097   4.521 -0.0572 -0.3276  0.2126
 1099SOL    HW1 3982   4.708   5.085   4.501  0.0453  0.0189 -0.5154
 1099SOL    HW2 3983   4.813   5.192   4.521 -0.1396 -0.2704  2.4722
 1100SOL     OW 3984   4.341   6.646   2.268  0.1397 -0.7763 -0.0810
 1100SOL    HW1 3985   4.294   6.644   2.352  0.2864 -0.8104 -0.0002
 1100SOL    HW2 3986   4.352   6.554   2.244  1.2469 -0.8056  0.5021
 1101SOL     OW 3987   0.943   2.400   0.820 -0.0201 -0.3113 -0.2886
 1101SOL    HW1 3988   0.979   2.335   0.759 -2.3730 -1.1527 -0.8697
 1101SOL    HW2 3989   0.897   2.462   0.764 -2.0923 -1.0122  0.5471
 1102SOL     OW 3990   1.187   2.200   1.676 -0.1851 -0.1318 -0.2104
 1102SOL    HW1 3991   1.264   2.219   1.731 -1.1710  1.9414  0.5468
 1102SOL    HW2 3992   1.224   2.184   1.589  1.1508  0.5422  0.1951
 1103SOL     OW 3993   0.486   7.433   0.732 -0.0210 -0.2972  0.0620
 1103SOL    HW1 3994   0.391   7.421   0.740 -0.1407  0.8180  0.4533
 1103SOL    HW2 3995   0.519   7.347   0.706 -1.1483 -0.6763 -0.1616
 1104SOL     OW 3996   7.071   0.603   5.904  0.4473 -0.1621  0.1359
 1104SOL    HW1 3997   7.149   0.649   5.872  0.2466 -0.7997 -1.3495
 1104SOL    HW2 3998   7.105   0.522   5.942  0.5907  0.0573  0.4836
 1105SOL     OW 3999   0.488   3.709   3.361  0.5172 -0.2182 -0.1486
 1105SOL    HW1 4000   0.458   3.660   3.284  0.6672  1.9064 -1.6382
 1105SOL    HW2 4001   0.434   3.788   3.361  0.7974  0.0065  1.7195
 1106SOL     OW 4002   3.268   7.005   0.763 -0.8362 -0.1168  0.2077
 1106SOL    HW1 4003   3.286   7.092   0.797  2.6114 -0.5803 -0.0238
 1106SOL    HW2 4004   3.242   7.018   0.672 -0.9828  0.6931  0.3651
 1107SOL     OW 4005   6.391   1.514   5.187  0.2880  0.1075  0.6283
 1107SOL    HW1 4006   6.354   1.477   5.267  0.3102  0.3999  0.7767
 1107SOL    HW2 4007   6.424   1.600   5.213 -0.6804  0.6631  0.0742
 1108SOL     OW 4008   2.641   7.711   7.466  0.7925 -0.1622  0.3736
 1108SOL    HW1 4009   2.678   7.773   7.403  1.5809  0.1977  1.1629
 1108SOL    HW2 4010   2.619   7.634   7.414  0.5678  0.4710 -0.4863
 1109SOL     OW 4011   5.662   1.302   1.330 -0.3359  0.9724 -0.4306
 1109SOL    HW1 4012   5.659   1.313   1.425  2.0645 -0.2025 -0.1464
 1109SOL    HW2 4013   5.750   1.270   1.312 -1.7161 -2.2278 -2.6558
 1110SOL     OW 4014   4.644   2.844   3.573 -0.9885  0.8057 -0.0435
 1110SOL    HW1 4015   4.664   2.752   3.553  0.4437  1.2749 -0.8703
 1110SOL    HW2 4016   4.660   2.890   3.491  2.3228  2.3971  1.3232
 1111SOL     OW 4017   6.644   4.347   0.243 -0.2853  0.3533 -0.0782
 1111SOL    HW1 4018   6.673   4.356   0.334 -0.1158 -0.0198 -0.0931
 1111SOL    HW2 4019   6.610   4.258   0.237  0.1765  0.1999 -0.5066
 1112SOL     OW 4020   0.676   3.076   0.706 -0.5496  0.4477  0.4720
 1112SOL    HW1 4021   0.645   3.012   0.771 -0.3430 -0.8378 -0.6575
 1112SOL    HW2 4022   0.597   3.104   0.661 -0.3915 -1.1953 -0.9384
 1113SOL     OW 4023   5.428   2.043   4.248  0.0965  0.2961  0.6866
 1113SOL    HW1 4024   5.500   1.987   4.218  0.9090  1.4929  0.2767
 1113SOL    HW2 4025   5.452   2.066   4.338 -0.2707 -0.0652  0.8784
 1114SOL     OW 4026   4.972   0.809   4.508  0.1011 -0.1018  0.5468
 1114SOL    HW1 4027   5.009   0.848   4.587  2.7202  0.2899 -0.7640
 1114SOL    HW2 4028   5.025   0.730   4.493 -2.1359 -1.7377  0.6202
 1115SOL     OW 4029   2.159   1.614   7.696  0.0102  0.6074  0.8328
 1115SOL    HW1 4030   2.138   1.571   7.613  0.3530  0.7305  0.6821
 1115SOL    HW2 4031   2.214   1.551   7.742 -1.6856 -0.2498  1.7660
 1116SOL     OW 4032   4.461   6.371   0.873  0.4213  0.5408  0.3665
 1116SOL    HW1 4033   4.445   6.406   0.961  1.6439  1.2879  0.3149
 1116SOL    HW2 4034   4.552   6.339   0.876  0.6022  0.9156 -0.7210
 1117SOL     OW 4035   0.123   1.834   5.914  0.6435 -0.0677  0.1409
 1117SOL    HW1 4036   0.067   1.761   5.942  0.6203  0.0962  0.5252
 1117SOL    HW2 4037   0.191   1.839   5.981 -1.2373  2.4291  2.0390
 1118SOL     OW 4038   5.133   0.380   3.962 -0.2905 -0.1681 -0.2108
 1118SOL    HW1 4039   5.163   0.371   4.053  0.7900 -1.5553 -0.6631
 1118SOL    HW2 4040   5.070   0.452   3.965 -1.4774 -1.1761  1.9385
 1119SOL     OW 4041   4.607   4.830   7.334  0.1676 -0.0981  0.6175
 1119SOL    HW1 4042   4.645   4.797   7.253 -0.1019  0.9894  0.0301
 1119SOL    HW2 4043   4.596   4.924   7.319 -0.0060  0.0984  1.8675
 1120SOL     OW 4044   6.519   0.370   4.245 -0.5903  0.2599 -0.4632
 1120SOL    HW1 4045   6.611   0.374   4.272 -1.5203 -0.8331  3.5721
 1120SOL    HW2 4046   6.491   0.462   4.244 -0.1414  0.4754  1.5115
 1121SOL     OW 4047   7.350   1.162   4.277 -0.1703 -0.2820 -0.2135
 1121SOL    HW1 4048   7.371   1.079   4.321  1.4685 -0.8766 -2.0092
 1121SOL    HW2 4049   7.428   1.183   4.227 -1.3624  1.2400 -1.5252
 1122SOL     OW 4050   6.914   0.495   7.387  0.3877 -0.1223  0.1650
 1122SOL    HW1 4051   6.906   0.563   7.454 -1.1468 -1.1770  1.0915
 1122SOL    HW2 4052   6.942   0.417   7.435 -1.9353 -1.2261 -0.1610
 1123SOL     OW 4053   5.056   5.755   3.261 -0.0406  0.1621 -0.0617
 1123SOL    HW1 4054   5.114   5.815   3.307  0.0805 -0.2622  0.3496
 1123SOL    HW2 4055   5.102   5.671   3.263 -0.6412 -0.1680  0.2286
 1124SOL     OW 4056   3.520   2.038   4.492  0.8217 -0.1746 -0.5048
 1124SOL    HW1 4057   3.470   2.093   4.552  1.1163  0.1860 -0.5895
 1124SOL    HW2 4058   3.469   2.038   4.411  2.0340  2.0296 -1.3578
 1125SOL     OW 4059   1.980   7.266   5.699 -0.0241  0.0691 -0.0844
 1125SOL    HW1 4060   2.044   7.275   5.769  0.0508  0.1510 -0.1637
 1125SOL    HW2 4061   1.951   7.355   5.681  0.6318  0.1564 -0.7842
 1126SOL     OW 4062   4.121   1.001   6.434 -0.4396 -0.6706 -0.4493
 1126SOL    HW1 4063   4.077   0.934   6.487 -1.8824  2.1826  2.2681
 1126SOL    HW2 4064   4.050   1.042   6.384 -0.1538  0.7695  0.2643
 1127SOL     OW 4065   6.897   3.702   1.798 -0.2335  0.3117  0.2511
 1127SOL    HW1 4066   6.992   3.710   1.809 -0.2569  1.6753 -0.3393
 1127SOL    HW2 4067   6.883   3.609   1.784  1.1609  0.2235 -0.8506
 1128SOL     OW 4068   5.273   1.259   0.306  0.1820 -0.1088 -0.2269
 1128SOL    HW1 4069   5.231   1.201   0.369 -0.5511 -0.5245 -1.0885
 1128SOL    HW2 4070   5.342   1.206   0.267  0.1043 -0.1117 -0.3605
 1129SOL     OW 4071   6.715   4.642   6.135  0.2306 -0.1432  0.2693
 1129SOL    HW1 4072   6.724   4.602   6.221 -2.4923  1.3606  1.3840
 1129SOL    HW2 4073   6.626   4.675   6.133  0.3873  0.4127 -2.9450
 1130SOL     OW 4074   6.413   4.662   7.533  0.5109  0.1252  0.0259
 1130SOL    HW1 4075   6.321   4.690   7.538  0.4219 -0.1830  0.1626
 1130SOL    HW2 4076   6.463   4.737   7.564  0.4439  1.0359 -1.9156
 1131SOL     OW 4077   0.057   2.908   3.113  0.1116  0.1380  0.1236
 1131SOL    HW1 4078   0.093   2.966   3.180  0.2639 -0.1023  0.2482
 1131SOL    HW2 4079  -0.037   2.905   3.133  0.5907 -2.9162  2.6729
 1132SOL     OW 4080   5.547   5.260   0.875 -0.0318 -0.1513 -0.1779
 1132SOL    HW1 4081   5.630   5.286   0.915 -0.3194 -1.2533  1.2085
 1132SOL    HW2 4082   5.557   5.166   0.860  0.0025  0.1858 -2.6303
 1133SOL     OW 4083   0.102   7.734   1.108  0.2757 -0.3175  0.0860
 1133SOL    HW1 4084   0.175   7.775   1.154 -0.8559  1.4786  0.3758
 1133SOL    HW2 4085   0.105   7.770   1.019  1.4014 -2.4433 -0.8246
 1134SOL     OW 4086   6.527   3.062   4.860 -0.2639  0.0943  0.4473
 1134SOL    HW1 4087   6.452   3.036   4.913 -0.4593  0.5206  0.3835
 1134SOL    HW2 4088   6.499   3.142   4.816 -0.2550 -0.4565 -0.6074
 1135SOL     OW 4089   7.561   0.176   3.880  0.2503 -0.5493  0.3741
 1135SOL    HW1 4090   7.530   0.203   3.967 -0.9010 -0.6494  0.0122
 1135SOL    HW2 4091   7.560   0.081   3.883  1.2058 -0.5569  0.5851
 1136SOL     OW 4092   3.100   3.017   4.451 -0.3667  0.4011 -0.8661
 1136SOL    HW1 4093   3.110   2.956   4.378  0.2404  0.7484 -1.0810
 1136SOL    HW2 4094   3.082   2.962   4.526 -2.3892  0.1114 -1.5073
 1137SOL     OW 4095   2.621   4.975   6.157  0.2075  0.1030 -0.2889
 1137SOL    HW1 4096   2.573   5.008   6.232 -0.2366 -0.0853 -0.4828
 1137SOL    HW2 4097   2.634   4.882   6.176  2.1170  0.5200  0.6028
 1138SOL     OW 4098   2.409   5.968   5.905  0.2721  0.3353 -0.2565
 1138SOL    HW1 4099   2.455   5.919   5.973 -0.2259  1.7513  1.1779
 1138SOL    HW2 4100   2.433   5.925   5.823  2.5489 -0.1795  0.6163
 1139SOL     OW 4101   4.910   6.818   1.240  0.1449 -0.4959  0.0915
 1139SOL    HW1 4102   4.951   6.897   1.276  1.0556 -1.2400  0.7497
 1139SOL    HW2 4103   4.938   6.817   1.148 -2.3659  1.5234 -0.8205
 1140SOL     OW 4104   6.735   0.437   6.746 -0.3376  0.3104  0.0299
 1140SOL    HW1 4105   6.791   0.501   6.703 -0.2467 -0.6228 -1.3046
 1140SOL    HW2 4106   6.769   0.432   6.836 -0.5622  2.3357  0.2780
 1141SOL     OW 4107   2.540   6.259   4.847 -0.0574 -0.7224 -0.1974
 1141SOL    HW1 4108   2.514   6.222   4.931 -0.1329 -0.7904 -0.2508
 1141SOL    HW2 4109   2.517   6.352   4.853 -0.4222 -0.8030 -0.2873
 1142SOL     OW 4110   1.682   5.934   7.127 -0.2763 -0.0949  0.5231
 1142SOL    HW1 4111   1.695   5.840   7.129 -0.6391 -0.2151 -1.1898
 1142SOL    HW2 4112   1.619   5.951   7.197 -2.6115 -1.5801 -1.0910
 1143SOL     OW 4113   0.820   0.809   0.442  0.1955 -0.3447  0.2433
 1143SOL    HW1 4114   0.891   0.746   0.454  0.3287 -0.4672 -1.0883
 1143SOL    HW2 4115   0.754   0.783   0.506  0.8635 -0.9365  0.7090
 1144SOL     OW 4116   2.390   6.336   4.448  0.3234  0.4529  0.3851
 1144SOL    HW1 4117   2.360   6.305   4.362 -1.4280  0.5500  0.9230
 1144SOL    HW2 4118   2.485   6.321   4.447  0.4239  0.8946 -1.7438
 1145SOL     OW 4119   4.248   3.008   5.365  0.4844 -0.0087 -0.3172
 1145SOL    HW1 4120   4.283   3.061   5.437  0.6490 -0.2632 -0.2089
 1145SOL    HW2 4121   4.257   2.918   5.395 -0.2584 -0.0792 -0.2951
 1146SOL     OW 4122   4.399   3.505   7.489 -0.2678 -0.4539 -0.0122
 1146SOL    HW1 4123   4.396   3.413   7.463 -0.6029 -0.0339 -1.5346
 1146SOL    HW2 4124   4.307   3.533   7.488 -0.4528 -0.6426  2.6863
 1147SOL     OW 4125   2.796   6.514   1.986  0.0269  0.0944 -0.4476
 1147SOL    HW1 4126   2.879   6.522   1.940 -0.7341  1.7848 -1.6146
 1147SOL    HW2 4127   2.745   6.452   1.934  0.3164 -0.4659 -0.0734
 1148SOL     OW 4128   3.292   4.505   2.695 -0.4219  0.6072 -0.6868
 1148SOL    HW1 4129   3.247   4.431   2.738  1.8376 -0.5317 -0.1333
 1148SOL    HW2 4130   3.254   4.508   2.608  0.0790 -1.8863 -1.0644
 1149SOL     OW 4131   4.920   0.669   6.739 -0.2761  0.2338 -0.2323
 1149SOL    HW1 4132   4.970   0.588   6.748 -1.3443 -0.3653  0.6703
 1149SOL    HW2 4133   4.986   0.738   6.732  0.6657 -0.7997 -2.2139
 1150SOL     OW 4134   0.492   0.722   0.139 -0.0674 -0.0290  0.0991
 1150SOL    HW1 4135   0.530   0.635   0.146  0.4554  0.1691 -0.1869
 1150SOL    HW2 4136   0.565   0.782   0.157 -0.8024  0.3464  2.0294
 1151SOL     OW 4137   1.552   4.999   2.051 -0.0569  0.2998  0.0023
 1151SOL    HW1 4138   1.569   4.960   1.965 -2.8574 -1.2120 -0.0086
 1151SOL    HW2 4139   1.543   5.092   2.034 -3.6490 -0.2234 -2.1187
 1152SOL     OW 4140   6.060   3.222   6.896 -0.4229  0.2310  0.2158
 1152SOL    HW1 4141   6.063   3.140   6.847 -0.6239  0.0070  0.5748
 1152SOL    HW2 4142   5.970   3.252   6.886 -0.3401  0.4289  0.0549
 1153SOL     OW 4143   2.468   1.512   0.891 -0.0405  0.0527  0.1388
 1153SOL    HW1 4144   2.539   1.567   0.857 -0.1444 -0.1602 -0.4342
 1153SOL    HW2 4145   2.390   1.543   0.845 -0.3417  0.3543  0.8424
 1154SOL     OW 4146   2.900   2.909   2.137  0.4757  0.2410  0.0604
 1154SOL    HW1 4147   2.820   2.896   2.188  0.0157  2.9515  0.1366
 1154SOL    HW2 4148   2.968   2.923   2.203  0.3484  1.2849 -0.0159
 1155SOL     OW 4149   3.366   0.419   2.463 -0.4710 -0.3201 -0.2203
 1155SOL    HW1 4150   3.322   0.458   2.387  1.4029  2.5211  0.0099
 1155SOL    HW2 4151   3.319   0.454   2.538 -1.0252 -1.5004  0.0189
 1156SOL     OW 4152   1.571   3.532   6.570  0.0809  0.5961 -0.3024
 1156SOL    HW1 4153   1.643   3.486   6.527 -0.4411 -2.2531  1.6006
 1156SOL    HW2 4154   1.602   3.545   6.660 -0.7991  1.7311 -0.1487
 1157SOL     OW 4155   0.558   1.006   7.535 -0.4172 -0.3237 -0.3342
 1157SOL    HW1 4156   0.498   0.990   7.607  0.3135 -0.7378  0.2053
 1157SOL    HW2 4157   0.609   0.924   7.527  1.5542  0.7287  0.6811
 1158SOL     OW 4158   3.326   4.854   5.613 -0.3913  0.2318  0.3201
 1158SOL    HW1 4159   3.252   4.866   5.553 -0.7756  0.2066  0.7894
 1158SOL    HW2 4160   3.314   4.921   5.680  0.2195  0.4723  0.1927
 1159SOL     OW 4161   4.235   5.108   1.628 -0.5796  0.3909 -0.2154
 1159SOL    HW1 4162   4.279   5.037   1.581 -0.5802  0.1997  0.0649
 1159SOL    HW2 4163   4.241   5.082   1.720 -0.6534  0.7162 -0.1184
 1160SOL     OW 4164   6.389   2.328   2.074  0.3812 -0.6541  0.7520
 1160SOL    HW1 4165   6.366   2.313   1.982  0.2714 -3.1432  1.0985
 1160SOL    HW2 4166   6.485   2.325   2.076  0.3914 -0.3490  0.6789
 1161SOL     OW 4167   4.846   7.175   3.398 -0.1579 -0.2800 -0.4259
 1161SOL    HW1 4168   4.807   7.110   3.457  1.7692 -0.7901  0.3598
 1161SOL    HW2 4169   4.939   7.175   3.421 -0.0598  2.7256 -0.4413
 1162SOL     OW 4170   7.548   3.813   4.139  0.5207  0.1167 -0.1540
 1162SOL    HW1 4171   7.582   3.827   4.227  0.2331 -1.0988  0.1693
 1162SOL    HW2 4172   7.594   3.736   4.107 -0.3185 -0.2343 -0.5561
 1163SOL     OW 4173   3.602   3.217   2.945 -0.0480 -0.7483  0.1737
 1163SOL    HW1 4174   3.589   3.127   2.977  1.6852 -0.6841  1.1951
 1163SOL    HW2 4175   3.633   3.206   2.855 -2.4125 -1.0287 -0.6804
 1164SOL     OW 4176   4.470   5.516   1.125 -0.1233  0.3241 -0.1797
 1164SOL    HW1 4177   4.459   5.561   1.209 -1.0582 -0.5469  0.1991
 1164SOL    HW2 4178   4.462   5.585   1.060 -2.6341  0.6334  0.3330
 1165SOL     OW 4179   4.535   4.388   1.758  0.4352 -0.1980  0.0722
 1165SOL    HW1 4180   4.602   4.404   1.824  0.6980  1.7723 -0.6052
 1165SOL    HW2 4181   4.452   4.402   1.804  0.6227  1.4919 -0.0160
 1166SOL     OW 4182   0.122   0.811   5.391 -0.6535  0.0974 -0.1852
 1166SOL    HW1 4183   0.121   0.758   5.311  1.4531  0.0480 -0.2460
 1166SOL    HW2 4184   0.033   0.844   5.400 -0.7648  0.7225 -2.9508
 1167SOL     OW 4185   7.243   2.837   5.217 -0.1709 -0.6352  0.2280
 1167SOL    HW1 4186   7.231   2.895   5.142 -1.5974 -1.5518 -0.2846
 1167SOL    HW2 4187   7.331   2.856   5.248 -0.4247  1.4627 -0.2067
 1168SOL     OW 4188   5.419   0.002   4.813 -0.6859  0.3184  0.5159
 1168SOL    HW1 4189   5.353   0.064   4.781 -0.8845  0.6649  1.5383
 1168SOL    HW2 4190   5.370  -0.055   4.873 -0.2321  0.0298  0.6106
 1169SOL     OW 4191   6.298   6.727   6.540 -0.7005 -0.2414 -0.2013
 1169SOL    HW1 4192   6.345   6.799   6.581  0.1334 -0.0201 -1.5270
 1169SOL    HW2 4193   6.247   6.767   6.470 -1.2212 -0.7675 -0.1338
 1170SOL     OW 4194   1.815   5.518   1.351  0.4366 -0.6453 -0.1384
 1170SOL    HW1 4195   1.770   5.434   1.346  0.2960 -0.7523  1.9703
 1170SOL    HW2 4196   1.767   5.567   1.419  1.5293  0.4775 -0.1384
 1171SOL     OW 4197   4.620   7.151   5.744 -0.1299  0.1295  0.0974
 1171SOL    HW1 4198   4.653   7.063   5.732 -0.4288  0.1534 -0.9963
 1171SOL    HW2 4199   4.528   7.146   5.720 -0.4195  0.5175  1.0670
 1172SOL     OW 4200   4.353   1.792   2.096  0.6060 -0.3734  0.2535
 1172SOL    HW1 4201   4.275   1.846   2.110 -0.1950 -1.6124  0.7662
 1172SOL    HW2 4202   4.323   1.720   2.041  1.7342 -0.1351 -0.6972
 1173SOL     OW 4203   7.089   0.237   4.510 -0.2407 -0.4232  0.2836
 1173SOL    HW1 4204   7.053   0.313   4.465 -1.0458 -0.9938 -0.0471
 1173SOL    HW2 4205   7.153   0.274   4.571 -1.6673  0.6618  1.1992
 1174SOL     OW 4206   5.399   1.834   2.084  0.1589  0.4531 -1.5293
 1174SOL    HW1 4207   5.397   1.910   2.142 -0.2815 -1.2299  0.8254
 1174SOL    HW2 4208   5.333   1.853   2.017 -1.9182  1.0606  0.5635
 1175SOL     OW 4209   6.577   3.971   5.523 -0.0191  0.5578  0.0064
 1175SOL    HW1 4210   6.492   3.941   5.492  1.0174 -1.6495 -0.9276
 1175SOL    HW2 4211   6.634   3.968   5.446  1.5320 -0.6760  1.1241
 1176SOL     OW 4212   0.169   6.320   6.205  0.0186 -0.5119  0.6955
 1176SOL    HW1 4213   0.194   6.289   6.118 -0.8217 -1.1404  0.6620
 1176SOL    HW2 4214   0.249   6.358   6.241  0.3860 -0.2923 -0.3269
 1177SOL     OW 4215   1.064   0.143   0.137  0.2307  0.3142  0.1164
 1177SOL    HW1 4216   1.153   0.158   0.168  0.3529  0.2552 -0.2024
 1177SOL    HW2 4217   1.069   0.158   0.042 -0.0557  0.1204  0.0716
 1178SOL     OW 4218   1.351   2.886   2.819  0.4962 -0.2605 -0.0866
 1178SOL    HW1 4219   1.359   2.827   2.894  0.8286 -0.1270 -0.0159
 1178SOL    HW2 4220   1.410   2.850   2.753 -0.2635 -0.7355 -0.5228
 1179SOL     OW 4221   0.469   4.300   5.608  0.0473 -0.0835 -0.2711
 1179SOL    HW1 4222   0.412   4.295   5.531 -0.3781 -0.7928  0.0837
 1179SOL    HW2 4223   0.417   4.263   5.679  0.5977  0.1668  0.2677
 1180SOL     OW 4224   4.717   4.154   1.331  0.1744  0.0802  0.2956
 1180SOL    HW1 4225   4.634   4.187   1.296 -0.0250 -1.1164 -0.4510
 1180SOL    HW2 4226   4.691   4.087   1.394  0.5637  0.0062  0.3816
 1181SOL     OW 4227   1.059   5.290   0.190 -0.1686 -0.4870 -0.7433
 1181SOL    HW1 4228   1.094   5.362   0.137 -2.9986  0.3101 -1.7095
 1181SOL    HW2 4229   0.996   5.247   0.132 -0.2328 -2.3011  0.6045
 1182SOL     OW 4230   2.701   2.850   5.072 -0.3355 -0.0952  0.4264
 1182SOL    HW1 4231   2.698   2.814   5.161  0.1222 -1.0784  0.0612
 1182SOL    HW2 4232   2.794   2.854   5.051 -0.4559 -0.3520 -0.1921
 1183SOL     OW 4233   2.738   0.097   5.345 -0.1607 -0.1231  0.0696
 1183SOL    HW1 4234   2.658   0.134   5.381 -0.0451 -0.9160  1.1930
 1183SOL    HW2 4235   2.718   0.005   5.330  0.6097 -0.3895  0.6087
 1184SOL     OW 4236   0.684   5.378   2.067 -0.1923  0.4744  0.1581
 1184SOL    HW1 4237   0.748   5.313   2.095 -0.4686  0.0162 -0.2664
 1184SOL    HW2 4238   0.683   5.372   1.972  0.9164  2.1935 -0.0152
 1185SOL     OW 4239   6.322   4.175   5.023 -0.7004  0.1396 -0.3514
 1185SOL    HW1 4240   6.376   4.244   4.986 -2.4982  1.7524 -0.1595
 1185SOL    HW2 4241   6.354   4.164   5.112 -0.4389  0.7994 -0.3586
 1186SOL     OW 4242   2.899   1.464   6.888  0.3211  0.8692  0.1499
 1186SOL    HW1 4243   2.815   1.477   6.844 -0.2771 -0.2127  0.9394
 1186SOL    HW2 4244   2.876   1.442   6.978  1.3786 -0.6963  0.0757
 1187SOL     OW 4245   6.145   0.772   4.158  0.7970  0.0180 -0.7816
 1187SOL    HW1 4246   6.165   0.763   4.064 -0.2366 -1.6415 -0.8889
 1187SOL    HW2 4247   6.050   0.781   4.162  0.9687  1.9208  0.0455
 1188SOL     OW 4248   7.178   4.656   4.440 -0.3264  0.2012 -0.6228
 1188SOL    HW1 4249   7.096   4.606   4.437 -0.6608  0.7547 -0.8389
 1188SOL    HW2 4250   7.182   4.700   4.356 -1.2656  2.4605  0.4334
 1189SOL     OW 4251   4.829   3.171   6.172 -0.0247  0.0477  0.4301
 1189SOL    HW1 4252   4.864   3.212   6.251 -2.0938  0.6853  1.0553
 1189SOL    HW2 4253   4.797   3.244   6.119 -3.2771 -0.6022  1.3184
 1190SOL     OW 4254   3.382   5.031   1.877 -0.0284 -0.3013  0.6724
 1190SOL    HW1 4255   3.437   4.953   1.865 -1.1340 -0.7723 -1.8331
 1190SOL    HW2 4256   3.425   5.099   1.824 -1.1765 -0.3478 -0.3541
 1191SOL     OW 4257   0.378   5.098   6.301  0.0297 -0.1296 -0.2286
 1191SOL    HW1 4258   0.367   5.164   6.233 -4.6480 -1.3784 -1.0542
 1191SOL    HW2 4259   0.433   5.030   6.261  0.7298  0.9856 -1.2015
 1192SOL     OW 4260   0.993   4.789   0.687 -0.4731 -0.3425 -0.3435
 1192SOL    HW1 4261   1.007   4.874   0.645 -1.4511 -0.7075 -1.4750
 1192SOL    HW2 4262   1.027   4.726   0.624  1.2211 -0.7768  0.9442
 1193SOL     OW 4263   6.696   2.978   2.725 -0.1866 -0.1669  0.2719
 1193SOL    HW1 4264   6.742   3.041   2.670 -0.5098  1.0800  1.3794
 1193SOL    HW2 4265   6.604   2.988   2.701 -0.5310  1.5082  2.0436
 1194SOL     OW 4266   1.801   6.843   0.378  0.4186  0.4555  0.6530
 1194SOL    HW1 4267   1.866   6.913   0.374  0.3068  0.4793 -1.1669
 1194SOL    HW2 4268   1.846   6.766   0.343 -0.2472  0.2446  0.2521
 1195SOL     OW 4269   5.522   3.051   4.773 -0.0073 -0.0343 -0.7869
 1195SOL    HW1 4270   5.521   3.145   4.757 -1.3514 -0.0822 -1.0806
 1195SOL    HW2 4271   5.492   3.041   4.863 -0.5190 -0.2004 -0.9690
 1196SOL     OW 4272   2.120   6.308   7.532 -0.2442  0.1907  0.1812
 1196SOL    HW1 4273   2.169   6.226   7.530  0.1723  0.3348  2.0407
 1196SOL    HW2 4274   2.033   6.284   7.501 -0.4631 -1.2502  1.7146
 1197SOL     OW 4275   2.765   0.900   2.278  0.3549 -0.0645  0.7639
 1197SOL    HW1 4276   2.722   0.824   2.238  2.0410 -1.5490  1.6290
 1197SOL    HW2 4277   2.858   0.885   2.263  0.7054  2.3021  0.2200
 1198SOL     OW 4278   2.541   5.956   2.154  0.0347 -0.3711 -0.3227
 1198SOL    HW1 4279   2.499   5.893   2.212  0.8902 -1.2906 -0.6737
 1198SOL    HW2 4280   2.488   5.955   2.074 -1.2261  1.0001  0.4529
 1199SOL     OW 4281   4.164   0.711   4.844  0.5424  0.2727  0.6846
 1199SOL    HW1 4282   4.077   0.698   4.806  1.3043  0.7835 -1.3969
 1199SOL    HW2 4283   4.165   0.803   4.870  0.5577  0.3622  0.3785
 1200SOL     OW 4284   6.181   1.677   2.608 -0.2456  0.3069 -0.1344
 1200SOL    HW1 4285   6.137   1.596   2.584  0.9582  0.0464 -1.5468
 1200SOL    HW2 4286   6.203   1.719   2.525  1.4721  0.7966  0.5270
 1201SOL     OW 4287   0.142   1.836   5.637  0.0233 -0.0103  0.0923
 1201SOL    HW1 4288   0.160   1.749   5.602  0.0344  0.1805 -0.3812
 1201SOL    HW2 4289   0.137   1.823   5.732 -1.2415 -0.7537 -0.0549
 1202SOL     OW 4290   6.434   5.280   3.485 -0.2588 -0.0947 -0.2017
 1202SOL    HW1 4291   6.444   5.372   3.459 -0.2212  0.0718  0.4082
 1202SOL    HW2 4292   6.345   5.274   3.520 -0.0710 -0.1688  0.2665
 1203SOL     OW 4293   0.161   3.352   2.676 -0.3295  0.2137 -0.4322
 1203SOL    HW1 4294   0.209   3.359   2.759 -0.9550  0.9988 -0.1343
 1203SOL    HW2 4295   0.087   3.294   2.696  0.1349 -0.5053 -0.7391
 1204SOL     OW 4296   4.569   0.971   2.474 -0.1126  0.1809  0.2692
 1204SOL    HW1 4297   4.537   0.905   2.536  0.8476 -0.7584 -0.2113
 1204SOL    HW2 4298   4.595   0.920   2.397 -1.9054  1.3704 -1.2067
 1205SOL     OW 4299   0.470   6.638   7.666  0.9391 -0.5012  0.0500
 1205SOL    HW1 4300   0.550   6.587   7.678  1.4365  0.3407  0.3728
 1205SOL    HW2 4301   0.418   6.587   7.604  0.4459 -2.5413  1.9763
 1206SOL     OW 4302   4.969   3.902   4.839  0.1559 -0.1305 -0.0339
 1206SOL    HW1 4303   4.957   3.808   4.821 -0.0524 -0.0842 -0.1418
 1206SOL    HW2 4304   4.970   3.943   4.753 -2.3057  0.2713  0.0546
 1207SOL     OW 4305   6.398   0.246   4.700  0.0208 -0.5141  0.3152
 1207SOL    HW1 4306   6.479   0.229   4.749  1.0768  1.8187 -0.4705
 1207SOL    HW2 4307   6.423   0.234   4.609  0.4183  3.0171 -0.1807
 1208SOL     OW 4308   5.524   4.933   5.004  0.2344  0.0782  0.2326
 1208SOL    HW1 4309   5.514   4.888   5.088  0.0575  0.1386  0.2426
 1208SOL    HW2 4310   5.527   5.026   5.025 -1.4054  0.1994  0.0351
 1209SOL     OW 4311   1.168   2.150   5.957  0.2913  0.2867 -0.1349
 1209SOL    HW1 4312   1.195   2.234   5.994 -0.3679  0.5376 -0.2008
 1209SOL    HW2 4313   1.218   2.085   6.005  0.0889  0.6605  0.5902
 1210SOL     OW 4314   2.751   4.256   5.250  0.1992 -0.0731  0.2378
 1210SOL    HW1 4315   2.681   4.223   5.306 -0.1423  1.0949  0.5229
 1210SOL    HW2 4316   2.785   4.333   5.296 -0.2096  1.0157 -1.2015
 1211SOL     OW 4317   1.710   7.009   1.398 -0.2409 -0.0973 -0.1702
 1211SOL    HW1 4318   1.783   6.962   1.439  1.3911  1.8852 -0.6472
 1211SOL    HW2 4319   1.634   6.985   1.451  1.3562  0.4548  2.5852
 1212SOL     OW 4320   7.649   0.099   2.825  0.1793  0.0771  0.2879
 1212SOL    HW1 4321   7.689   0.158   2.762 -0.4999 -1.4842 -1.7076
 1212SOL    HW2 4322   7.709   0.099   2.900  2.5839 -0.2221 -1.5332
 1213SOL     OW 4323   1.840   6.085   4.934 -0.3836 -0.3378  0.3746
 1213SOL    HW1 4324   1.773   6.120   4.993 -1.4899 -1.4076 -0.2070
 1213SOL    HW2 4325   1.811   5.996   4.915  0.6834 -0.4800 -0.6906
 1214SOL     OW 4326   7.101   0.777   3.275 -0.0577  0.0136 -0.0819
 1214SOL    HW1 4327   7.173   0.726   3.313 -0.5208 -0.1410  0.6184
 1214SOL    HW2 4328   7.131   0.868   3.281  0.4052 -0.1068 -0.5213
 1215SOL     OW 4329   2.962   0.668   0.524 -0.1367 -0.0787  0.1399
 1215SOL    HW1 4330   2.983   0.631   0.438 -2.1225  0.8806 -0.8181
 1215SOL    HW2 4331   2.979   0.761   0.515  0.2974 -0.0661  1.0170
 1216SOL     OW 4332   3.937   5.468   6.580 -0.1887 -0.1532 -0.3557
 1216SOL    HW1 4333   3.894   5.387   6.606  0.6070  0.1367  2.1031
 1216SOL    HW2 4334   3.895   5.492   6.497 -2.2732 -1.6939  0.1695
 1217SOL     OW 4335   2.159   5.558   1.606  0.4407  0.0109  0.3658
 1217SOL    HW1 4336   2.218   5.512   1.548  0.0423 -0.1821  0.1132
 1217SOL    HW2 4337   2.189   5.649   1.604 -0.0634  0.1586 -0.7642
 1218SOL     OW 4338   3.275   6.745   1.883 -0.4213 -0.8525 -0.2436
 1218SOL    HW1 4339   3.361   6.765   1.846 -0.2388 -0.0935  0.5573
 1218SOL    HW2 4340   3.271   6.796   1.964 -1.8865 -0.3754 -0.5891
 1219SOL     OW 4341   4.467   0.874   0.484 -0.0149  0.3999 -0.6624
 1219SOL    HW1 4342   4.388   0.822   0.498 -1.1531  2.3377  0.5550
 1219SOL    HW2 4343   4.537   0.822   0.523 -0.0925 -2.5434 -3.9348
 1220SOL     OW 4344   0.906   0.884   6.872  0.0184 -0.2270  0.0517
 1220SOL    HW1 4345   0.941   0.961   6.918  1.2463  0.2638 -1.6139
 1220SOL    HW2 4346   0.920   0.903   6.779 -1.3615 -1.6708 -0.4922
 1221SOL     OW 4347   2.338   2.835   7.047  0.7403  0.1116  0.2616
 1221SOL    HW1 4348   2.247   2.823   7.022  1.0167 -0.0366 -0.7128
 1221SOL    HW2 4349   2.362   2.919   7.008  0.7817  0.5622  1.2382
 1222SOL     OW 4350   7.191   5.310   4.959  0.7268  0.0049 -0.5084
 1222SOL    HW1 4351   7.113   5.322   5.013 -0.5194  1.3582 -2.4722
 1222SOL    HW2 4352   7.262   5.346   5.011 -0.4862  1.6656  0.0814
 1223SOL     OW 4353   3.918   4.972   1.499 -0.4069  0.1746  0.7265
 1223SOL    HW1 4354   3.844   5.013   1.454 -0.4221 -1.8256 -1.2032
 1223SOL    HW2 4355   3.988   5.037   1.493 -0.7962  0.4743 -1.1379
 1224SOL     OW 4356   0.723   4.316   5.957 -0.0016  0.4008  0.0205
 1224SOL    HW1 4357   0.685   4.229   5.944  0.6574 -0.2685  2.1226
 1224SOL    HW2 4358   0.684   4.347   6.039  1.0239  1.3759  0.1656
 1225SOL     OW 4359   2.552   1.174   4.832  0.2063 -0.2808 -0.0567
 1225SOL    HW1 4360   2.472   1.134   4.797  0.1523 -2.0903  1.9408
 1225SOL    HW2 4361   2.522   1.250   4.880  0.1115  1.1629 -2.2471
 1226SOL     OW 4362   2.279   2.326   2.619 -0.7911 -0.2331  0.4138
 1226SOL    HW1 4363   2.369   2.328   2.585 -0.8113  1.2155  0.3708
 1226SOL    HW2 4364   2.237   2.253   2.574 -0.3589  0.6286 -1.4806
 1227SOL     OW 4365   4.540   3.392   2.552  0.2189  0.4306 -0.1067
 1227SOL    HW1 4366   4.543   3.336   2.630  0.6346  0.9354  0.2464
 1227SOL    HW2 4367   4.561   3.334   2.480  0.2685  0.0498  0.2116
 1228SOL     OW 4368   1.214   6.159   5.992 -0.1512  0.3429 -1.1865
 1228SOL    HW1 4369   1.296   6.180   6.036 -0.1804 -1.3364 -0.2523
 1228SOL    HW2 4370   1.169   6.243   5.982  1.1026  1.1127 -0.5673
 1229SOL     OW 4371   3.676   4.809   0.640 -0.1466  0.4937 -0.1952
 1229SOL    HW1 4372   3.640   4.725   0.667  1.3359  0.2862  1.3605
 1229SOL    HW2 4373   3.669   4.864   0.718  0.1034  1.3869 -0.7902
 1230SOL     OW 4374   6.076   6.404   2.209  0.2592 -0.2136 -0.2783
 1230SOL    HW1 4375   6.082   6.382   2.116  0.0518 -0.4338 -0.2423
 1230SOL    HW2 4376   6.064   6.499   2.211  0.1056 -0.2286 -0.4822
 1231SOL     OW 4377   5.456   3.172   0.410  0.4913 -0.2767 -0.3822
 1231SOL    HW1 4378   5.544   3.194   0.440  1.2175 -0.5371 -2.1481
 1231SOL    HW2 4379   5.463   3.172   0.314 -1.9565  1.8267 -0.6701
 1232SOL     OW 4380   7.450   5.064   6.069  0.4729  0.0648 -0.0319
 1232SOL    HW1 4381   7.501   5.033   6.144 -0.8451  0.9459  1.2798
 1232SOL    HW2 4382   7.397   4.988   6.044  0.3144  0.0030  0.4760
 1233SOL     OW 4383   6.046   6.148   6.285 -0.2789  0.0361 -0.4858
 1233SOL    HW1 4384   6.120   6.118   6.338 -1.0679 -1.3063 -0.0874
 1233SOL    HW2 4385   6.026   6.235   6.318 -0.6266 -0.6985  1.3190
 1234SOL     OW 4386   2.302   4.834   3.182  0.6559  0.2821 -0.0690
 1234SOL    HW1 4387   2.316   4.928   3.170  0.3281  0.2619 -0.6976
 1234SOL    HW2 4388   2.261   4.806   3.100 -2.5852  0.2774  1.3805
 1235SOL     OW 4389   1.647   7.270   0.890  0.4740 -0.0465  0.2645
 1235SOL    HW1 4390   1.644   7.289   0.983  1.2211 -0.0502  0.2942
 1235SOL    HW2 4391   1.678   7.352   0.850  3.2343 -0.9745  0.3429
 1236SOL     OW 4392   1.239   0.987   6.717  0.3447 -0.0561 -0.0989
 1236SOL    HW1 4393   1.216   0.936   6.639  0.5125  0.1336 -0.2757
 1236SOL    HW2 4394   1.160   1.036   6.738 -0.0888 -1.0181  0.5753
 1237SOL     OW 4395   1.629   5.282   2.801 -0.7376 -0.0043 -0.2131
 1237SOL    HW1 4396   1.603   5.288   2.893 -1.6389 -0.1845 -0.4443
 1237SOL    HW2 4397   1.687   5.357   2.787  1.4556 -1.3702  1.1202
 1238SOL     OW 4398   5.106   0.858   6.614  0.7205  0.7921 -0.0675
 1238SOL    HW1 4399   5.186   0.904   6.588  0.5593  2.6072  2.2649
 1238SOL    HW2 4400   5.036   0.901   6.566  0.8926  0.8808 -0.2384
 1239SOL     OW 4401   4.419   7.505   4.930  0.1290 -0.5731  0.7603
 1239SOL    HW1 4402   4.400   7.592   4.895  2.2511 -0.0948  0.6381
 1239SOL    HW2 4403   4.487   7.520   4.996 -0.0977 -2.0554  1.3809
 1240SOL     OW 4404   3.690   5.581   0.999  0.3685 -0.2446  0.7899
 1240SOL    HW1 4405   3.613   5.583   0.942  0.8004 -0.8965  0.1624
 1240SOL    HW2 4406   3.705   5.488   1.015  2.5807 -0.3303 -1.2711
 1241SOL     OW 4407   4.802   1.204   1.246 -0.4215 -0.3222  0.1238
 1241SOL    HW1 4408   4.874   1.150   1.278  1.0110  2.3724  1.7789
 1241SOL    HW2 4409   4.841   1.257   1.176 -0.6059  1.4056  1.2599
 1242SOL     OW 4410   0.212   3.616   1.589  0.7895 -0.2311 -0.1896
 1242SOL    HW1 4411   0.207   3.673   1.666  0.5969  1.1042 -1.1431
 1242SOL    HW2 4412   0.167   3.536   1.615  1.7132 -0.2602  1.4491
 1243SOL     OW 4413   2.120   4.925   6.845 -0.0229  0.3667 -0.4587
 1243SOL    HW1 4414   2.073   5.007   6.861 -1.0238  0.2735 -2.6016
 1243SOL    HW2 4415   2.134   4.888   6.933 -0.5022  2.2791  0.4827
 1244SOL     OW 4416   3.620   2.593   1.827  0.3258 -0.2491 -0.3579
 1244SOL    HW1 4417   3.647   2.641   1.904  1.0386 -1.7015  0.3382
 1244SOL    HW2 4418   3.694   2.599   1.766  1.3708 -2.2622  0.6190
 1245SOL     OW 4419   1.895   2.259   7.019 -0.6122  0.5171 -0.4211
 1245SOL    HW1 4420   1.809   2.244   7.059  0.7707 -1.7673  1.9209
 1245SOL    HW2 4421   1.948   2.295   7.090  0.9559 -0.1967 -1.2018
 1246SOL     OW 4422   4.947   0.125   2.701 -0.1578 -0.4929  0.6822
 1246SOL    HW1 4423   4.925   0.050   2.755  4.2785 -1.7946  1.1074
 1246SOL    HW2 4424   4.990   0.088   2.624 -1.3637  1.5432 -1.1021
 1247SOL     OW 4425   4.640   3.477   2.191  0.0668 -0.7230 -0.2393
 1247SOL    HW1 4426   4.638   3.446   2.101 -1.1019 -2.4746  0.3368
 1247SOL    HW2 4427   4.632   3.398   2.244 -1.0977  0.3937  1.3713
 1248SOL     OW 4428   2.817   6.503   0.692 -0.2936  0.1740  0.3821
 1248SOL    HW1 4429   2.742   6.449   0.669 -1.3842  1.5629  0.5152
 1248SOL    HW2 4430   2.821   6.499   0.788 -0.5864  0.5760  0.4148
 1249SOL     OW 4431   0.902   1.750   4.708  0.3804  0.2279 -0.2262
 1249SOL    HW1 4432   0.956   1.815   4.754  1.8604  0.3651 -2.0436
 1249SOL    HW2 4433   0.852   1.708   4.778  1.1591  1.6613  1.2852
 1250SOL     OW 4434   2.516   5.230   7.277 -0.1183 -0.3275 -0.1773
 1250SOL    HW1 4435   2.422   5.211   7.272 -0.1497  0.0959 -1.7550
 1250SOL    HW2 4436   2.549   5.210   7.190  1.1233  0.2505  0.1404
 1251SOL     OW 4437   7.227   3.315   5.400 -0.9074  0.0371 -0.2744
 1251SOL    HW1 4438   7.232   3.410   5.411 -0.5557 -0.2354  3.0982
 1251SOL    HW2 4439   7.140   3.291   5.432 -1.2522 -0.7590 -1.7269
 1252SOL     OW 4440   6.916   3.065   5.187  0.0376  0.3407 -0.5171
 1252SOL    HW1 4441   6.892   3.048   5.278 -0.2009 -0.6898 -0.7557
 1252SOL    HW2 4442   6.927   3.160   5.182 -0.0400  0.4185  0.5594
 1253SOL     OW 4443   6.163   1.837   4.062  0.6657 -0.3625 -0.5170
 1253SOL    HW1 4444   6.094   1.844   3.997  0.6406  1.0221 -0.3819
 1253SOL    HW2 4445   6.117   1.833   4.146  0.6962 -2.1757 -0.5400
 1254SOL     OW 4446   6.767   1.717   1.527  0.0680  0.5761 -0.5085
 1254SOL    HW1 4447   6.685   1.667   1.521 -0.3179  1.1816 -0.3211
 1254SOL    HW2 4448   6.796   1.727   1.436  0.1132  0.0745 -0.5524
 1255SOL     OW 4449   0.208   5.322   2.811  0.0423  0.1133 -0.0691
 1255SOL    HW1 4450   0.236   5.237   2.845 -0.0711  1.3209  3.5115
 1255SOL    HW2 4451   0.115   5.311   2.793 -0.3632 -0.1537  1.9783
 1256SOL     OW 4452   1.550   6.199   3.504 -0.3385 -0.0641 -0.2599
 1256SOL    HW1 4453   1.576   6.214   3.413 -2.2959 -0.4646 -0.9234
 1256SOL    HW2 4454   1.466   6.155   3.498 -0.4975 -0.1169  1.7683
 1257SOL     OW 4455   2.457   1.769   5.812  0.7208  0.1220  0.2564
 1257SOL    HW1 4456   2.472   1.766   5.906 -0.7318 -1.1036  0.4758
 1257SOL    HW2 4457   2.377   1.719   5.798  1.2665 -0.3008 -1.7147
 1258SOL     OW 4458   5.502   3.045   0.655  0.0244 -0.3994 -0.2400
 1258SOL    HW1 4459   5.466   3.085   0.576  0.7219 -0.5206 -0.6212
 1258SOL    HW2 4460   5.424   3.016   0.704 -0.4037 -0.6856 -1.0639
 1259SOL     OW 4461   0.376   3.545   4.340 -0.2242  0.1696  0.5670
 1259SOL    HW1 4462   0.350   3.626   4.386  1.0815  0.8261  0.2058
 1259SOL    HW2 4463   0.469   3.557   4.323  0.0239 -1.5012  0.6308
 1260SOL     OW 4464   2.397   0.725   1.050 -0.2192  0.1127 -0.3691
 1260SOL    HW1 4465   2.481   0.772   1.041  0.8934 -1.8724 -0.9909
 1260SOL    HW2 4466   2.335   0.778   0.999  1.3738  0.0987 -2.4977
 1261SOL     OW 4467   2.695   3.402   2.466  0.4032 -0.4432  0.2897
 1261SOL    HW1 4468   2.735   3.332   2.414 -0.6936 -0.7645 -0.1364
 1261SOL    HW2 4469   2.770   3.455   2.495  1.2232 -1.6112  0.3734
 1262SOL     OW 4470   0.944   6.068   4.054 -0.4266  0.1997 -0.3171
 1262SOL    HW1 4471   1.034   6.081   4.022 -0.0317 -0.0662  0.6391
 1262SOL    HW2 4472   0.953   6.072   4.149 -1.3831 -0.1997 -0.2090
 1263SOL     OW 4473   6.566   5.080   6.824  0.7799 -0.2791 -0.1566
 1263SOL    HW1 4474   6.618   5.154   6.792 -1.5855  1.2621 -0.7424
 1263SOL    HW2 4475   6.565   5.091   6.919  0.4881  0.4521 -0.2354
 1264SOL     OW 4476   4.372   1.720   7.192 -0.2845 -0.4554 -0.5224
 1264SOL    HW1 4477   4.323   1.786   7.241  0.8704 -0.9321  1.4095
 1264SOL    HW2 4478   4.421   1.770   7.126  0.3671  0.6368  0.7294
 1265SOL     OW 4479   3.818   7.395   3.552 -0.4151  0.3779 -0.2981
 1265SOL    HW1 4480   3.808   7.349   3.469 -0.1334 -0.2560  0.0091
 1265SOL    HW2 4481   3.905   7.370   3.583 -0.4136  0.8120  0.0673
 1266SOL     OW 4482   7.202   1.031   3.263 -0.0669  0.1379 -0.3226
 1266SOL    HW1 4483   7.208   1.094   3.334  0.9624  0.4272 -0.6466
 1266SOL    HW2 4484   7.151   1.076   3.195 -0.5652  0.0693 -0.0039
 1267SOL     OW 4485   5.342   1.073   2.606  0.0200  0.1539  0.1384
 1267SOL    HW1 4486   5.374   1.067   2.516  3.2335 -0.9121  1.2001
 1267SOL    HW2 4487   5.333   1.167   2.623  0.4678  0.4042 -0.9615
 1268SOL     OW 4488   0.592   2.709   7.418 -0.4434 -0.3015  0.4521
 1268SOL    HW1 4489   0.594   2.619   7.386  1.1566 -0.1761  0.1182
 1268SOL    HW2 4490   0.499   2.730   7.426 -0.8982 -1.0828 -2.0311
 1269SOL     OW 4491   3.777   3.161   2.722  0.4945  0.2672 -0.1850
 1269SOL    HW1 4492   3.825   3.086   2.757  0.4359  0.0706 -0.5206
 1269SOL    HW2 4493   3.702   3.122   2.677  2.0182  0.2734 -2.9539
 1270SOL     OW 4494   4.500   2.286   2.567  0.6829 -0.1157 -0.7248
 1270SOL    HW1 4495   4.586   2.319   2.592  1.1649 -1.9257  0.1729
 1270SOL    HW2 4496   4.518   2.222   2.498  0.0512 -0.4470 -0.5860
 1271SOL     OW 4497   4.933   3.253   0.908 -0.2145  0.3215  0.3503
 1271SOL    HW1 4498   5.021   3.218   0.898 -0.8456 -1.4415  0.7112
 1271SOL    HW2 4499   4.921   3.308   0.830  1.8320  2.1357  1.2015
 1272SOL     OW 4500   7.389   3.198   5.009 -0.0103 -0.3111 -0.0170
 1272SOL    HW1 4501   7.470   3.188   5.060 -0.9069 -0.5806  1.3916
 1272SOL    HW2 4502   7.321   3.158   5.063 -1.2242  0.5587 -0.8469
 1273SOL     OW 4503   2.410   4.763   5.873 -0.1565 -0.1799 -0.3279
 1273SOL    HW1 4504   2.336   4.812   5.838 -1.7612 -2.2497 -0.0280
 1273SOL    HW2 4505   2.431   4.806   5.956 -1.4539  0.0246 -0.0977
 1274SOL     OW 4506   3.359   6.655   7.574  0.5465 -0.2713 -0.4629
 1274SOL    HW1 4507   3.452   6.656   7.595  0.2204  2.0982  1.3435
 1274SOL    HW2 4508   3.318   6.616   7.651  0.0381 -1.7464 -1.4485
 1275SOL     OW 4509   5.748   7.158   0.262 -0.2239  0.4866  0.3658
 1275SOL    HW1 4510   5.814   7.143   0.195  0.7170  0.8899  1.1730
 1275SOL    HW2 4511   5.757   7.084   0.322  0.2485  1.0967  1.0613
 1276SOL     OW 4512   0.785   3.634   3.587 -0.6652  0.0918 -0.1130
 1276SOL    HW1 4513   0.724   3.707   3.595 -0.2864  0.4146 -0.1583
 1276SOL    HW2 4514   0.850   3.663   3.523  0.3776  0.3490  1.0326
 1277SOL     OW 4515   2.638   5.882   0.020 -0.6950 -0.7482  0.2022
 1277SOL    HW1 4516   2.705   5.945   0.046 -0.3413 -0.7405 -0.6789
 1277SOL    HW2 4517   2.616   5.835   0.100 -1.0284  0.5490  0.8913
 1278SOL     OW 4518   4.130   5.774   6.860  0.1712  0.0213 -0.6386
 1278SOL    HW1 4519   4.087   5.724   6.931  0.4649 -3.1850 -2.5214
 1278SOL    HW2 4520   4.061   5.787   6.795  0.0295  2.5306 -0.1005
 1279SOL     OW 4521   1.695   3.756   2.566  0.2626 -0.1381 -0.0941
 1279SOL    HW1 4522   1.615   3.756   2.512  0.4059  1.1925 -0.3456
 1279SOL    HW2 4523   1.663   3.757   2.656 -0.0817  1.6711 -0.1845
 1280SOL     OW 4524   6.949   7.664   4.655 -0.2288 -0.1106 -0.0730
 1280SOL    HW1 4525   6.924   7.592   4.597 -0.2114  0.3547 -0.6697
 1280SOL    HW2 4526   6.868   7.689   4.699 -0.1240 -0.8590  0.5511
 1281SOL     OW 4527   5.371   3.516   0.030 -0.1770 -0.4101 -0.5095
 1281SOL    HW1 4528   5.370   3.467  -0.052  2.8880  0.9658 -1.5322
 1281SOL    HW2 4529   5.444   3.479   0.079  0.7747  1.5749 -0.3355
 1282SOL     OW 4530   0.796   4.214   0.875 -0.7050 -0.4761  0.2655
 1282SOL    HW1 4531   0.821   4.245   0.788  0.5484 -0.4769  0.6146
 1282SOL    HW2 4532   0.705   4.187   0.865 -0.7904  0.1728 -0.8734
 1283SOL     OW 4533   2.588   1.362   1.667 -0.3699  0.0001  0.0541
 1283SOL    HW1 4534   2.664   1.419   1.658 -0.1713 -0.4229 -1.0843
 1283SOL    HW2 4535   2.560   1.374   1.758 -0.1949  1.7280 -0.0745
 1284SOL     OW 4536   1.341   4.193   6.781  0.0888 -0.0721  0.1031
 1284SOL    HW1 4537   1.331   4.266   6.720  1.1881  0.3125  0.3457
 1284SOL    HW2 4538   1.399   4.132   6.735 -1.5578 -1.2468 -0.4722
 1285SOL     OW 4539   5.005   1.926   2.232 -0.5782 -0.7534  0.0774
 1285SOL    HW1 4540   5.017   1.958   2.143 -3.3454  0.0259 -0.1112
 1285SOL    HW2 4541   4.989   1.832   2.221 -1.9463 -0.4888 -0.4060
 1286SOL     OW 4542   5.750   6.678   3.980 -0.0157 -0.3758 -0.4183
 1286SOL    HW1 4543   5.755   6.774   3.984  0.0908 -0.2830 -2.0837
 1286SOL    HW2 4544   5.678   6.661   3.919  0.3769 -1.3484 -0.6143
 1287SOL     OW 4545   1.246   2.995   2.592  0.2481  0.3762 -0.6069
 1287SOL    HW1 4546   1.279   2.977   2.680  0.3271  1.7220 -0.3397
 1287SOL    HW2 4547   1.323   2.995   2.537  0.5835  2.2671 -0.1936
 1288SOL     OW 4548   1.113   0.186   3.466  0.4260  1.1015 -0.0804
 1288SOL    HW1 4549   1.089   0.227   3.383 -1.9740  1.4943  0.7300
 1288SOL    HW2 4550   1.125   0.259   3.527  0.0816  0.7632  0.4100
 1289SOL     OW 4551   1.347   4.551   5.150 -0.3470  0.0253  0.1073
 1289SOL    HW1 4552   1.381   4.576   5.064 -1.0076 -0.4577 -0.2936
 1289SOL    HW2 4553   1.406   4.595   5.212  0.6090 -0.2679 -0.5798
 1290SOL     OW 4554   4.435   5.441   3.834 -0.1637  0.1613  0.3736
 1290SOL    HW1 4555   4.517   5.401   3.806 -0.9671 -1.9480  0.8765
 1290SOL    HW2 4556   4.395   5.474   3.754  0.4215 -0.2494 -0.0915
 1291SOL     OW 4557   3.262   3.550   6.544  0.3022  0.6025 -0.1111
 1291SOL    HW1 4558   3.270   3.510   6.457 -0.8758 -0.3255  0.1890
 1291SOL    HW2 4559   3.256   3.644   6.526 -0.6576  0.3828 -1.1030
 1292SOL     OW 4560   0.610   5.162   6.890 -1.0445  0.2938 -0.9429
 1292SOL    HW1 4561   0.584   5.215   6.965 -1.5052 -0.4998 -0.5285
 1292SOL    HW2 4562   0.699   5.133   6.911 -0.9748  0.4970 -0.9503
 1293SOL     OW 4563   7.314   4.430   6.405  0.7970 -0.6649 -0.0832
 1293SOL    HW1 4564   7.239   4.479   6.437  1.0467  0.1443 -0.6895
 1293SOL    HW2 4565   7.339   4.373   6.477 -0.3921 -0.9433  0.1192
 1294SOL     OW 4566   2.779   1.791   0.611 -0.2436 -0.4117  0.5135
 1294SOL    HW1 4567   2.754   1.743   0.533  0.5117  1.8215 -1.2108
 1294SOL    HW2 4568   2.700   1.840   0.636  0.0723  0.4090 -0.0702
 1295SOL     OW 4569   5.938   2.738   2.958 -0.0877 -0.2326 -0.0038
 1295SOL    HW1 4570   5.940   2.822   2.911 -0.8241 -0.3135 -0.1857
 1295SOL    HW2 4571   5.989   2.754   3.038  0.1319  0.2622 -0.2377
 1296SOL     OW 4572   2.764   5.189   5.580  0.0871  0.1557 -0.1902
 1296SOL    HW1 4573   2.674   5.159   5.575 -0.4162  1.7623 -2.0510
 1296SOL    HW2 4574   2.760   5.267   5.636 -0.3393  2.1308 -2.8099
 1297SOL     OW 4575   6.370   3.258   6.678  0.5679  0.2095 -0.0259
 1297SOL    HW1 4576   6.298   3.218   6.629 -0.3514 -1.1818  2.2998
 1297SOL    HW2 4577   6.448   3.214   6.645 -0.1769 -1.7928  0.7080
 1298SOL     OW 4578   2.802   3.478   0.415  0.2515 -0.7255 -0.0609
 1298SOL    HW1 4579   2.849   3.556   0.387  0.4514 -1.0446 -0.6245
 1298SOL    HW2 4580   2.718   3.482   0.369  0.0992 -0.6385  0.2203
 1299SOL     OW 4581   1.845   1.138   0.704  0.1335 -0.1469  0.0128
 1299SOL    HW1 4582   1.902   1.171   0.773 -0.6649  0.8072  0.2379
 1299SOL    HW2 4583   1.858   1.043   0.705 -0.1476 -0.2022  1.7511
 1300SOL     OW 4584   6.193   6.187   2.530  0.1128 -0.0568  0.2342
 1300SOL    HW1 4585   6.102   6.200   2.555 -0.0806  0.7936 -0.8506
 1300SOL    HW2 4586   6.214   6.262   2.474  0.9321 -1.1128 -0.9511
 1301SOL     OW 4587   2.965   1.550   6.073 -0.1246  0.4398 -0.0936
 1301SOL    HW1 4588   2.977   1.461   6.038  1.7107  0.5239  0.2168
 1301SOL    HW2 4589   3.030   1.603   6.026 -0.1729  1.3096  0.7973
 1302SOL     OW 4590   5.414   7.478   7.464 -0.4753  0.0739 -0.5231
 1302SOL    HW1 4591   5.487   7.529   7.430  0.1156 -0.3238  0.1296
 1302SOL    HW2 4592   5.403   7.406   7.402 -1.1610  0.8370 -1.3189
 1303SOL     OW 4593   6.729   1.287   0.866 -0.0237 -0.1989  0.0422
 1303SOL    HW1 4594   6.717   1.358   0.928 -0.0902 -0.4968  0.3750
 1303SOL    HW2 4595   6.762   1.214   0.919  0.7578 -0.1871 -0.4147
 1304SOL     OW 4596   3.799   3.208   5.308 -0.1286  0.3123  0.4324
 1304SOL    HW1 4597   3.755   3.123   5.297  0.1297  0.2631 -0.2670
 1304SOL    HW2 4598   3.888   3.186   5.335  0.2886  0.3008 -0.8710
 1305SOL     OW 4599   2.648   6.060   6.752 -0.2949  0.2516 -0.2389
 1305SOL    HW1 4600   2.686   6.131   6.700  0.0577  1.3714  1.4657
 1305SOL    HW2 4601   2.665   6.085   6.843 -0.0721 -2.0785  0.4274
 1306SOL     OW 4602   5.419   3.374   1.871  0.5264 -0.1831  0.1688
 1306SOL    HW1 4603   5.370   3.445   1.828  0.4395  0.7161  1.6763
 1306SOL    HW2 4604   5.447   3.318   1.799 -2.7738 -0.8165 -0.8167
 1307SOL     OW 4605   7.498   2.097   6.704  0.0644 -0.8805 -0.2862
 1307SOL    HW1 4606   7.444   2.142   6.638 -1.8649 -0.0420  1.7499
 1307SOL    HW2 4607   7.529   2.018   6.659  1.1305  0.9298 -3.0418
 1308SOL     OW 4608   1.912   2.856   1.934  0.5381 -0.0305 -0.4403
 1308SOL    HW1 4609   1.954   2.942   1.937 -2.8344  1.8522 -1.8330
 1308SOL    HW2 4610   1.959   2.810   1.865  1.6045  1.1635 -0.5619
 1309SOL     OW 4611   2.020   6.604   0.358  0.1088 -0.8123  0.0379
 1309SOL    HW1 4612   1.987   6.516   0.339  0.3948 -0.8017 -0.5252
 1309SOL    HW2 4613   2.057   6.634   0.275 -0.3033 -0.0228  0.1344
 1310SOL     OW 4614   4.362   1.593   0.865 -0.1125 -0.3883  0.1328
 1310SOL    HW1 4615   4.380   1.632   0.950  1.0481 -4.0820  1.7950
 1310SOL    HW2 4616   4.440   1.612   0.813  0.6991 -0.9176  1.1116
 1311SOL     OW 4617   4.149   4.359   4.848  0.3554 -0.4088  0.1514
 1311SOL    HW1 4618   4.193   4.312   4.777  2.0706 -0.9434  1.5026
 1311SOL    HW2 4619   4.175   4.450   4.836 -0.7956 -0.1915 -0.8980
 1312SOL     OW 4620   7.161   5.964   5.776 -0.4209 -0.2713 -0.3552
 1312SOL    HW1 4621   7.175   6.057   5.792 -2.1242 -0.1145  0.5261
 1312SOL    HW2 4622   7.118   5.932   5.855 -0.0406 -1.7820 -0.7112
 1313SOL     OW 4623   4.489   5.928   7.638 -0.0260  0.3997  0.1296
 1313SOL    HW1 4624   4.492   6.024   7.647  0.1170  0.2341  2.4059
 1313SOL    HW2 4625   4.580   5.901   7.644 -0.2194  0.0028  1.7556
 1314SOL     OW 4626   1.317   2.572   6.321 -0.2762  0.2640 -0.2347
 1314SOL    HW1 4627   1.268   2.647   6.286  0.7150  1.1663  0.2788
 1314SOL    HW2 4628   1.396   2.609   6.357 -0.7520 -0.7568  2.0167
 1315SOL     OW 4629   0.572   4.677   6.482 -0.6196 -0.0253  0.0090
 1315SOL    HW1 4630   0.481   4.704   6.472 -0.0927  1.8277 -0.1433
 1315SOL    HW2 4631   0.609   4.683   6.394 -0.7209 -2.4230 -0.2635
 1316SOL     OW 4632   0.276   2.118   1.104 -1.2431  0.0091  0.7676
 1316SOL    HW1 4633   0.217   2.161   1.167 -3.6647 -2.6648  0.5424
 1316SOL    HW2 4634   0.228   2.040   1.076  1.7588 -1.4184 -0.8470
 1317SOL     OW 4635   5.007   7.028   3.099 -0.0367  0.6337  0.1954
 1317SOL    HW1 4636   5.031   7.009   3.008 -1.3325 -2.5204  0.3469
 1317SOL    HW2 4637   5.090   7.044   3.144  0.6753  1.5957 -1.3814
 1318SOL     OW 4638   4.278   4.744   2.843 -0.1948  0.2177 -0.2264
 1318SOL    HW1 4639   4.291   4.652   2.866 -0.7104  0.2237  0.1112
 1318SOL    HW2 4640   4.208   4.742   2.778  0.5456  0.2882 -1.0528
 1319SOL     OW 4641   1.357   5.348   4.209  0.2349  0.0547 -0.0374
 1319SOL    HW1 4642   1.284   5.287   4.218  0.0715  0.3980  1.1866
 1319SOL    HW2 4643   1.431   5.294   4.182 -0.0298 -0.6145  0.5457
 1320SOL     OW 4644   3.514   1.567   7.175  0.4770  0.0534 -0.0041
 1320SOL    HW1 4645   3.470   1.593   7.094 -1.0458  0.3051  0.8594
 1320SOL    HW2 4646   3.593   1.522   7.146 -0.6877 -1.0575 -1.6725
 1321SOL     OW 4647   1.445   7.711   4.413 -0.3612 -0.2850 -0.2219
 1321SOL    HW1 4648   1.363   7.721   4.364 -1.1168  0.6761  1.1672
 1321SOL    HW2 4649   1.501   7.781   4.381  0.2628 -1.4083 -1.7328
 1322SOL     OW 4650   0.150   5.493   1.924  0.2036  0.4340  0.3597
 1322SOL    HW1 4651   0.193   5.493   1.839  1.0306  1.0869  0.7595
 1322SOL    HW2 4652   0.194   5.423   1.973 -1.3345 -1.0076 -0.2422
 1323SOL     OW 4653   1.918   7.331   6.636  0.5850  0.1529 -0.0841
 1323SOL    HW1 4654   1.988   7.271   6.662 -0.1900 -0.9165 -0.3845
 1323SOL    HW2 4655   1.945   7.362   6.549  0.2070 -1.0733 -0.6665
 1324SOL     OW 4656   6.061   0.057   2.754  0.4717  0.3070  0.7056
 1324SOL    HW1 4657   6.006  -0.001   2.701 -0.2308  1.8752 -0.3423
 1324SOL    HW2 4658   6.007   0.077   2.830 -0.1481  1.2607  0.0324
 1325SOL     OW 4659   6.507   3.644   2.373  0.0390  0.6952  0.8915
 1325SOL    HW1 4660   6.581   3.595   2.338 -0.4691 -0.1044  0.9104
 1325SOL    HW2 4661   6.430   3.597   2.340 -0.5011  2.4093 -0.4327
 1326SOL     OW 4662   5.534   1.107   3.520 -0.3047 -0.4608  0.1642
 1326SOL    HW1 4663   5.599   1.171   3.492 -1.1966  0.4228  0.0207
 1326SOL    HW2 4664   5.584   1.030   3.547  0.7490 -0.0001 -0.4530
 1327SOL     OW 4665   5.721   4.349   4.472  0.3963  0.2993 -0.3449
 1327SOL    HW1 4666   5.786   4.403   4.518 -1.4358  1.0672  1.5537
 1327SOL    HW2 4667   5.676   4.411   4.414  0.3092  0.1203 -0.4678
 1328SOL     OW 4668   1.528   0.928   5.043 -0.5622 -0.4306  0.2891
 1328SOL    HW1 4669   1.613   0.885   5.042 -0.1887  0.2483  1.5376
 1328SOL    HW2 4670   1.512   0.952   4.952  0.9996  0.2205  0.1552
 1329SOL     OW 4671   4.489   4.111   4.371  0.3020 -0.0525  0.7596
 1329SOL    HW1 4672   4.472   4.018   4.361  0.4702 -0.1150  1.0569
 1329SOL    HW2 4673   4.404   4.153   4.352  0.7200 -0.1062 -1.5631
 1330SOL     OW 4674   5.900   4.987   4.208  0.1359  0.0476  0.3731
 1330SOL    HW1 4675   5.854   5.015   4.128 -0.5439 -0.9824  0.3793
 1330SOL    HW2 4676   5.977   5.044   4.212 -0.7103  1.2816 -0.0802
 1331SOL     OW 4677   0.140   2.494   5.752 -0.5909 -0.2662  0.1128
 1331SOL    HW1 4678   0.057   2.541   5.763 -0.0005  0.6133  0.9887
 1331SOL    HW2 4679   0.179   2.532   5.673 -0.5882  0.0123  0.2444
 1332SOL     OW 4680   7.107   1.107   2.043 -0.4546 -0.4651 -0.3436
 1332SOL    HW1 4681   7.164   1.127   2.117  0.2958 -0.7778 -0.8219
 1332SOL    HW2 4682   7.117   1.181   1.983  0.2153 -0.9525 -0.8644
 1333SOL     OW 4683   1.033   6.472   4.722  0.2795 -0.0163 -0.6740
 1333SOL    HW1 4684   1.086   6.400   4.687  0.2769 -0.1993 -0.3095
 1333SOL    HW2 4685   0.949   6.463   4.678 -0.6429 -1.8903  1.2955
 1334SOL     OW 4686   6.263   0.227   5.956  0.1015 -0.5170  0.0396
 1334SOL    HW1 4687   6.257   0.132   5.940 -0.5955 -0.1985 -1.8856
 1334SOL    HW2 4688   6.175   0.260   5.938  0.5763  0.6216 -0.2665
 1335SOL     OW 4689   4.516   2.754   3.874  0.0250 -0.0025 -0.4220
 1335SOL    HW1 4690   4.597   2.783   3.833 -0.0501  0.2316 -0.4055
 1335SOL    HW2 4691   4.473   2.701   3.807  0.8867 -1.3755  0.0700
 1336SOL     OW 4692   6.830   3.309   6.219 -0.6688 -0.2098  0.0105
 1336SOL    HW1 4693   6.802   3.295   6.129  0.3808  0.5575 -0.4598
 1336SOL    HW2 4694   6.776   3.382   6.250  0.1091  0.6537 -0.5858
 1337SOL     OW 4695   6.319   2.834   2.340 -0.0479 -0.5866 -0.7099
 1337SOL    HW1 4696   6.242   2.888   2.359 -0.7444 -1.8809  0.3020
 1337SOL    HW2 4697   6.284   2.762   2.287  0.6306 -0.7486 -0.9435
 1338SOL     OW 4698   1.723   0.036   6.528  0.8384  0.6359 -0.0589
 1338SOL    HW1 4699   1.747   0.124   6.558  0.9823  0.5360  0.1268
 1338SOL    HW2 4700   1.807  -0.009   6.518  0.7345  0.2975  0.5441
 1339SOL     OW 4701   5.388   4.189   5.804 -0.7074 -0.8371  0.3943
 1339SOL    HW1 4702   5.294   4.195   5.821 -0.7649 -0.4370 -0.0495
 1339SOL    HW2 4703   5.422   4.136   5.876 -0.8558  1.2331  2.0647
 1340SOL     OW 4704   1.582   7.670   4.061 -0.0566 -1.1735 -0.0449
 1340SOL    HW1 4705   1.504   7.625   4.094 -1.4184 -0.0995 -1.6378
 1340SOL    HW2 4706   1.626   7.604   4.008 -0.2084 -1.6087  0.3569
 1341SOL     OW 4707   5.039   4.344   7.001 -0.2556  0.3040  0.2480
 1341SOL    HW1 4708   4.996   4.290   7.067  0.9069 -0.9929 -0.0077
 1341SOL    HW2 4709   5.123   4.367   7.040  0.4335 -0.4558 -0.7318
 1342SOL     OW 4710   0.607   4.131   4.385  0.3250 -0.5393 -0.3678
 1342SOL    HW1 4711   0.552   4.052   4.385 -1.1356  0.3878  1.4834
 1342SOL    HW2 4712   0.545   4.203   4.370  1.6779  0.2744 -2.4049
 1343SOL     OW 4713   4.022   6.831   7.085  0.2565  0.2635  0.2320
 1343SOL    HW1 4714   4.016   6.785   7.169 -1.6978  0.7625  0.4092
 1343SOL    HW2 4715   3.988   6.769   7.021 -0.2597  0.6298  0.1412
 1344SOL     OW 4716   1.056   1.165   1.542 -0.8044 -0.5928 -0.3114
 1344SOL    HW1 4717   1.016   1.180   1.628 -2.6219 -1.6301 -0.9343
 1344SOL    HW2 4718   1.000   1.100   1.500 -1.3903  1.6085 -3.2554
 1345SOL     OW 4719   4.702   3.168   7.109 -0.6455 -0.3631 -0.4172
 1345SOL    HW1 4720   4.716   3.230   7.037 -0.8571 -0.4013 -0.4907
 1345SOL    HW2 4721   4.702   3.082   7.066  0.4409 -0.4786 -0.2180
 1346SOL     OW 4722   4.113   1.037   4.023  0.2527 -0.5013 -0.1562
 1346SOL    HW1 4723   4.123   1.087   4.103  0.6440 -1.2052  0.2405
 1346SOL    HW2 4724   4.063   0.960   4.049  0.1209 -0.5889 -0.6516
 1347SOL     OW 4725   6.120   5.644   6.462 -0.8290 -0.1891  0.6231
 1347SOL    HW1 4726   6.081   5.731   6.458  0.1819  0.4498  2.8799
 1347SOL    HW2 4727   6.076   5.601   6.535 -1.8781 -1.9318 -0.9462
 1348SOL     OW 4728   1.359   4.316   1.937  0.3437 -0.1194  0.0619
 1348SOL    HW1 4729   1.305   4.395   1.936  0.2456 -0.1761  0.7078
 1348SOL    HW2 4730   1.324   4.264   2.009  1.6781  0.1310  0.9232
 1349SOL     OW 4731   0.266   1.421   2.270  0.2527 -0.3768  0.4896
 1349SOL    HW1 4732   0.344   1.398   2.220  1.9214  0.4910  2.5089
 1349SOL    HW2 4733   0.300   1.473   2.344 -2.3010  0.4599  1.1761
 1350SOL     OW 4734   5.689   4.355   2.348  0.2738  0.4687 -0.0635
 1350SOL    HW1 4735   5.659   4.271   2.313  1.1460 -0.1411  0.6067
 1350SOL    HW2 4736   5.632   4.420   2.307 -0.5407 -0.4658 -0.4506
 1351SOL     OW 4737   5.922   2.715   6.292 -0.2946  0.4919  0.2425
 1351SOL    HW1 4738   5.894   2.785   6.350  0.0556  1.6040 -0.8902
 1351SOL    HW2 4739   5.903   2.747   6.204  0.5392 -0.5310 -0.3384
 1352SOL     OW 4740   1.844   4.247   6.434  0.0779  0.5321  0.3665
 1352SOL    HW1 4741   1.792   4.173   6.403  0.4161 -0.0599  1.1914
 1352SOL    HW2 4742   1.815   4.321   6.380 -0.5284 -0.1128 -0.2092
 1353SOL     OW 4743   6.499   7.374   3.963 -0.0787 -0.6767  0.3943
 1353SOL    HW1 4744   6.502   7.455   4.013  1.6100 -0.5917  0.2402
 1353SOL    HW2 4745   6.591   7.351   3.951 -0.5089 -2.0341 -0.5050
 1354SOL     OW 4746   3.429   2.315   3.964  0.0785 -0.6207  0.0015
 1354SOL    HW1 4747   3.492   2.363   3.910  0.4689  1.7304  2.3541
 1354SOL    HW2 4748   3.475   2.299   4.046 -2.0563  0.4667  1.5032
 1355SOL     OW 4749   3.485   5.645   5.518 -0.5325 -0.0940  0.1076
 1355SOL    HW1 4750   3.392   5.650   5.495 -0.7125  0.4965  0.9206
 1355SOL    HW2 4751   3.498   5.554   5.544 -1.0064 -0.0599  0.4810
 1356SOL     OW 4752   1.666   1.064   7.287 -0.1090 -0.2663  0.0737
 1356SOL    HW1 4753   1.710   1.109   7.359  1.7435 -1.2883 -0.3528
 1356SOL    HW2 4754   1.708   0.978   7.283 -0.4809 -0.4144 -1.9242
 1357SOL     OW 4755   6.719   3.202   5.692 -0.4368 -0.3560 -0.2564
 1357SOL    HW1 4756   6.763   3.201   5.777  1.1561  1.4844 -0.9927
 1357SOL    HW2 4757   6.687   3.291   5.682 -2.7169 -1.1341 -0.6348
 1358SOL     OW 4758   1.248   0.730   2.796  0.2178  0.2035 -0.6401
 1358SOL    HW1 4759   1.317   0.682   2.842 -0.5605  0.4620  0.8824
 1358SOL    HW2 4760   1.208   0.664   2.738 -0.6106 -0.9811  1.1615
 1359SOL     OW 4761   6.490   0.699   2.963  0.9619 -0.1786 -1.1767
 1359SOL    HW1 4762   6.399   0.715   2.989  0.9185  0.2162 -1.5582
 1359SOL    HW2 4763   6.530   0.786   2.965  1.0088 -0.1645 -2.2238
 1360SOL     OW 4764   1.696   6.842   5.700 -0.1972  0.4521  0.1195
 1360SOL    HW1 4765   1.701   6.770   5.636 -0.8277 -0.7673  1.4066
 1360SOL    HW2 4766   1.775   6.894   5.683  0.5339 -0.8162 -0.5200
 1361SOL     OW 4767   5.439   6.239   5.819  0.1018  0.3216  0.0633
 1361SOL    HW1 4768   5.534   6.240   5.830  0.3589 -1.8857 -1.4051
 1361SOL    HW2 4769   5.407   6.186   5.892 -0.0936  1.4646  0.8374
 1362SOL     OW 4770   3.516   4.827   5.820  0.1144  0.0448  0.1742
 1362SOL    HW1 4771   3.596   4.880   5.820  0.0764  0.1959  2.4092
 1362SOL    HW2 4772   3.468   4.855   5.743  0.6690  2.4091  0.6298
 1363SOL     OW 4773   6.659   4.984   6.176 -0.0201 -0.2648  0.0660
 1363SOL    HW1 4774   6.619   4.982   6.263  0.0807 -0.1384  0.1157
 1363SOL    HW2 4775   6.669   5.077   6.157  1.1889 -0.2863  0.4843
 1364SOL     OW 4776   0.182   1.700   7.145 -0.4645  0.1167  0.1719
 1364SOL    HW1 4777   0.104   1.645   7.149 -0.1138 -0.3443  0.7097
 1364SOL    HW2 4778   0.246   1.647   7.097  0.3058 -0.4870  1.8241
 1365SOL     OW 4779   5.518   6.483   2.279  0.1739  0.2461 -0.3667
 1365SOL    HW1 4780   5.426   6.492   2.256  0.5322  1.2307 -1.5402
 1365SOL    HW2 4781   5.518   6.438   2.363 -1.2685 -2.0990 -1.5344
 1366SOL     OW 4782   4.785   1.453   4.903 -0.2169  0.1364 -0.2482
 1366SOL    HW1 4783   4.823   1.425   4.820 -1.3725 -1.2226 -0.3601
 1366SOL    HW2 4784   4.702   1.406   4.909 -0.1309  0.1212  1.7203
 1367SOL     OW 4785   7.271   6.207   1.544 -0.0088  0.2621  0.3925
 1367SOL    HW1 4786   7.237   6.276   1.601 -0.7855 -0.7167  1.1410
 1367SOL    HW2 4787   7.295   6.136   1.603  2.7239  0.5903 -0.1468
 1368SOL     OW 4788   7.234   6.987   4.782 -0.6170  0.2929 -0.0412
 1368SOL    HW1 4789   7.187   6.941   4.712 -0.3446  0.6736 -0.4788
 1368SOL    HW2 4790   7.167   7.005   4.848 -0.9336  0.1850 -0.3291
 1369SOL     OW 4791   6.037   4.937   3.602  0.6332  0.6407  0.3970
 1369SOL    HW1 4792   6.034   4.993   3.525 -0.0001  1.3145  0.8928
 1369SOL    HW2 4793   5.979   4.981   3.665  2.1815  0.8442  1.7430
 1370SOL     OW 4794   6.358   7.128   3.979 -0.4809  0.0676 -0.1196
 1370SOL    HW1 4795   6.405   7.054   4.018 -2.1842 -1.8965 -1.5871
 1370SOL    HW2 4796   6.424   7.198   3.976  1.0176 -1.1285  1.9131
 1371SOL     OW 4797   6.605   2.133   4.454  0.4452  0.4644  0.0229
 1371SOL    HW1 4798   6.556   2.077   4.394  0.9076 -1.2382  1.1670
 1371SOL    HW2 4799   6.537   2.178   4.506  0.0613 -0.8444  0.6854
 1372SOL     OW 4800   0.252   0.815   4.963  0.4825  0.1668  0.3441
 1372SOL    HW1 4801   0.208   0.875   4.903 -0.5855  0.3805  1.3029
 1372SOL    HW2 4802   0.340   0.806   4.928  0.1993  1.1184 -0.6566
 1373SOL     OW 4803   5.940   1.429   3.042  0.1778  0.0474 -0.0219
 1373SOL    HW1 4804   5.911   1.504   3.093 -1.1926 -0.5985  0.1982
 1373SOL    HW2 4805   5.922   1.454   2.951 -0.7500 -0.1958  0.0861
 1374SOL     OW 4806   4.540   0.715   1.993  0.2016  0.2914 -0.2350
 1374SOL    HW1 4807   4.540   0.626   1.959 -1.9204  0.5250 -0.9913
 1374SOL    HW2 4808   4.620   0.754   1.958  2.1297 -1.7761  1.5902
 1375SOL     OW 4809   7.445   1.915   2.491  0.5601  0.2791  0.9941
 1375SOL    HW1 4810   7.504   1.876   2.426  0.9406  0.9171  0.9475
 1375SOL    HW2 4811   7.383   1.845   2.512  1.4777 -0.4915  1.2251
 1376SOL     OW 4812   1.121   4.244   0.270  0.0032  0.1896 -0.2929
 1376SOL    HW1 4813   1.131   4.222   0.178  0.2028 -0.4666 -0.1223
 1376SOL    HW2 4814   1.209   4.267   0.300 -0.3354  2.1046 -0.6714
 1377SOL     OW 4815   7.611   7.664   5.052  0.1472  0.0052  0.0335
 1377SOL    HW1 4816   7.544   7.611   5.096 -0.0393  1.1461  1.1954
 1377SOL    HW2 4817   7.590   7.657   4.959 -1.2879 -0.0942  0.3376
 1378SOL     OW 4818   4.508   2.350   4.719 -1.1329  0.1400 -0.0910
 1378SOL    HW1 4819   4.483   2.302   4.798 -0.6377  0.6270  0.3681
 1378SOL    HW2 4820   4.504   2.442   4.744 -0.8424  0.2922 -0.5941
 1379SOL     OW 4821   3.694   5.229   0.717  0.6068 -0.1778  0.2531
 1379SOL    HW1 4822   3.639   5.151   0.727 -0.6727  0.5523 -0.8245
 1379SOL    HW2 4823   3.688   5.250   0.624  1.9779  0.4720  0.2998
 1380SOL     OW 4824   6.288   7.294   7.259  0.0096  0.1819 -0.5915
 1380SOL    HW1 4825   6.211   7.296   7.202 -0.3102  3.8702 -0.2941
 1380SOL    HW2 4826   6.330   7.210   7.240 -3.4034 -1.4667 -1.6172
 1381SOL     OW 4827   6.198   0.281   1.055  0.5090  0.0952  0.1614
 1381SOL    HW1 4828   6.203   0.316   1.144  1.2657  0.1039  0.1265
 1381SOL    HW2 4829   6.136   0.339   1.010  0.5011  0.3906  0.5491
 1382SOL     OW 4830   4.186   7.293   0.016 -0.9142  0.1154 -0.6144
 1382SOL    HW1 4831   4.237   7.221  -0.022 -0.7574  0.3931 -0.9321
 1382SOL    HW2 4832   4.124   7.250   0.074 -0.4217 -0.2392 -0.3410
 1383SOL     OW 4833   6.970   3.514   5.754 -0.0760  0.2172  0.3840
 1383SOL    HW1 4834   6.959   3.593   5.807 -1.4656 -0.2707  0.8788
 1383SOL    HW2 4835   7.023   3.456   5.809  2.0994  1.2424 -0.5148
 1384SOL     OW 4836   2.602   0.898   5.245 -0.0941 -0.1498  0.3214
 1384SOL    HW1 4837   2.518   0.858   5.224 -0.5356  0.9115 -0.0072
 1384SOL    HW2 4838   2.603   0.980   5.195  1.3431 -0.3651 -0.0483
 1385SOL     OW 4839   2.935   2.833   0.831  0.1710  0.6880 -0.6975
 1385SOL    HW1 4840   2.886   2.901   0.784  1.7515  1.9945 -0.5639
 1385SOL    HW2 4841   2.995   2.798   0.765  0.1307  0.2029 -0.4789
 1386SOL     OW 4842   1.652   3.417   6.157  0.1605  0.1725 -0.2545
 1386SOL    HW1 4843   1.665   3.434   6.250 -0.7899  0.2872 -0.1373
 1386SOL    HW2 4844   1.603   3.335   6.153 -2.1455  1.4659 -0.5183
 1387SOL     OW 4845   7.610   5.813   3.382  0.3362  0.1987  0.1578
 1387SOL    HW1 4846   7.642   5.818   3.292  0.7498  0.5203  0.3165
 1387SOL    HW2 4847   7.539   5.876   3.387 -0.9909 -1.1676 -0.4473
 1388SOL     OW 4848   7.763   0.325   7.188  0.4543  0.3658 -0.1187
 1388SOL    HW1 4849   7.777   0.400   7.130  0.9193 -0.5118 -1.1787
 1388SOL    HW2 4850   7.672   0.299   7.173  0.0350  1.2076  0.8688
 1389SOL     OW 4851   0.602   2.715   5.051 -0.3577  0.4176 -0.5744
 1389SOL    HW1 4852   0.635   2.645   4.994 -0.0876  0.4871 -0.5031
 1389SOL    HW2 4853   0.650   2.793   5.023 -1.2083  0.7398 -1.1758
 1390SOL     OW 4854   5.784   3.364   7.084  0.3132 -0.0482  0.4339
 1390SOL    HW1 4855   5.701   3.411   7.089 -0.5705 -1.5853  0.6792
 1390SOL    HW2 4856   5.824   3.379   7.170 -0.7821 -1.1775  1.1718
 1391SOL     OW 4857   3.533   7.050   0.618  0.1827  0.4810 -0.1433
 1391SOL    HW1 4858   3.444   7.076   0.639  0.4638  0.4148  1.2828
 1391SOL    HW2 4859   3.537   6.957   0.641 -0.0112 -0.1512 -2.4449
 1392SOL     OW 4860   4.888   2.107   6.848  0.1907  0.2599  0.0357
 1392SOL    HW1 4861   4.950   2.119   6.776 -1.5871 -3.6440 -2.4891
 1392SOL    HW2 4862   4.922   2.032   6.897 -1.2566 -0.3741  0.1109
 1393SOL     OW 4863   5.135   4.429   4.393  0.0681  1.0642 -0.0776
 1393SOL    HW1 4864   5.215   4.482   4.398  0.7263  0.2724 -1.5048
 1393SOL    HW2 4865   5.133   4.398   4.303 -1.9937  1.2299 -0.1250
 1394SOL     OW 4866   1.151   5.831   2.542  0.1836 -0.2244  0.4067
 1394SOL    HW1 4867   1.113   5.918   2.558 -2.0115 -1.2246  1.1106
 1394SOL    HW2 4868   1.112   5.776   2.609 -0.4449 -2.2702 -1.5127
 1395SOL     OW 4869   0.074   0.215   3.610 -0.0084  0.1023  0.4743
 1395SOL    HW1 4870   0.067   0.158   3.687  0.4521  0.2803  0.6482
 1395SOL    HW2 4871   0.113   0.160   3.543  1.3964  0.4810  0.9396
 1396SOL     OW 4872   7.559   0.735   2.623 -0.3341  0.0253  0.4064
 1396SOL    HW1 4873   7.605   0.697   2.698  1.0808 -1.2125 -1.0300
 1396SOL    HW2 4874   7.482   0.778   2.662  0.1820 -0.8363  2.5231
 1397SOL     OW 4875   5.050   6.391   7.455  0.2202 -0.1880  0.1387
 1397SOL    HW1 4876   5.129   6.404   7.403 -1.1657  1.6697 -1.6819
 1397SOL    HW2 4877   5.063   6.446   7.532  0.7071  0.1305 -0.1661
 1398SOL     OW 4878   1.967   4.307   0.635  0.9789 -0.2105 -0.3663
 1398SOL    HW1 4879   1.981   4.316   0.730 -0.8981  0.1383 -0.0733
 1398SOL    HW2 4880   1.872   4.296   0.627  0.9868  0.8591 -2.2919
 1399SOL     OW 4881   1.649   6.281   1.577  0.1121  0.3408  0.5220
 1399SOL    HW1 4882   1.608   6.359   1.540  2.0081  0.5818 -1.1905
 1399SOL    HW2 4883   1.736   6.279   1.539  0.6845 -1.7564  1.7946
 1400SOL     OW 4884   3.441   2.729   5.137  0.5038 -0.0882  0.3110
 1400SOL    HW1 4885   3.536   2.736   5.131  0.4394 -0.4418 -1.5312
 1400SOL    HW2 4886   3.410   2.820   5.140  0.8999  0.0262  1.3656
 1401SOL     OW 4887   1.795   5.719   3.687 -0.3845 -0.0803  0.1149
 1401SOL    HW1 4888   1.713   5.769   3.685  0.5223  1.5072  0.6866
 1401SOL    HW2 4889   1.837   5.739   3.604  0.8158  1.6708  1.0689
 1402SOL     OW 4890   7.255   2.234   3.746  0.3584  0.3572 -0.0104
 1402SOL    HW1 4891   7.160   2.227   3.751  0.2923  0.0929 -1.4269
 1402SOL    HW2 4892   7.273   2.272   3.660  1.5914 -1.2333 -0.5107
 1403SOL     OW 4893   6.358   1.631   1.181  0.0985 -0.4370 -0.0709
 1403SOL    HW1 4894   6.303   1.570   1.230 -1.3427  0.5082 -0.4597
 1403SOL    HW2 4895   6.391   1.691   1.247 -1.2909  0.4222 -0.1118
 1404SOL     OW 4896   0.112   4.710   2.323  0.1249 -0.2708  0.1334
 1404SOL    HW1 4897   0.058   4.632   2.328 -1.3971  0.6820 -0.7802
 1404SOL    HW2 4898   0.068   4.767   2.259  0.6102  1.7610  1.4970
 1405SOL     OW 4899   3.059   4.556   3.718 -0.1613  1.0341 -0.0395
 1405SOL    HW1 4900   3.051   4.467   3.751 -0.6583  0.1857 -2.2457
 1405SOL    HW2 4901   2.979   4.600   3.746 -0.2464  0.5781  0.4531
 1406SOL     OW 4902   0.793   7.666   6.877 -0.4554  0.1101 -0.1200
 1406SOL    HW1 4903   0.803   7.579   6.839 -1.8418  0.1754 -0.7157
 1406SOL    HW2 4904   0.762   7.651   6.966 -1.7681 -0.0286 -0.5764
 1407SOL     OW 4905   5.994   6.608   4.457 -0.4837  0.1823 -0.0698
 1407SOL    HW1 4906   5.967   6.519   4.479  0.3161  0.1432  0.8420
 1407SOL    HW2 4907   5.968   6.620   4.366 -0.0109 -1.2226 -0.4100
 1408SOL     OW 4908   6.408   3.035   3.794  0.0217 -0.8630  0.5363
 1408SOL    HW1 4909   6.400   3.105   3.858 -1.0678  0.0638 -0.5524
 1408SOL    HW2 4910   6.333   2.978   3.811  0.1386 -1.0161  0.5456
 1409SOL     OW 4911   3.872   6.571   1.137  0.1524  0.1787  0.1671
 1409SOL    HW1 4912   3.895   6.507   1.069  0.0799  0.5580 -0.2230
 1409SOL    HW2 4913   3.921   6.650   1.113 -1.9651  1.2194 -1.0570
 1410SOL     OW 4914   0.462   5.535   3.506  0.1876  0.7891 -0.2214
 1410SOL    HW1 4915   0.512   5.564   3.430  2.5157 -0.1694  0.8562
 1410SOL    HW2 4916   0.501   5.451   3.530 -1.3943  0.4083  1.2289
 1411SOL     OW 4917   7.207   1.851   1.693  0.4017  0.5018  0.2405
 1411SOL    HW1 4918   7.208   1.892   1.780  0.7520  1.7289 -0.3156
 1411SOL    HW2 4919   7.120   1.812   1.687 -0.6073  2.5874  0.2062
 1412SOL     OW 4920   0.996   5.301   3.510 -0.5401  0.3591 -0.1392
 1412SOL    HW1 4921   0.966   5.378   3.559 -0.9476 -0.9679  1.8345
 1412SOL    HW2 4922   1.088   5.291   3.534 -0.6563 -0.1164  0.1249
 1413SOL     OW 4923   3.988   2.152   2.777  0.6382  0.5742 -0.0210
 1413SOL    HW1 4924   3.957   2.065   2.802  0.3056  0.2777 -1.3782
 1413SOL    HW2 4925   4.010   2.144   2.684 -0.1195  2.1337 -0.3688
 1414SOL     OW 4926   0.077   1.181   2.023  0.5980  0.2351 -0.8249
 1414SOL    HW1 4927  -0.014   1.160   2.002  0.7006 -0.5338 -0.5544
 1414SOL    HW2 4928   0.106   1.237   1.952 -0.4708  1.5752 -0.2479
 1415SOL     OW 4929   3.320   6.261   7.330  0.2026  0.0676  0.2206
 1415SOL    HW1 4930   3.312   6.166   7.327  0.1052  0.0618  0.6640
 1415SOL    HW2 4931   3.312   6.284   7.423  0.4740  0.4853  0.1448
 1416SOL     OW 4932   4.514   5.703   0.287 -0.0156 -0.1828 -0.1392
 1416SOL    HW1 4933   4.532   5.797   0.296  2.4129 -0.3736 -2.1736
 1416SOL    HW2 4934   4.419   5.699   0.272 -0.0565  2.0315 -0.8853
 1417SOL     OW 4935   0.241   0.518   2.140 -0.3399 -0.8789 -0.0673
 1417SOL    HW1 4936   0.284   0.601   2.160  1.9920 -2.2671  1.0926
 1417SOL    HW2 4937   0.300   0.451   2.174 -3.4799 -3.0151  1.7145
 1418SOL     OW 4938   5.319   5.641   3.617 -0.2633 -0.1309 -0.7259
 1418SOL    HW1 4939   5.343   5.733   3.625  1.4660 -0.6420  0.5438
 1418SOL    HW2 4940   5.228   5.637   3.648  0.0558  0.9654  0.4332
 1419SOL     OW 4941   0.020   2.920   4.780 -0.3165 -0.1820  0.3667
 1419SOL    HW1 4942  -0.011   2.943   4.867 -2.1832 -1.9590  0.2299
 1419SOL    HW2 4943   0.018   3.003   4.731 -1.2967  0.4329  1.4091
 1420SOL     OW 4944   5.065   5.819   6.304  0.3879 -0.2711 -0.0267
 1420SOL    HW1 4945   5.057   5.727   6.276  0.1227 -0.3484  0.2892
 1420SOL    HW2 4946   5.142   5.821   6.360 -0.4343 -0.6115  1.1546
 1421SOL     OW 4947   1.049   7.261   5.754  0.6168 -0.1286 -0.2110
 1421SOL    HW1 4948   0.961   7.298   5.757 -0.2487 -2.1023  2.3456
 1421SOL    HW2 4949   1.107   7.338   5.750 -1.1695  1.2574 -0.6449
 1422SOL     OW 4950   2.467   6.948   4.719 -0.0111  0.4639 -0.0032
 1422SOL    HW1 4951   2.512   6.908   4.644 -0.4976 -1.5068  0.6987
 1422SOL    HW2 4952   2.376   6.922   4.709 -0.3708  1.4946  0.4685
 1423SOL     OW 4953   4.893   5.728   2.183  0.3601  0.3095  0.6138
 1423SOL    HW1 4954   4.822   5.778   2.224 -0.4118 -0.8658  0.7676
 1423SOL    HW2 4955   4.957   5.794   2.159 -1.3380  1.5813 -0.6995
 1424SOL     OW 4956   2.962   1.664   2.362  0.0961 -0.2346  1.0098
 1424SOL    HW1 4957   3.001   1.594   2.311 -0.2712 -0.6531  1.2981
 1424SOL    HW2 4958   3.001   1.654   2.449 -0.1005 -0.1980  1.1022
 1425SOL     OW 4959   1.953   4.156   7.043 -0.5604 -0.4395  0.5241
 1425SOL    HW1 4960   1.902   4.087   7.085 -0.5093 -1.1942 -0.6078
 1425SOL    HW2 4961   1.907   4.237   7.067 -0.8682 -0.8876  1.5156
 1426SOL     OW 4962   3.762   3.937   6.715  0.6266  0.0839 -0.3606
 1426SOL    HW1 4963   3.728   3.875   6.651  1.2019 -0.0053 -0.5813
 1426SOL    HW2 4964   3.854   3.946   6.693  1.3411 -1.5095  1.7232
 1427SOL     OW 4965   5.409   6.388   3.940  0.2082 -0.2027  0.6546
 1427SOL    HW1 4966   5.319   6.414   3.920  0.2550 -0.2838  0.3444
 1427SOL    HW2 4967   5.406   6.360   4.032 -0.5274 -2.2272  0.0552
 1428SOL     OW 4968   7.449   0.523   5.887 -0.1789  0.3256  0.1388
 1428SOL    HW1 4969   7.539   0.490   5.886 -0.9742 -2.2955  1.8782
 1428SOL    HW2 4970   7.433   0.547   5.979 -1.7010 -0.8363  0.2299
 1429SOL     OW 4971   1.322   5.642   0.744 -0.2758  0.0335 -0.2013
 1429SOL    HW1 4972   1.260   5.609   0.809  0.6714 -1.2987  0.0730
 1429SOL    HW2 4973   1.365   5.716   0.788 -2.6098  1.9347 -0.9204
 1430SOL     OW 4974   4.882   3.112   4.331  0.1413 -0.2763 -0.2640
 1430SOL    HW1 4975   4.964   3.161   4.336 -1.4233  2.4384  1.6903
 1430SOL    HW2 4976   4.900   3.029   4.374  1.4280  1.1144  2.0980
 1431SOL     OW 4977   2.317   6.752   1.782  0.2331  0.0967 -0.1999
 1431SOL    HW1 4978   2.362   6.836   1.792  2.4625 -1.1458  0.9125
 1431SOL    HW2 4979   2.290   6.729   1.871  1.4661 -1.2630 -0.1414
 1432SOL     OW 4980   5.807   2.624   1.560 -0.4254  0.0194  0.1464
 1432SOL    HW1 4981   5.819   2.547   1.616 -0.4391 -1.5248 -1.8682
 1432SOL    HW2 4982   5.890   2.631   1.512 -0.4549  1.2322  0.2577
 1433SOL     OW 4983   5.368   5.979   2.813  0.2218  0.5791 -0.2279
 1433SOL    HW1 4984   5.277   5.961   2.790 -0.2400  0.5565  1.5053
 1433SOL    HW2 4985   5.384   5.925   2.890  1.7728  0.4441 -0.6115
 1434SOL     OW 4986   3.904   1.494   5.999 -0.2702  0.0604 -0.1629
 1434SOL    HW1 4987   3.841   1.529   6.062  0.1573  0.5570 -0.0016
 1434SOL    HW2 4988   3.862   1.507   5.914 -0.0120  1.2390 -0.1336
 1435SOL     OW 4989   5.547   6.526   5.979 -0.1880 -0.5016 -0.2687
 1435SOL    HW1 4990   5.596   6.607   5.995  0.6538 -0.4899 -2.6153
 1435SOL    HW2 4991   5.586   6.462   6.038  1.7557 -0.1332 -1.0955
 1436SOL     OW 4992   0.096   6.145   2.668  0.0457 -0.3719 -0.4250
 1436SOL    HW1 4993   0.023   6.172   2.612  0.8089  0.5787 -1.0154
 1436SOL    HW2 4994   0.174   6.179   2.623  0.7323 -0.0951  0.9182
 1437SOL     OW 4995   5.892   3.215   5.805 -0.2183 -0.0856 -0.6908
 1437SOL    HW1 4996   5.844   3.251   5.729 -0.5971 -0.3309 -0.5709
 1437SOL    HW2 4997   5.919   3.292   5.854 -0.7830  0.0496 -0.5854
 1438SOL     OW 4998   3.693   6.932   4.054  0.0637 -0.0102 -0.0929
 1438SOL    HW1 4999   3.621   6.923   4.116  1.0288 -0.1012  1.0386
 1438SOL    HW2 5000   3.765   6.881   4.092  2.6168  4.3775  1.7551
 1439SOL     OW 5001   1.204   7.151   7.217  0.2463  0.0476  0.0356
 1439SOL    HW1 5002   1.241   7.235   7.243 -0.0877  0.4955 -0.8860
 1439SOL    HW2 5003   1.220   7.093   7.291 -1.7870  1.5637  1.7697
 1440SOL     OW 5004   7.427   2.811   6.602  0.0615  0.8212 -0.4241
 1440SOL    HW1 5005   7.477   2.839   6.679 -0.1951  1.2505 -0.4139
 1440SOL    HW2 5006   7.471   2.731   6.573 -0.4970  0.0260  0.8288
 1441SOL     OW 5007   1.112   1.008   2.493 -0.3540  0.0803  0.0370
 1441SOL    HW1 5008   1.173   1.076   2.520  0.2972  0.0003 -1.1854
 1441SOL    HW2 5009   1.036   1.020   2.550  0.8511  0.0566  1.7285
 1442SOL     OW 5010   6.062   1.762   5.263  0.2501 -0.0244  0.5887
 1442SOL    HW1 5011   6.145   1.801   5.234  1.0867 -1.2702  1.2589
 1442SOL    HW2 5012   6.025   1.827   5.323  0.8785  0.4147  0.5069
 1443SOL     OW 5013   7.242   5.167   4.077 -0.0405 -0.1061  0.2886
 1443SOL    HW1 5014   7.319   5.119   4.108  0.7067  1.4123  0.9149
 1443SOL    HW2 5015   7.238   5.148   3.983  1.1951 -0.0970  0.2141
 1444SOL     OW 5016   2.661   0.858   2.938  0.4300  0.1295  0.4542
 1444SOL    HW1 5017   2.709   0.810   3.005 -2.2010 -1.5825  1.2644
 1444SOL    HW2 5018   2.597   0.795   2.905 -1.3509  2.2693 -0.4145
 1445SOL     OW 5019   5.658   0.771   6.147  0.1963 -0.0620 -0.5566
 1445SOL    HW1 5020   5.704   0.854   6.155  0.2338 -0.1095 -0.2581
 1445SOL    HW2 5021   5.666   0.748   6.055 -0.3526  0.5692 -0.7683
 1446SOL     OW 5022   4.422   4.176   6.763 -0.3719  0.3961  0.0856
 1446SOL    HW1 5023   4.516   4.184   6.772 -0.5059  0.6303  1.4452
 1446SOL    HW2 5024   4.407   4.169   6.668  0.9717  0.6355 -0.1545
 1447SOL     OW 5025   6.062   0.256   2.069  0.6748 -0.1350 -0.0346
 1447SOL    HW1 5026   6.100   0.170   2.052  0.9957  0.2313 -1.2676
 1447SOL    HW2 5027   5.980   0.257   2.020  0.1247 -0.1275  0.8642
 1448SOL     OW 5028   7.556   2.763   1.970 -0.3621 -0.1283 -0.3613
 1448SOL    HW1 5029   7.461   2.757   1.959 -0.4298  0.6283 -0.2577
 1448SOL    HW2 5030   7.572   2.735   2.060 -0.3731 -1.1962 -0.6734
 1449SOL     OW 5031   1.978   3.141   5.620  0.2186 -0.4233  0.3075
 1449SOL    HW1 5032   1.922   3.179   5.688  0.1707  0.9203 -0.4553
 1449SOL    HW2 5033   2.052   3.201   5.613  0.8436 -1.2136  0.0298
 1450SOL     OW 5034   2.820   5.946   2.136  0.6796 -0.1678  0.3311
 1450SOL    HW1 5035   2.850   5.959   2.226  1.1973  0.3390  0.0852
 1450SOL    HW2 5036   2.725   5.947   2.143  0.6830 -1.4271  1.0642
 1451SOL     OW 5037   2.742   7.340   1.014  0.0549 -0.0612 -0.7509
 1451SOL    HW1 5038   2.702   7.411   1.064 -0.1489  0.1567 -1.2181
 1451SOL    HW2 5039   2.766   7.380   0.930  2.2864  0.1056 -0.1022
 1452SOL     OW 5040   0.893   7.477   4.741  0.6013  0.0362  0.2547
 1452SOL    HW1 5041   0.966   7.536   4.723  2.4139 -1.5804  1.8019
 1452SOL    HW2 5042   0.899   7.410   4.673 -0.0818  0.3954 -0.1788
 1453SOL     OW 5043   5.627   3.381   0.044 -0.0438  0.0633 -0.6522
 1453SOL    HW1 5044   5.631   3.438  -0.033 -1.1303  0.0455 -0.7341
 1453SOL    HW2 5045   5.654   3.437   0.117  1.5879 -0.0844 -1.1160
 1454SOL     OW 5046   4.291   0.603   1.860 -0.1131 -0.1355  0.1685
 1454SOL    HW1 5047   4.224   0.556   1.809 -1.4573  1.6798  0.1436
 1454SOL    HW2 5048   4.332   0.662   1.796  1.6984 -1.3330  0.1482
 1455SOL     OW 5049   4.968   6.347   4.662  0.4198  0.3001  0.7401
 1455SOL    HW1 5050   5.013   6.300   4.732 -1.3028 -0.0421  1.6633
 1455SOL    HW2 5051   4.880   6.364   4.696 -0.6397 -0.3045 -1.4906
 1456SOL     OW 5052   4.835   6.909   0.304  0.2649 -0.6240 -0.5375
 1456SOL    HW1 5053   4.928   6.927   0.291  0.2391 -0.2206 -0.1636
 1456SOL    HW2 5054   4.791   6.957   0.234  0.1930  0.8296  0.4757
 1457SOL     OW 5055   6.511   2.832   3.187 -0.3530  0.1268 -0.5754
 1457SOL    HW1 5056   6.519   2.758   3.247 -1.4264  0.8258  0.4568
 1457SOL    HW2 5057   6.588   2.825   3.130  1.2513  0.0024  1.4786
 1458SOL     OW 5058   0.868   7.688   5.803 -0.2959 -0.2418  0.8914
 1458SOL    HW1 5059   0.804   7.747   5.844 -0.0256  0.0203  0.9387
 1458SOL    HW2 5060   0.953   7.728   5.822 -0.2412  1.1342 -1.8227
 1459SOL     OW 5061   1.327   2.626   7.226  0.0486  0.0113 -0.3078
 1459SOL    HW1 5062   1.323   2.662   7.137 -1.0460 -0.5838 -0.5118
 1459SOL    HW2 5063   1.240   2.643   7.262  0.6934  0.8622  0.9067
 1460SOL     OW 5064   0.266   3.532   7.577 -0.2571  0.4135  0.7648
 1460SOL    HW1 5065   0.346   3.488   7.548 -0.7354 -0.2760  0.4511
 1460SOL    HW2 5066   0.280   3.624   7.555 -0.7885 -0.1171 -2.1790
 1461SOL     OW 5067   2.943   1.119   6.685  0.2713 -0.9783 -0.4050
 1461SOL    HW1 5068   2.883   1.120   6.611  0.8277 -0.8527 -0.8604
 1461SOL    HW2 5069   2.984   1.032   6.682  0.8163 -0.7172 -0.6767
 1462SOL     OW 5070   3.026   3.537   3.725  0.0210 -0.0112  0.0018
 1462SOL    HW1 5071   2.982   3.610   3.768 -1.4333 -0.5496 -0.4957
 1462SOL    HW2 5072   3.023   3.560   3.632 -0.3418 -0.6362 -0.1462
 1463SOL     OW 5073   3.255   6.506   0.862 -1.4737  0.0243 -0.6953
 1463SOL    HW1 5074   3.317   6.491   0.791 -0.6834  2.5380 -0.6375
 1463SOL    HW2 5075   3.204   6.582   0.833 -0.0160  2.2264  2.0370
 1464SOL     OW 5076   5.451   1.872   5.613  0.3196  0.0808  0.3792
 1464SOL    HW1 5077   5.398   1.793   5.627  2.6655 -1.1894  3.1726
 1464SOL    HW2 5078   5.390   1.935   5.574 -1.3461 -3.4200 -3.3595
 1465SOL     OW 5079   1.653   3.236   7.762  0.1041  0.6274  0.7603
 1465SOL    HW1 5080   1.570   3.195   7.737  0.7697  0.9166 -2.2007
 1465SOL    HW2 5081   1.713   3.162   7.773  0.3376  0.5529 -0.7876
 1466SOL     OW 5082   1.558   3.128   3.208 -0.2419 -0.3446  0.6801
 1466SOL    HW1 5083   1.513   3.047   3.233  0.7315 -0.8201  0.9706
 1466SOL    HW2 5084   1.551   3.131   3.113 -2.4627  0.5650  0.8208
 1467SOL     OW 5085   2.500   3.598   4.581 -0.1375  0.1287 -0.4910
 1467SOL    HW1 5086   2.480   3.692   4.585 -2.0677 -0.2685  1.3199
 1467SOL    HW2 5087   2.577   3.592   4.526 -0.2020  2.7457 -1.0001
 1468SOL     OW 5088   3.514   0.963   3.422  0.7760  0.6704 -0.0243
 1468SOL    HW1 5089   3.508   0.873   3.390  0.1644  0.1390  1.5016
 1468SOL    HW2 5090   3.482   1.016   3.349 -0.8683 -0.5177 -0.2262
 1469SOL     OW 5091   7.214   0.827   5.513  0.2014 -0.1170 -0.6646
 1469SOL    HW1 5092   7.242   0.747   5.556  2.8406  0.0788 -1.8073
 1469SOL    HW2 5093   7.144   0.862   5.568  0.3579 -2.1678  0.9072
 1470SOL     OW 5094   3.346   5.360   1.872 -0.2019  0.2003  0.3130
 1470SOL    HW1 5095   3.410   5.360   1.943  0.5280 -0.8268 -0.3103
 1470SOL    HW2 5096   3.373   5.432   1.815  0.2717 -0.0795  0.1759
 1471SOL     OW 5097   2.909   3.449   6.628 -0.1309 -0.4576  0.3415
 1471SOL    HW1 5098   2.891   3.540   6.604 -3.8720 -1.2772 -0.4967
 1471SOL    HW2 5099   3.001   3.436   6.604 -0.5405  1.9974 -3.3322
 1472SOL     OW 5100   0.591   6.010   6.890  0.3359  0.4578  0.1091
 1472SOL    HW1 5101   0.551   6.048   6.811 -1.9681  0.0481  1.0009
 1472SOL    HW2 5102   0.627   6.086   6.937 -0.8431  1.0952  0.0302
 1473SOL     OW 5103   1.683   3.189   2.322  0.4819 -0.2536 -0.7161
 1473SOL    HW1 5104   1.601   3.233   2.344  1.1637 -0.0699  1.7606
 1473SOL    HW2 5105   1.694   3.206   2.228 -1.2770  1.4316 -0.7064
 1474SOL     OW 5106   7.441   0.950   3.114 -0.0644 -0.9447  0.3646
 1474SOL    HW1 5107   7.361   0.979   3.158  1.8269  1.1688  2.7569
 1474SOL    HW2 5108   7.454   0.861   3.146 -1.9098 -1.7179 -0.8591
 1475SOL     OW 5109   1.832   1.902   3.632 -1.0629 -0.6748  0.3018
 1475SOL    HW1 5110   1.858   1.925   3.721  0.9952 -0.2223 -0.3484
 1475SOL    HW2 5111   1.859   1.977   3.579  0.6928 -2.1681 -1.0901
 1476SOL     OW 5112   6.312   7.233   0.647  0.0512  0.2893 -0.8671
 1476SOL    HW1 5113   6.246   7.166   0.624  1.3700 -0.7148 -1.9045
 1476SOL    HW2 5114   6.344   7.264   0.563  1.2462  0.3996 -0.3886
 1477SOL     OW 5115   5.581   4.599   2.758  0.3719  0.0863 -0.3890
 1477SOL    HW1 5116   5.594   4.691   2.735 -1.7647  0.1572 -1.5938
 1477SOL    HW2 5117   5.641   4.551   2.701  0.5217  0.6692 -0.7301
 1478SOL     OW 5118   1.533   2.841   3.289  0.5894 -0.5243  0.1551
 1478SOL    HW1 5119   1.625   2.855   3.266  0.2358 -0.2619 -1.1913
 1478SOL    HW2 5120   1.532   2.840   3.385  1.8288  0.5867  0.2048
 1479SOL     OW 5121   0.104   0.463   5.479  0.4569 -0.2009 -0.0687
 1479SOL    HW1 5122   0.015   0.437   5.501 -0.0137  1.0134 -0.4758
 1479SOL    HW2 5123   0.146   0.479   5.564 -0.2492  0.9235  0.0788
 1480SOL     OW 5124   3.842   2.249   5.392  0.0091  0.0295  0.2678
 1480SOL    HW1 5125   3.936   2.263   5.385  0.1667  0.3363  2.4351
 1480SOL    HW2 5126   3.831   2.153   5.390  0.6419 -0.1237  2.4305
 1481SOL     OW 5127   4.963   0.406   3.410  0.0986  0.3152 -0.1408
 1481SOL    HW1 5128   5.057   0.394   3.395  0.0949  1.4961 -1.2447
 1481SOL    HW2 5129   4.957   0.437   3.501  0.7758  0.2029 -0.0554
 1482SOL     OW 5130   6.548   3.741   1.987 -0.2351  0.5975 -0.7254
 1482SOL    HW1 5131   6.460   3.734   2.025  0.7288  1.0651  1.8618
 1482SOL    HW2 5132   6.582   3.823   2.022  1.3041  0.3232 -1.5038
 1483SOL     OW 5133   4.490   0.108   0.761  0.2111  0.1615  0.5286
 1483SOL    HW1 5134   4.534   0.105   0.676 -1.4117 -0.7415 -0.3307
 1483SOL    HW2 5135   4.455   0.196   0.767 -0.6493 -0.1024 -0.3047
 1484SOL     OW 5136   1.166   6.530   1.511 -0.0089  0.7530  0.1070
 1484SOL    HW1 5137   1.147   6.614   1.470 -0.8806 -0.2307 -1.6288
 1484SOL    HW2 5138   1.248   6.502   1.471 -0.1386  0.4105  0.0782
 1485SOL     OW 5139   0.275   6.201   2.400 -0.3112 -1.1312  0.2761
 1485SOL    HW1 5140   0.364   6.194   2.436 -1.0898  0.5166  2.8132
 1485SOL    HW2 5141   0.275   6.283   2.351  0.2690 -2.5461 -2.2768
 1486SOL     OW 5142   7.067   6.060   2.706 -0.3019 -0.1240  0.0167
 1486SOL    HW1 5143   7.131   6.131   2.705 -1.2004  0.7150 -0.4615
 1486SOL    HW2 5144   7.095   6.003   2.777  0.9893  0.1966 -0.2057
 1487SOL     OW 5145   4.727   1.807   6.024  0.0582 -0.3804  0.3155
 1487SOL    HW1 5146   4.744   1.901   6.024  3.8939 -0.8892  0.4326
 1487SOL    HW2 5147   4.806   1.769   5.985 -1.7314 -3.5450 -0.5514
 1488SOL     OW 5148   2.589   7.686   1.981 -0.0870  0.5863  0.6905
 1488SOL    HW1 5149   2.658   7.747   1.955 -0.1103  1.1595  1.8910
 1488SOL    HW2 5150   2.617   7.652   2.066  0.2381 -1.5949 -0.2210
 1489SOL     OW 5151   7.272   4.905   3.387  0.3511  0.0636  0.0050
 1489SOL    HW1 5152   7.238   4.906   3.297 -1.1939  0.6142  0.5791
 1489SOL    HW2 5153   7.316   4.989   3.397 -1.0822  0.7844  0.3521
 1490SOL     OW 5154   0.545   6.262   4.086  0.1672 -0.0850 -0.5041
 1490SOL    HW1 5155   0.479   6.244   4.020  0.3676 -0.5489 -0.5796
 1490SOL    HW2 5156   0.531   6.196   4.153  0.1549  0.2012 -0.2217
 1491SOL     OW 5157   3.688   1.383   0.546  0.4396  0.3339  0.3438
 1491SOL    HW1 5158   3.628   1.430   0.489  1.2285 -1.7307 -2.3798
 1491SOL    HW2 5159   3.764   1.441   0.553 -0.0784  1.0527  0.1562
 1492SOL     OW 5160   5.272   4.260   5.327  0.1441 -0.4760 -0.4558
 1492SOL    HW1 5161   5.249   4.311   5.405 -1.0186 -1.5528 -0.0561
 1492SOL    HW2 5162   5.229   4.305   5.255 -2.2764 -1.7422  0.1158
 1493SOL     OW 5163   6.812   3.495   1.278  0.4199  0.3375  0.0124
 1493SOL    HW1 5164   6.902   3.477   1.303  0.3017 -1.3179 -0.6576
 1493SOL    HW2 5165   6.818   3.573   1.223  1.4835  0.1086 -0.2239
 1494SOL     OW 5166   0.748   2.349   3.492 -0.1232  0.1216 -0.0971
 1494SOL    HW1 5167   0.787   2.436   3.484  1.1633 -0.5641 -2.2497
 1494SOL    HW2 5168   0.654   2.365   3.482 -0.0365  1.3753  0.8318
 1495SOL     OW 5169   2.261   7.471   5.714  0.3138  0.2103  0.1464
 1495SOL    HW1 5170   2.255   7.409   5.642  1.1033  1.5928 -1.1695
 1495SOL    HW2 5171   2.354   7.495   5.718  0.0248  1.3662  0.5551
 1496SOL     OW 5172   1.478   3.994   6.511 -0.3057 -0.7336  0.1209
 1496SOL    HW1 5173   1.553   4.011   6.455 -0.5315 -1.8935 -0.5659
 1496SOL    HW2 5174   1.402   4.018   6.458 -0.4874 -1.1567  0.1792
 1497SOL     OW 5175   4.414   1.508   2.402  0.2622 -0.1641  0.3502
 1497SOL    HW1 5176   4.463   1.531   2.323 -1.5022  0.3735 -0.6429
 1497SOL    HW2 5177   4.324   1.534   2.383 -0.7205 -2.3734  1.5461
 1498SOL     OW 5178   3.270   5.395   5.908  0.3315 -0.3083  0.6524
 1498SOL    HW1 5179   3.213   5.392   5.984 -0.1690 -0.1326  0.2841
 1498SOL    HW2 5180   3.233   5.462   5.851  0.1742 -1.0590 -0.1649
 1499SOL     OW 5181   6.700   4.647   3.979  0.2657  0.5081  0.2237
 1499SOL    HW1 5182   6.716   4.568   4.030  0.2516 -0.7515 -1.6195
 1499SOL    HW2 5183   6.611   4.674   4.002 -0.1602 -0.6995  0.0366
 1500SOL     OW 5184   7.510   6.193   1.222  0.1977 -0.3506 -0.2290
 1500SOL    HW1 5185   7.486   6.270   1.170 -0.6679 -0.9907 -0.8167
 1500SOL    HW2 5186   7.426   6.157   1.250  0.6447 -0.2161  1.3462
 1501SOL     OW 5187   6.249   0.611   0.402  0.2729 -0.1860 -0.6527
 1501SOL    HW1 5188   6.197   0.689   0.388  1.1619  0.3524 -1.0113
 1501SOL    HW2 5189   6.311   0.609   0.329  0.2380 -1.2458 -0.6736
 1502SOL     OW 5190   5.767   4.328   6.772  0.0675 -0.2033  0.1120
 1502SOL    HW1 5191   5.761   4.402   6.833 -0.0799 -0.1644  0.0503
 1502SOL    HW2 5192   5.746   4.366   6.687  3.5348  0.5089 -0.5761
 1503SOL     OW 5193   3.979   3.332   1.884 -0.4706  0.5685  0.4863
 1503SOL    HW1 5194   3.937   3.409   1.846 -0.6544  0.7621  1.0677
 1503SOL    HW2 5195   4.008   3.281   1.809 -1.4262  0.6110  0.0770
 1504SOL     OW 5196   4.598   7.653   5.221 -0.0534  0.4852 -0.8687
 1504SOL    HW1 5197   4.538   7.662   5.295  0.5605  0.3265 -0.3428
 1504SOL    HW2 5198   4.636   7.740   5.210  0.8416  0.1985 -0.1365
 1505SOL     OW 5199   5.349   2.069   2.661  0.0348  0.1951 -0.3384
 1505SOL    HW1 5200   5.306   2.027   2.587 -2.7178  1.6318  0.2927
 1505SOL    HW2 5201   5.370   2.157   2.629 -0.4120  0.5451  0.3086
 1506SOL     OW 5202   6.342   3.968   1.777  0.7031  0.1957  0.0142
 1506SOL    HW1 5203   6.274   3.924   1.828 -0.9433  2.5079 -0.0586
 1506SOL    HW2 5204   6.323   4.061   1.786  2.9629  0.8585 -1.3041
 1507SOL     OW 5205   0.432   5.256   2.294  0.0637 -0.3601 -0.3073
 1507SOL    HW1 5206   0.428   5.311   2.216 -0.1000 -1.8701 -1.4068
 1507SOL    HW2 5207   0.399   5.312   2.365  0.6725  1.1942 -1.1996
 1508SOL     OW 5208   5.302   6.688   4.788  0.1660  0.1990 -0.2289
 1508SOL    HW1 5209   5.330   6.683   4.697 -0.7248 -0.2457 -0.4953
 1508SOL    HW2 5210   5.221   6.739   4.785 -0.2485 -0.4088  0.2090
 1509SOL     OW 5211   7.512   4.399   4.357 -0.6433 -0.1056  0.4335
 1509SOL    HW1 5212   7.570   4.444   4.295  2.7178 -0.8139  2.8169
 1509SOL    HW2 5213   7.498   4.463   4.427  0.0138 -0.9873  1.4142
 1510SOL     OW 5214   7.740   4.049   7.411 -0.9041  0.0181  0.0259
 1510SOL    HW1 5215   7.829   4.049   7.376 -1.0855 -0.6119 -0.4554
 1510SOL    HW2 5216   7.750   4.074   7.503 -0.2286 -0.0902 -0.0165
 1511SOL     OW 5217   2.569   6.098   4.625  0.0969  0.0782  0.4646
 1511SOL    HW1 5218   2.621   6.166   4.581  0.6095  0.3183  1.4132
 1511SOL    HW2 5219   2.558   6.130   4.714 -1.6653  0.0037  0.2977
 1512SOL     OW 5220   5.864   5.174   7.242 -0.5299 -0.1611 -0.3294
 1512SOL    HW1 5221   5.809   5.113   7.193 -2.2827 -1.2919  2.7323
 1512SOL    HW2 5222   5.802   5.224   7.296  1.2670 -0.8020  2.5554
 1513SOL     OW 5223   0.978   6.667   6.922  0.3152 -0.1418  0.6573
 1513SOL    HW1 5224   0.902   6.694   6.870  0.5908 -2.2355 -0.9853
 1513SOL    HW2 5225   0.965   6.708   7.007 -0.8935  2.3005 -0.6143
 1514SOL     OW 5226   0.126   5.961   0.297  0.5239  0.0857 -0.0998
 1514SOL    HW1 5227   0.079   5.885   0.333 -0.0415  0.7998  0.6957
 1514SOL    HW2 5228   0.180   5.924   0.227 -1.1105 -0.7936 -0.9500
 1515SOL     OW 5229   5.687   5.565   5.911  0.7033  0.2247  0.1682
 1515SOL    HW1 5230   5.639   5.555   5.993 -0.9822 -0.3652 -0.8353
 1515SOL    HW2 5231   5.756   5.628   5.931  1.0210 -0.6959  2.2955
 1516SOL     OW 5232   4.457   1.016   5.651  0.1567 -0.8204 -0.4941
 1516SOL    HW1 5233   4.528   0.992   5.592  0.9871  2.5991 -1.1194
 1516SOL    HW2 5234   4.497   1.080   5.711 -2.2470  0.9739 -0.6521
 1517SOL     OW 5235   4.480   1.350   1.940  0.3307  0.6063 -0.1613
 1517SOL    HW1 5236   4.498   1.395   2.022  2.3043  0.0509 -0.2222
 1517SOL    HW2 5237   4.411   1.402   1.898 -1.0992  0.5888  2.0500
 1518SOL     OW 5238   4.246   4.232   1.619 -0.5710  0.3275 -0.2316
 1518SOL    HW1 5239   4.173   4.235   1.680 -1.3512  1.2971 -1.1705
 1518SOL    HW2 5240   4.210   4.266   1.536  1.4422  3.0539 -0.1478
 1519SOL     OW 5241   7.441   5.961   5.410  0.0916  0.6642 -0.2990
 1519SOL    HW1 5242   7.382   5.889   5.387  0.6937 -0.1458  0.6284
 1519SOL    HW2 5243   7.484   5.984   5.327  1.5487 -1.5751 -0.2413
 1520SOL     OW 5244   5.407   0.364   7.322  0.3093  0.8359 -0.2118
 1520SOL    HW1 5245   5.449   0.330   7.401 -1.9036 -2.0524 -0.1145
 1520SOL    HW2 5246   5.342   0.427   7.354  0.3857  0.7304  0.1537
 1521SOL     OW 5247   5.895   2.941   4.911 -0.4450  0.2120  0.5299
 1521SOL    HW1 5248   5.817   2.944   4.966  1.2274 -0.5741  3.0861
 1521SOL    HW2 5249   5.944   2.865   4.942  0.8628  0.0555 -1.7077
 1522SOL     OW 5250   0.096   6.296   6.518  0.3674  0.0143 -0.4034
 1522SOL    HW1 5251   0.070   6.348   6.442 -0.9311 -0.7884 -0.5336
 1522SOL    HW2 5252   0.030   6.227   6.524  2.1355 -1.7518 -0.3282
 1523SOL     OW 5253   3.312   0.533   4.330 -0.0794 -0.1692 -0.1669
 1523SOL    HW1 5254   3.350   0.446   4.344  1.1437  0.6940  2.6404
 1523SOL    HW2 5255   3.229   0.530   4.377  0.1107  0.2352  0.2075
 1524SOL     OW 5256   2.520   7.607   6.137  0.2123 -0.2858 -0.4065
 1524SOL    HW1 5257   2.598   7.604   6.081  0.2016  0.4906 -0.4748
 1524SOL    HW2 5258   2.463   7.672   6.095  0.4568  0.7684  0.8090
 1525SOL     OW 5259   6.523   6.440   0.962 -0.2813 -0.3918 -0.5145
 1525SOL    HW1 5260   6.600   6.441   1.019 -1.7982  0.2629  1.6324
 1525SOL    HW2 5261   6.464   6.375   1.002 -2.1864  1.4612 -0.1638
 1526SOL     OW 5262   1.274   1.385   0.792 -0.0053  0.6897 -0.5605
 1526SOL    HW1 5263   1.216   1.451   0.753 -1.8073 -0.7376 -0.3856
 1526SOL    HW2 5264   1.266   1.309   0.735  1.2560  0.2426 -0.1809
 1527SOL     OW 5265   7.622   5.548   0.888 -0.8353 -0.0037 -1.1000
 1527SOL    HW1 5266   7.601   5.608   0.959  1.9010 -0.7381  0.4519
 1527SOL    HW2 5267   7.570   5.469   0.907 -0.4673 -0.0284 -0.1591
 1528SOL     OW 5268   3.046   6.045   1.636 -0.3751 -0.1584  0.2200
 1528SOL    HW1 5269   2.969   6.100   1.619  0.8425  1.6962  0.4370
 1528SOL    HW2 5270   3.037   6.020   1.728 -0.9065 -0.2875  0.1387
 1529SOL     OW 5271   6.065   7.065   0.607  0.4765 -0.1226  0.3609
 1529SOL    HW1 5272   6.032   6.984   0.568  1.3199  0.0620 -0.7805
 1529SOL    HW2 5273   5.986   7.111   0.636 -0.1711 -0.4381 -0.8290
 1530SOL     OW 5274   2.593   5.222   2.273  0.1746  0.5117 -0.2100
 1530SOL    HW1 5275   2.664   5.277   2.307  0.2035  0.3337  0.0183
 1530SOL    HW2 5276   2.630   5.134   2.271  0.0174  0.4468 -0.2627
 1531SOL     OW 5277   4.244   7.549   4.383 -0.7103  0.4474  0.1247
 1531SOL    HW1 5278   4.325   7.525   4.426 -0.5802  0.0123 -0.3534
 1531SOL    HW2 5279   4.272   7.591   4.301 -0.9525 -1.3573 -0.9428
 1532SOL     OW 5280   5.811   2.687   4.308 -0.3196 -0.1306  0.3115
 1532SOL    HW1 5281   5.722   2.650   4.304 -0.0773 -0.9200  1.5482
 1532SOL    HW2 5282   5.846   2.675   4.220  0.3538 -4.5518  0.9248
 1533SOL     OW 5283   1.731   3.175   4.636  0.5395  0.0983  0.4989
 1533SOL    HW1 5284   1.826   3.172   4.644  0.5521 -0.1906  0.2732
 1533SOL    HW2 5285   1.699   3.185   4.726  0.8127  1.2126  0.4929
 1534SOL     OW 5286   3.472   3.803   2.615  0.2377 -0.2623  0.4219
 1534SOL    HW1 5287   3.499   3.761   2.533  2.8333  1.1240  0.4526
 1534SOL    HW2 5288   3.479   3.733   2.680  2.8601 -0.3166  0.1990
 1535SOL     OW 5289   1.997   4.245   4.788 -0.5339 -0.2426  0.0207
 1535SOL    HW1 5290   2.092   4.260   4.783 -0.5403 -0.4839 -1.1776
 1535SOL    HW2 5291   1.962   4.327   4.822  0.0390  0.1190 -0.2431
 1536SOL     OW 5292   7.410   3.696   2.233  0.5999 -0.1973  0.1492
 1536SOL    HW1 5293   7.421   3.700   2.328  2.3306 -1.3681  0.0367
 1536SOL    HW2 5294   7.450   3.777   2.201 -0.3007  0.3717  0.4007
 1537SOL     OW 5295   0.283   7.212   6.296  0.2836 -0.2779 -0.5658
 1537SOL    HW1 5296   0.295   7.140   6.359 -2.2581 -1.0229 -0.8253
 1537SOL    HW2 5297   0.358   7.204   6.237  1.1353 -1.4257  0.5934
 1538SOL     OW 5298   5.175   5.453   6.561  0.0997  0.1996 -0.4144
 1538SOL    HW1 5299   5.257   5.445   6.610  0.1764  1.1535 -0.3660
 1538SOL    HW2 5300   5.117   5.501   6.621 -0.3637 -0.1166 -0.6065
 1539SOL     OW 5301   0.539   0.912   6.978  0.0131 -0.1691 -0.4662
 1539SOL    HW1 5302   0.465   0.921   7.039 -1.2335  0.3973 -1.9838
 1539SOL    HW2 5303   0.524   0.827   6.936  1.6838 -1.2420  1.0151
 1540SOL     OW 5304   3.638   0.175   3.627 -0.8976 -0.0320  0.3062
 1540SOL    HW1 5305   3.609   0.260   3.593 -1.2051 -0.0764  0.4583
 1540SOL    HW2 5306   3.658   0.124   3.549 -0.8210  0.1444  0.2109
 1541SOL     OW 5307   6.673   4.843   4.564  0.4564 -0.5881  0.7450
 1541SOL    HW1 5308   6.721   4.809   4.639 -1.6774 -0.0255  2.4546
 1541SOL    HW2 5309   6.703   4.789   4.490  2.4129 -1.3289  2.0202
 1542SOL     OW 5310   7.289   1.996   1.277 -0.0851  0.4930  0.1585
 1542SOL    HW1 5311   7.312   2.010   1.369 -1.4708  1.2722  0.4143
 1542SOL    HW2 5312   7.194   1.994   1.276 -0.3460  4.5256 -1.7591
 1543SOL     OW 5313   4.215   6.116   4.423 -0.2395 -0.2931 -0.0788
 1543SOL    HW1 5314   4.223   6.074   4.338 -1.6055 -2.4088  0.7495
 1543SOL    HW2 5315   4.292   6.085   4.472  1.2218  1.8995 -0.8413
 1544SOL     OW 5316   4.799   3.678   3.911  0.2950  0.4049  0.1877
 1544SOL    HW1 5317   4.806   3.639   3.999 -1.1753  0.2715  0.2733
 1544SOL    HW2 5318   4.817   3.771   3.924  0.0957  0.3825  0.6385
 1545SOL     OW 5319   7.439   7.145   0.726 -0.0808 -0.0893 -0.3902
 1545SOL    HW1 5320   7.386   7.134   0.805  0.0734  0.6538 -0.1781
 1545SOL    HW2 5321   7.433   7.238   0.706  4.0731  0.8231  1.7189
 1546SOL     OW 5322   1.623   3.543   5.262 -0.1172 -0.7376  0.2285
 1546SOL    HW1 5323   1.574   3.495   5.195 -0.7150 -0.4213  0.4302
 1546SOL    HW2 5324   1.711   3.553   5.226 -0.5689 -0.1079 -0.7351
 1547SOL     OW 5325   0.923   2.259   1.782  0.1251  0.2274 -0.2765
 1547SOL    HW1 5326   0.891   2.169   1.795  0.1628  0.3849  1.1093
 1547SOL    HW2 5327   1.001   2.250   1.728 -0.6411 -0.4373 -1.3058
 1548SOL     OW 5328   5.808   5.173   2.270 -0.1897  0.3891 -0.3165
 1548SOL    HW1 5329   5.831   5.195   2.361  1.0160 -0.4214 -0.3998
 1548SOL    HW2 5330   5.887   5.131   2.235 -1.2312 -0.8693 -1.2144
 1549SOL     OW 5331   1.636   6.354   3.715  0.0108  0.6858 -0.0388
 1549SOL    HW1 5332   1.561   6.410   3.738 -2.3306 -2.1039 -0.3482
 1549SOL    HW2 5333   1.613   6.316   3.630  0.6503 -2.0174  0.8951
 1550SOL     OW 5334   4.047   3.195   1.661 -0.0179 -0.0429  0.5201
 1550SOL    HW1 5335   4.062   3.227   1.572  1.8049  1.6717  1.3661
 1550SOL    HW2 5336   4.107   3.121   1.671 -0.2940 -0.2983  0.3052
 1551SOL     OW 5337   6.358   5.529   1.528  0.0412 -0.0268  0.3215
 1551SOL    HW1 5338   6.371   5.624   1.525 -1.8241  0.3342  1.7160
 1551SOL    HW2 5339   6.267   5.516   1.500  0.3285 -1.4423 -0.0597
 1552SOL     OW 5340   6.695   5.382   5.312 -0.0817 -0.1471 -0.0361
 1552SOL    HW1 5341   6.743   5.371   5.394 -2.0732  0.1998  1.2367
 1552SOL    HW2 5342   6.640   5.304   5.305 -0.1933 -0.0067 -0.8655
 1553SOL     OW 5343   4.035   1.558   4.560 -0.1912 -0.5575 -0.1644
 1553SOL    HW1 5344   3.949   1.593   4.586 -0.2443  0.3557 -1.4979
 1553SOL    HW2 5345   4.059   1.608   4.482  1.4093 -1.0396 -0.0166
 1554SOL     OW 5346   7.542   5.840   1.832  0.0091  0.1030 -0.3411
 1554SOL    HW1 5347   7.599   5.787   1.888  0.5834  0.0814 -0.9341
 1554SOL    HW2 5348   7.602   5.879   1.768 -0.3850  1.4977  0.1039
 1555SOL     OW 5349   0.305   0.304   1.567 -0.4027 -0.1294  0.5809
 1555SOL    HW1 5350   0.221   0.338   1.597 -0.6654 -1.5402  1.5652
 1555SOL    HW2 5351   0.284   0.217   1.532  0.5683 -0.2944  0.3790
 1556SOL     OW 5352   1.660   1.892   7.541  0.0155  0.2750 -0.2860
 1556SOL    HW1 5353   1.686   1.963   7.599  1.4628 -0.3073 -0.2017
 1556SOL    HW2 5354   1.616   1.936   7.468  1.0532  1.2704 -0.3291
 1557SOL     OW 5355   1.808   5.437   6.389  0.2829 -0.0398 -0.0031
 1557SOL    HW1 5356   1.733   5.377   6.391  0.3135 -0.0617  0.5104
 1557SOL    HW2 5357   1.885   5.380   6.386  0.3079 -0.0236  0.3525
 1558SOL     OW 5358   4.746   2.682   7.213  0.7629 -0.0289 -0.5647
 1558SOL    HW1 5359   4.833   2.643   7.211  0.5093 -0.6732  0.3276
 1558SOL    HW2 5360   4.715   2.678   7.122  0.7909 -1.8266 -0.5131
 1559SOL     OW 5361   2.919   1.460   7.422  0.2336  0.1127 -0.2343
 1559SOL    HW1 5362   2.840   1.406   7.433 -0.6981  1.1812 -1.3873
 1559SOL    HW2 5363   2.919   1.518   7.499 -1.1190  1.2891 -1.0566
 1560SOL     OW 5364   5.054   7.677   1.294 -0.4407 -0.0025 -0.3890
 1560SOL    HW1 5365   5.017   7.679   1.382 -0.3044  0.2512 -0.3340
 1560SOL    HW2 5366   5.138   7.723   1.303 -0.6894  0.5300 -0.7712
 1561SOL     OW 5367   0.227   1.347   1.182 -0.2270 -0.6816  0.3019
 1561SOL    HW1 5368   0.273   1.293   1.247  0.2331 -0.1905  0.3933
 1561SOL    HW2 5369   0.203   1.427   1.230  1.6327  0.4425 -0.5519
 1562SOL     OW 5370   6.665   5.757   7.315  0.4443  0.1075 -0.1882
 1562SOL    HW1 5371   6.722   5.712   7.377  2.3060  0.2831 -1.6536
 1562SOL    HW2 5372   6.606   5.690   7.282  0.4884 -0.3289  0.6163
 1563SOL     OW 5373   0.532   7.575   2.778 -0.3537 -0.5136  0.2222
 1563SOL    HW1 5374   0.499   7.494   2.741 -0.6602 -0.1254 -0.3674
 1563SOL    HW2 5375   0.627   7.569   2.767 -0.5010  0.2354 -2.0512
 1564SOL     OW 5376   0.913   4.151   6.147  0.0763  0.5521 -0.5663
 1564SOL    HW1 5377   0.995   4.174   6.189 -0.2196  0.9691 -0.2093
 1564SOL    HW2 5378   0.902   4.217   6.078  0.5076 -0.0656 -1.2425
 1565SOL     OW 5379   2.990   7.610   0.152 -0.0122  0.2064  0.0918
 1565SOL    HW1 5380   3.080   7.637   0.171 -0.4419  0.1772  2.4800
 1565SOL    HW2 5381   2.935   7.665   0.208 -1.5432  0.4794 -1.5743
 1566SOL     OW 5382   0.254   7.398   3.260  0.6813 -0.4657  0.8276
 1566SOL    HW1 5383   0.235   7.491   3.265  1.1826 -0.3111  0.1449
 1566SOL    HW2 5384   0.339   7.388   3.303  0.2110 -0.7593  1.7066
 1567SOL     OW 5385   4.667   5.769   7.343 -0.4813  0.0768 -0.7342
 1567SOL    HW1 5386   4.665   5.692   7.287 -1.4347 -0.3842 -0.0958
 1567SOL    HW2 5387   4.602   5.750   7.411  1.0297  0.3577  0.8488
 1568SOL     OW 5388   3.163   0.310   0.052 -0.0203 -0.3069  0.0258
 1568SOL    HW1 5389   3.238   0.354   0.013  0.8027 -0.7681  1.0269
 1568SOL    HW2 5390   3.201   0.234   0.097 -1.0022 -0.1731  1.1211
 1569SOL     OW 5391   6.907   6.621   5.538  0.1168 -0.1238  0.2789
 1569SOL    HW1 5392   6.907   6.584   5.450 -0.1231  1.1680 -0.2726
 1569SOL    HW2 5393   6.989   6.589   5.577 -0.0588 -1.1882 -0.1812
 1570SOL     OW 5394   7.266   0.661   4.711 -0.1226  0.2685 -0.5300
 1570SOL    HW1 5395   7.309   0.746   4.699 -0.2260  0.3800 -0.0916
 1570SOL    HW2 5396   7.270   0.644   4.805 -2.5155  1.0578 -0.2262
 1571SOL     OW 5397   3.768   0.767   2.208 -0.1299 -0.7524  0.5469
 1571SOL    HW1 5398   3.780   0.789   2.301  0.4327 -0.0415  0.3103
 1571SOL    HW2 5399   3.683   0.723   2.205 -0.4980 -0.1148  1.2873
 1572SOL     OW 5400   1.065   3.234   3.000  0.2158  0.0568 -0.2360
 1572SOL    HW1 5401   1.076   3.156   3.055 -0.9503 -0.2811 -0.4632
 1572SOL    HW2 5402   1.155   3.267   2.988  0.4656  1.1625  3.3070
 1573SOL     OW 5403   5.360   4.921   4.455  0.2649 -0.5722  0.2383
 1573SOL    HW1 5404   5.294   4.984   4.481  0.6105  0.0840 -0.4471
 1573SOL    HW2 5405   5.438   4.946   4.506  0.1915 -0.9067  0.5178
 1574SOL     OW 5406   0.817   5.999   6.688  0.3691  0.0515  0.1262
 1574SOL    HW1 5407   0.740   6.049   6.660  0.6055  0.3542  0.0171
 1574SOL    HW2 5408   0.852   6.049   6.762  0.2642 -0.2723  0.4031
 1575SOL     OW 5409   0.326   2.007   4.920 -0.3031 -0.1733 -0.6606
 1575SOL    HW1 5410   0.385   2.054   4.980  0.3290 -2.8907  1.0303
 1575SOL    HW2 5411   0.365   2.019   4.834  1.6913 -0.3215  0.1719
 1576SOL     OW 5412   0.190   4.236   1.774  0.2813 -0.3006 -0.3509
 1576SOL    HW1 5413   0.193   4.160   1.833 -0.7738 -0.2817 -0.2387
 1576SOL    HW2 5414   0.281   4.253   1.752  0.7816  0.1180  1.8133
 1577SOL     OW 5415   4.974   5.297   6.392  0.8573 -0.1609  0.2385
 1577SOL    HW1 5416   5.059   5.280   6.432  0.2587 -1.6581  0.9775
 1577SOL    HW2 5417   4.983   5.383   6.352  2.7283 -0.3043  0.2469
 1578SOL     OW 5418   3.581   3.802   3.207 -0.8271  0.2486 -0.7161
 1578SOL    HW1 5419   3.584   3.868   3.275  2.3937 -1.0697  0.6268
 1578SOL    HW2 5420   3.549   3.723   3.250 -0.4142 -0.1663 -1.1425
 1579SOL     OW 5421   0.933   0.440   4.334 -0.3388 -0.8610  0.6316
 1579SOL    HW1 5422   0.937   0.365   4.394 -1.0117 -2.2330 -0.9491
 1579SOL    HW2 5423   0.867   0.415   4.269 -0.8398  1.2755  0.2373
 1580SOL     OW 5424   2.709   5.398   2.669 -0.2261 -0.1696 -0.2096
 1580SOL    HW1 5425   2.794   5.423   2.706 -0.3260  0.3467 -0.3196
 1580SOL    HW2 5426   2.694   5.461   2.599 -0.0821 -1.0786 -1.0756
 1581SOL     OW 5427   7.475   3.555   2.489  0.2288 -0.4321 -0.1894
 1581SOL    HW1 5428   7.551   3.510   2.524 -0.0082  0.3223  1.3472
 1581SOL    HW2 5429   7.456   3.624   2.552 -0.1502  1.0657 -1.8687
 1582SOL     OW 5430   3.868   2.904   1.866 -0.4638  0.1893 -0.4614
 1582SOL    HW1 5431   3.818   2.826   1.890 -1.1186  0.5844 -0.5336
 1582SOL    HW2 5432   3.802   2.970   1.844 -0.0216  1.4674  1.7217
 1583SOL     OW 5433   5.934   6.598   3.757  0.2991 -0.4326  0.3039
 1583SOL    HW1 5434   6.011   6.640   3.795  1.0841  0.0069 -1.6683
 1583SOL    HW2 5435   5.868   6.603   3.826  1.6696  0.2180  1.6302
 1584SOL     OW 5436   3.540   6.175   4.633  0.1443 -0.4491  0.0869
 1584SOL    HW1 5437   3.613   6.115   4.618 -0.0906 -0.5261 -0.8384
 1584SOL    HW2 5438   3.580   6.261   4.640  0.5270 -0.7386  1.8427
 1585SOL     OW 5439   1.394   5.526   2.160  0.4372  0.1295 -0.0160
 1585SOL    HW1 5440   1.409   5.557   2.071  1.2633  0.4077  0.2112
 1585SOL    HW2 5441   1.455   5.577   2.214  0.9824 -1.0500  0.5231
 1586SOL     OW 5442   3.508   6.776   1.716 -0.3837  0.5617  0.4002
 1586SOL    HW1 5443   3.486   6.704   1.656  2.6508  0.4943 -0.8239
 1586SOL    HW2 5444   3.603   6.769   1.727 -0.5872  1.5610  4.0555
 1587SOL     OW 5445   2.570   1.191   7.158 -0.3226  0.3771  0.1067
 1587SOL    HW1 5446   2.635   1.248   7.200 -0.4900  0.4273  0.2958
 1587SOL    HW2 5447   2.528   1.145   7.230 -0.0961 -0.0895 -0.0564
 1588SOL     OW 5448   1.898   0.567   1.385  0.0034 -0.5281  0.0831
 1588SOL    HW1 5449   1.970   0.627   1.407 -0.6682 -0.8856  3.9499
 1588SOL    HW2 5450   1.936   0.479   1.397 -0.8561 -0.7232  1.5693
 1589SOL     OW 5451   6.126   2.404   5.140 -0.3781  0.0912 -0.2045
 1589SOL    HW1 5452   6.119   2.309   5.127 -0.8024  0.2940 -1.7876
 1589SOL    HW2 5453   6.218   2.424   5.127 -0.1518 -0.1911  0.9158
 1590SOL     OW 5454   4.608   6.917   2.370  0.0088  0.1302 -0.5158
 1590SOL    HW1 5455   4.664   6.864   2.314 -0.1236 -1.1235  0.4983
 1590SOL    HW2 5456   4.642   7.006   2.362  2.0520 -0.5671 -0.0647
 1591SOL     OW 5457   5.873   0.042   0.891 -0.1126  0.2460 -0.4025
 1591SOL    HW1 5458   5.826   0.125   0.886  0.7184  0.7262 -0.4971
 1591SOL    HW2 5459   5.901   0.024   0.801  0.5948  0.3937 -0.2152
 1592SOL     OW 5460   4.670   7.454   2.997  0.2240 -0.2301  0.4692
 1592SOL    HW1 5461   4.631   7.523   3.050 -1.2717 -2.4058  2.3728
 1592SOL    HW2 5462   4.747   7.426   3.047  0.9396  0.1539 -0.3897
 1593SOL     OW 5463   5.853   3.980   2.612  0.2830 -0.3838 -0.1457
 1593SOL    HW1 5464   5.850   3.936   2.527 -0.7766 -0.5324 -0.0432
 1593SOL    HW2 5465   5.769   3.959   2.653  0.0896  1.0670  0.2471
 1594SOL     OW 5466   1.148   5.158   4.213  0.7067  0.6251 -0.0419
 1594SOL    HW1 5467   1.114   5.118   4.293  1.9177  0.6314  0.4980
 1594SOL    HW2 5468   1.101   5.114   4.142 -1.7440  1.8749  0.6833
 1595SOL     OW 5469   6.842   5.615   6.583  0.1042  0.5595  0.7432
 1595SOL    HW1 5470   6.914   5.586   6.639  2.8686  1.5288 -2.0087
 1595SOL    HW2 5471   6.826   5.706   6.609  0.3624  0.5483  0.9414
 1596SOL     OW 5472   6.734   1.202   3.443  0.0704  0.1694 -0.1112
 1596SOL    HW1 5473   6.727   1.117   3.400 -0.6471  0.4132 -0.4930
 1596SOL    HW2 5474   6.828   1.219   3.447  0.1613  0.3492 -2.0275
 1597SOL     OW 5475   2.328   5.545   0.152 -0.1064  0.0441  0.2352
 1597SOL    HW1 5476   2.333   5.450   0.142 -1.0296 -0.1552  1.4122
 1597SOL    HW2 5477   2.266   5.558   0.224  0.4168  1.5238  0.4513
 1598SOL     OW 5478   7.167   4.423   4.074  0.2231 -0.6533  0.2135
 1598SOL    HW1 5479   7.107   4.402   4.003  0.2389 -0.8340  0.2530
 1598SOL    HW2 5480   7.206   4.339   4.097  0.8979 -0.4496 -0.1768
 1599SOL     OW 5481   6.773   2.083   2.483  0.4959  0.5268  0.0371
 1599SOL    HW1 5482   6.863   2.055   2.467  0.7096  0.6102  1.0544
 1599SOL    HW2 5483   6.756   2.061   2.574 -1.0074 -0.7910 -0.5098
 1600SOL     OW 5484   2.801   2.226   4.418 -0.3124  0.1827 -0.0874
 1600SOL    HW1 5485   2.844   2.274   4.489  1.4379  0.3076 -1.1487
 1600SOL    HW2 5486   2.874   2.192   4.365 -1.5490 -0.6853 -1.3063
 1601SOL     OW 5487   1.487   0.365   0.003 -0.3585 -0.0891 -0.0184
 1601SOL    HW1 5488   1.440   0.380  -0.079 -1.1593 -2.4740 -0.0494
 1601SOL    HW2 5489   1.567   0.417  -0.006 -1.4164  1.3943 -1.3743
 1602SOL     OW 5490   6.890   1.326   4.574  0.0749 -0.3977 -0.1278
 1602SOL    HW1 5491   6.952   1.385   4.531 -0.1410  0.7823  1.0900
 1602SOL    HW2 5492   6.840   1.287   4.503  0.5821  0.4975 -1.0022
 1603SOL     OW 5493   3.029   6.625   6.071 -0.6280  0.9092  0.3158
 1603SOL    HW1 5494   3.106   6.598   6.121 -0.2595 -1.2514 -1.2754
 1603SOL    HW2 5495   2.957   6.618   6.133  0.1883  1.1617  1.3332
 1604SOL     OW 5496   6.222   3.969   6.825  0.0170 -0.0975  0.3082
 1604SOL    HW1 5497   6.128   3.959   6.809 -0.0344  1.5186 -0.5712
 1604SOL    HW2 5498   6.228   4.040   6.888  0.6796  0.6749 -0.5960
 1605SOL     OW 5499   6.958   3.640   5.043 -0.1771  1.0120 -0.2720
 1605SOL    HW1 5500   6.922   3.614   4.958 -0.1652 -0.6161  0.1701
 1605SOL    HW2 5501   6.890   3.616   5.106  0.4452  0.7287  0.3103
 1606SOL     OW 5502   2.848   7.489   2.527 -0.0905 -0.7735 -0.0435
 1606SOL    HW1 5503   2.898   7.510   2.606  0.7152 -0.7231 -0.5553
 1606SOL    HW2 5504   2.898   7.529   2.456 -0.5636 -1.2019 -0.6274
 1607SOL     OW 5505   0.072   1.144   7.744  0.7953 -0.2933 -0.1235
 1607SOL    HW1 5506   0.080   1.128   7.650 -0.6939  0.1313 -0.3463
 1607SOL    HW2 5507   0.147   1.099   7.783  0.3234 -2.1769 -1.3126
 1608SOL     OW 5508   1.426   6.538   6.225 -0.6892  0.7128 -0.2345
 1608SOL    HW1 5509   1.477   6.554   6.304 -1.0321 -1.8554  0.5722
 1608SOL    HW2 5510   1.475   6.471   6.177 -3.0115 -1.6069  0.3988
 1609SOL     OW 5511   4.900   5.260   0.453 -0.2654  0.1713 -0.2023
 1609SOL    HW1 5512   4.820   5.284   0.501 -0.4056 -0.6634  0.0046
 1609SOL    HW2 5513   4.872   5.247   0.363 -0.6939 -1.5905  0.1372
 1610SOL     OW 5514   3.636   7.485   2.342  0.6582 -0.5922 -0.2560
 1610SOL    HW1 5515   3.551   7.512   2.308  0.3711 -0.1811  0.7364
 1610SOL    HW2 5516   3.642   7.392   2.321 -0.2351 -0.7230  0.0383
 1611SOL     OW 5517   6.862   7.464   5.023  0.1912 -0.1220 -0.6268
 1611SOL    HW1 5518   6.922   7.395   4.995 -0.7596 -0.9335 -0.7367
 1611SOL    HW2 5519   6.816   7.427   5.098  0.4244  0.8092 -0.0108
 1612SOL     OW 5520   2.455   5.043   5.007 -0.1140  0.1421 -0.5708
 1612SOL    HW1 5521   2.462   4.950   4.986 -1.8294 -0.2730  0.5045
 1612SOL    HW2 5522   2.464   5.047   5.102  1.4085  1.2813 -0.7220
 1613SOL     OW 5523   7.493   2.952   5.279  0.0888 -0.0775 -0.1511
 1613SOL    HW1 5524   7.514   2.924   5.368 -0.9311 -0.6848 -0.0812
 1613SOL    HW2 5525   7.496   3.047   5.281  0.5782 -0.0997  0.3928
 1614SOL     OW 5526   3.582   6.767   5.908  0.2201  0.4927 -0.0140
 1614SOL    HW1 5527   3.592   6.675   5.885  0.4731  0.0828  1.5979
 1614SOL    HW2 5528   3.498   6.793   5.870  0.1038 -0.4158 -0.3963
 1615SOL     OW 5529   7.163   3.187   7.135 -0.2211 -0.0285  0.9643
 1615SOL    HW1 5530   7.216   3.249   7.186 -0.2987  0.1290  0.8562
 1615SOL    HW2 5531   7.083   3.176   7.186  0.3758 -1.1583  1.7106
 1616SOL     OW 5532   0.181   0.716   4.508 -0.4243  0.0494  0.4548
 1616SOL    HW1 5533   0.141   0.767   4.438 -0.6883 -0.0992  0.4971
 1616SOL    HW2 5534   0.215   0.637   4.465 -1.0485 -0.2876  0.5779
 1617SOL     OW 5535   3.105   2.877   6.463  0.3056 -0.1725  0.6223
 1617SOL    HW1 5536   3.119   2.822   6.385 -0.3462 -0.8528  0.9778
 1617SOL    HW2 5537   3.173   2.945   6.457 -0.3782  0.4197 -1.0994
 1618SOL     OW 5538   1.185   3.485   3.402  0.2826  0.2581 -0.4823
 1618SOL    HW1 5539   1.091   3.467   3.394  0.3890 -0.2417 -0.7031
 1618SOL    HW2 5540   1.227   3.399   3.387  0.8364  0.7251 -1.7355
 1619SOL     OW 5541   5.730   6.876   3.100 -0.2864  0.2498  0.2143
 1619SOL    HW1 5542   5.744   6.927   3.180 -0.7755 -1.9161  1.7860
 1619SOL    HW2 5543   5.638   6.852   3.103 -0.3116  0.1530 -1.0470
 1620SOL     OW 5544   1.416   1.258   1.989 -0.1246  0.2834  0.2266
 1620SOL    HW1 5545   1.417   1.232   2.081 -0.3359  0.8418  0.3919
 1620SOL    HW2 5546   1.436   1.178   1.941  0.2509  0.0447  0.7695
 1621SOL     OW 5547   2.444   7.333   2.976 -0.0920 -0.1051  0.4752
 1621SOL    HW1 5548   2.506   7.390   3.021 -1.0535  0.3393  1.2446
 1621SOL    HW2 5549   2.396   7.289   3.046 -0.2030 -0.9617 -0.1141
 1622SOL     OW 5550   1.099   6.088   5.553 -0.2266 -0.2884  0.9769
 1622SOL    HW1 5551   1.006   6.069   5.557 -0.3840  0.0985 -0.2853
 1622SOL    HW2 5552   1.138   6.012   5.510 -0.2306  0.2951 -0.0982
 1623SOL     OW 5553   3.723   6.049   2.729 -0.7027 -0.4980 -0.0362
 1623SOL    HW1 5554   3.677   6.060   2.646 -0.0515 -0.3342 -0.3773
 1623SOL    HW2 5555   3.684   6.115   2.787 -2.1866 -1.5617  0.2605
 1624SOL     OW 5556   5.673   5.077   4.405 -0.2443 -0.8637  0.0757
 1624SOL    HW1 5557   5.764   5.096   4.425 -0.0895  0.9972 -1.9493
 1624SOL    HW2 5558   5.628   5.080   4.489  1.0314  1.7492  0.7686
 1625SOL     OW 5559   2.832   4.382   6.830 -0.4496  1.0126 -0.1021
 1625SOL    HW1 5560   2.825   4.465   6.877  0.6635  1.5331 -0.8187
 1625SOL    HW2 5561   2.742   4.359   6.809 -0.8181  1.7184  0.6488
 1626SOL     OW 5562   7.119   1.485   5.520  0.0708 -0.4816  0.7235
 1626SOL    HW1 5563   7.051   1.420   5.534 -2.3928  1.6155 -0.6652
 1626SOL    HW2 5564   7.076   1.570   5.535  1.8127  1.0291 -1.9197
 1627SOL     OW 5565   4.571   5.158   3.825 -0.2396 -0.3466  0.1896
 1627SOL    HW1 5566   4.652   5.201   3.797 -1.8882  2.2941 -0.9483
 1627SOL    HW2 5567   4.567   5.174   3.919 -0.7412  2.0540 -0.1808
 1628SOL     OW 5568   1.530   6.760   1.941 -0.3082  0.1337 -0.1528
 1628SOL    HW1 5569   1.616   6.726   1.917 -1.0780 -1.9945 -0.1134
 1628SOL    HW2 5570   1.470   6.687   1.926 -1.6140  0.3153  3.1922
 1629SOL     OW 5571   6.309   1.421   3.802  0.5035  0.0966 -0.4080
 1629SOL    HW1 5572   6.313   1.369   3.883 -0.2501  1.5901  0.6402
 1629SOL    HW2 5573   6.334   1.360   3.733 -1.7093 -2.0617  0.5627
 1630SOL     OW 5574   6.321   2.726   6.460  0.1678 -0.1525 -0.1035
 1630SOL    HW1 5575   6.275   2.669   6.398  1.9805  0.6455 -2.3108
 1630SOL    HW2 5576   6.395   2.674   6.489 -0.3261 -0.2869  0.9634
 1631SOL     OW 5577   1.359   0.748   0.545  0.0944 -0.4571 -0.8136
 1631SOL    HW1 5578   1.300   0.674   0.559  1.8516 -1.7171  0.3590
 1631SOL    HW2 5579   1.442   0.720   0.585  1.4790  1.2460 -2.3371
 1632SOL     OW 5580   6.279   7.097   5.743  0.5178 -0.5047  0.1482
 1632SOL    HW1 5581   6.191   7.076   5.774  0.2248  0.2390 -0.1636
 1632SOL    HW2 5582   6.301   7.180   5.786  0.3797  0.1900 -1.0581
 1633SOL     OW 5583   2.485   4.875   4.524  0.3133 -0.1993  0.8589
 1633SOL    HW1 5584   2.438   4.829   4.594 -1.2352  1.1636  0.7644
 1633SOL    HW2 5585   2.421   4.937   4.489  1.7834  0.7619 -0.2185
 1634SOL     OW 5586   2.080   4.038   6.012  0.2967 -0.4548  1.0239
 1634SOL    HW1 5587   2.163   4.050   5.965  0.0854 -1.9459  0.2058
 1634SOL    HW2 5588   2.098   4.071   6.100  1.5430 -0.1085  0.6720
 1635SOL     OW 5589   1.775   1.301   6.379  0.3508 -0.4967  0.1343
 1635SOL    HW1 5590   1.823   1.333   6.456 -0.4467 -0.5450  0.6599
 1635SOL    HW2 5591   1.818   1.218   6.357  2.5677  0.9280 -1.3504
 1636SOL     OW 5592   2.724   5.686   6.561 -1.2822 -0.4723 -0.4723
 1636SOL    HW1 5593   2.777   5.605   6.560  0.1449  0.4192 -0.8332
 1636SOL    HW2 5594   2.763   5.739   6.631 -2.4785 -0.2533  0.0425
 1637SOL     OW 5595   6.822   2.916   1.797 -0.3885 -0.0451  0.0678
 1637SOL    HW1 5596   6.774   2.992   1.831 -2.1446 -0.3147 -1.6284
 1637SOL    HW2 5597   6.808   2.848   1.862  0.3897  0.7723  1.1305
 1638SOL     OW 5598   3.198   2.390   6.471 -0.4798  0.4202 -0.3705
 1638SOL    HW1 5599   3.199   2.378   6.376  0.4416 -1.5396 -0.1699
 1638SOL    HW2 5600   3.203   2.484   6.484 -0.6921  0.7271 -2.2666
 1639SOL     OW 5601   2.946   2.291   6.296  0.2695 -0.2734  0.2900
 1639SOL    HW1 5602   2.895   2.367   6.270  1.2940  0.5252  0.5639
 1639SOL    HW2 5603   2.932   2.283   6.390  1.2147  0.4068  0.5049
 1640SOL     OW 5604   0.819   6.814   4.186  0.4449 -0.2332  0.3132
 1640SOL    HW1 5605   0.809   6.765   4.268 -1.0599 -0.8356 -0.1994
 1640SOL    HW2 5606   0.732   6.848   4.167  0.8155  0.0687 -0.9398
 1641SOL     OW 5607   5.320   7.084   5.753 -0.6804 -0.3812  0.1147
 1641SOL    HW1 5608   5.306   7.172   5.719 -1.4604  0.6112  2.7557
 1641SOL    HW2 5609   5.256   7.030   5.707 -0.7244  0.5484 -0.9805
 1642SOL     OW 5610   6.620   4.113   4.770 -0.2589 -0.0162 -0.5486
 1642SOL    HW1 5611   6.638   4.206   4.761 -2.4702  0.3887 -1.4636
 1642SOL    HW2 5612   6.525   4.106   4.764 -0.0876 -2.4572 -1.8942
 1643SOL     OW 5613   5.281   0.446   2.072  0.1902 -0.0560  0.1957
 1643SOL    HW1 5614   5.269   0.472   2.163 -2.1038 -0.1091 -0.0154
 1643SOL    HW2 5615   5.368   0.477   2.049  0.6960  0.2270  2.3102
 1644SOL     OW 5616   6.408   3.848   4.671 -0.1929 -0.1991  0.1606
 1644SOL    HW1 5617   6.403   3.942   4.652 -1.7170 -0.0154  1.3756
 1644SOL    HW2 5618   6.322   3.814   4.650  0.3656 -1.3706 -0.3422
 1645SOL     OW 5619   2.158   2.930   2.829  0.1939  0.3859  0.1327
 1645SOL    HW1 5620   2.125   3.011   2.791  0.2124  1.0077  1.3862
 1645SOL    HW2 5621   2.080   2.884   2.859  0.3001  1.6201  2.6287
 1646SOL     OW 5622   1.101   3.215   2.664 -0.3570 -0.1058 -0.4656
 1646SOL    HW1 5623   1.147   3.132   2.657 -0.9568 -0.5637  0.7633
 1646SOL    HW2 5624   1.145   3.262   2.735  0.3436  0.9014 -1.5142
 1647SOL     OW 5625   0.515   3.067   5.739  0.4017  0.2671 -0.1780
 1647SOL    HW1 5626   0.492   2.975   5.723 -1.2552  0.0115  2.7958
 1647SOL    HW2 5627   0.531   3.071   5.833  0.4029  3.0479 -0.2147
 1648SOL     OW 5628   3.134   3.868   3.324  0.4856  0.2703 -0.2423
 1648SOL    HW1 5629   3.164   3.783   3.291  0.4829 -0.4772  1.5412
 1648SOL    HW2 5630   3.176   3.932   3.267 -1.0520 -0.9111 -2.8864
 1649SOL     OW 5631   5.661   2.184   3.940  0.2984 -0.4403 -0.4032
 1649SOL    HW1 5632   5.731   2.120   3.925  1.0595  0.0123  0.9902
 1649SOL    HW2 5633   5.588   2.153   3.886  0.8285 -2.1821 -0.1914
 1650SOL     OW 5634   2.305   5.571   5.452 -0.2675  0.1537 -0.2408
 1650SOL    HW1 5635   2.391   5.528   5.449  0.0076  0.6259  0.5030
 1650SOL    HW2 5636   2.297   5.616   5.368  0.2341  0.1436 -0.2946
 1651SOL     OW 5637   3.413   3.046   3.407  0.0416  0.2623  0.5046
 1651SOL    HW1 5638   3.451   2.973   3.455 -1.6401  0.0436  1.5875
 1651SOL    HW2 5639   3.406   3.116   3.473 -0.5601  0.5897  0.0940
 1652SOL     OW 5640   2.067   0.115   3.148 -0.5994 -0.0684 -0.0601
 1652SOL    HW1 5641   2.133   0.122   3.216  0.0349  3.3928 -0.8429
 1652SOL    HW2 5642   2.032   0.027   3.157  2.0468 -1.0053  2.2769
 1653SOL     OW 5643   3.012   3.957   6.365  0.0145  0.1910 -0.1076
 1653SOL    HW1 5644   2.932   3.990   6.325  0.5695  2.1083  0.2729
 1653SOL    HW2 5645   3.070   4.033   6.368  2.1590 -1.3083 -1.1081
 1654SOL     OW 5646   2.940   1.146   0.256 -0.8143  0.0239  0.2632
 1654SOL    HW1 5647   2.959   1.201   0.181  1.6081 -0.4737  0.4537
 1654SOL    HW2 5648   2.849   1.167   0.278 -0.1007  3.9895  0.3285
 1655SOL     OW 5649   0.965   7.100   0.895 -0.1974  0.4938 -0.4456
 1655SOL    HW1 5650   0.945   7.092   0.989 -3.1147  1.3844 -0.8986
 1655SOL    HW2 5651   0.959   7.011   0.862  3.6091 -0.3263  0.5335
 1656SOL     OW 5652   6.627   1.550   7.720  0.4526  0.5152  0.2895
 1656SOL    HW1 5653   6.643   1.575   7.629  0.6866  1.0775  0.4770
 1656SOL    HW2 5654   6.535   1.572   7.735 -0.3237 -1.8639 -0.5183
 1657SOL     OW 5655   4.764   4.727   4.996 -0.2600  0.3628 -0.0978
 1657SOL    HW1 5656   4.701   4.794   5.019 -0.5174  0.5079 -1.1485
 1657SOL    HW2 5657   4.823   4.770   4.933  0.3770 -0.0105  0.2307
 1658SOL     OW 5658   5.194   0.225   1.292  0.6103 -0.0241  0.5643
 1658SOL    HW1 5659   5.229   0.142   1.324 -0.9178 -0.7312  0.4842
 1658SOL    HW2 5660   5.200   0.218   1.197  1.0153  0.2123  0.5693
 1659SOL     OW 5661   7.727   3.916   0.947  0.5482  0.3646 -0.0598
 1659SOL    HW1 5662   7.803   3.975   0.943  0.6999  0.1444 -0.5004
 1659SOL    HW2 5663   7.714   3.901   1.041  1.1429  0.2901  0.0167
 1660SOL     OW 5664   0.505   3.045   3.955 -0.2867  0.2410 -0.1181
 1660SOL    HW1 5665   0.443   3.118   3.959  0.6392  1.0431  0.2930
 1660SOL    HW2 5666   0.570   3.072   3.891 -0.1932 -0.4490 -0.3215
 1661SOL     OW 5667   2.128   0.098   0.493 -0.3071 -0.7613  0.6539
 1661SOL    HW1 5668   2.061   0.161   0.518  0.6304  1.0509 -1.1431
 1661SOL    HW2 5669   2.100   0.066   0.407  1.0101 -0.1037 -0.0405
 1662SOL     OW 5670   0.701   2.308   2.712  0.0614  0.1719 -0.4277
 1662SOL    HW1 5671   0.660   2.233   2.756  0.9139 -0.4699 -0.7119
 1662SOL    HW2 5672   0.637   2.379   2.722 -1.5082 -0.9999 -1.5322
 1663SOL     OW 5673   6.004   3.006   1.369 -0.1088 -0.1604 -0.4514
 1663SOL    HW1 5674   6.096   2.986   1.388  0.1658  1.6263  0.2749
 1663SOL    HW2 5675   5.966   2.922   1.343  1.3034 -1.2784  0.9435
 1664SOL     OW 5676   1.029   6.248   2.066  0.1648 -0.5970  0.1905
 1664SOL    HW1 5677   1.102   6.213   2.117  0.3619 -0.5937 -0.0887
 1664SOL    HW2 5678   0.965   6.177   2.063 -0.9990  0.2093  2.6250
 1665SOL     OW 5679   2.814   6.610   5.328 -0.6069 -0.3320 -0.3533
 1665SOL    HW1 5680   2.886   6.621   5.267 -1.1439  0.2101 -0.9063
 1665SOL    HW2 5681   2.852   6.565   5.403  0.7132  1.3952  0.0844
 1666SOL     OW 5682   6.151   0.363   1.346 -0.7718 -0.3011 -0.2603
 1666SOL    HW1 5683   6.167   0.308   1.423 -2.6667 -0.0452  0.3760
 1666SOL    HW2 5684   6.197   0.445   1.366  0.3508 -0.9011 -0.2918
 1667SOL     OW 5685   0.932   0.145   6.848  0.4731 -0.5066 -0.0706
 1667SOL    HW1 5686   0.858   0.084   6.856  1.3191 -1.7575 -1.2802
 1667SOL    HW2 5687   0.985   0.108   6.777  1.9734  0.6649  0.4067
 1668SOL     OW 5688   1.096   5.515   5.495 -0.3799  0.0975 -0.8342
 1668SOL    HW1 5689   1.108   5.449   5.427 -0.3427 -0.3388 -0.4069
 1668SOL    HW2 5690   1.033   5.477   5.555  0.3816  0.0220 -0.0571
 1669SOL     OW 5691   3.793   3.914   3.427 -0.1436  0.7677 -0.0685
 1669SOL    HW1 5692   3.802   3.857   3.504  0.7653  2.9186  1.5300
 1669SOL    HW2 5693   3.702   3.943   3.430  0.3063  2.1455  1.2315
 1670SOL     OW 5694   4.965   1.276   1.796  0.5070  0.0293  0.0851
 1670SOL    HW1 5695   4.971   1.292   1.890  1.1974 -1.1523  0.2620
 1670SOL    HW2 5696   5.006   1.191   1.783 -1.1725 -0.6658 -1.0580
 1671SOL     OW 5697   2.296   5.544   7.416  0.2951  0.5258  0.2289
 1671SOL    HW1 5698   2.285   5.639   7.425 -1.9393  0.5093 -1.5291
 1671SOL    HW2 5699   2.264   5.524   7.328  0.8413 -1.8577  0.4997
 1672SOL     OW 5700   6.273   0.996   1.169  0.2539  0.6447  0.2423
 1672SOL    HW1 5701   6.249   0.908   1.139  1.4608 -0.1286  1.3952
 1672SOL    HW2 5702   6.361   1.009   1.136  0.0089  1.5217 -0.0816
 1673SOL     OW 5703   2.000   7.327   1.425  0.1284  0.3315  0.0046
 1673SOL    HW1 5704   2.014   7.364   1.338  0.2263 -0.0094 -0.1261
 1673SOL    HW2 5705   2.051   7.383   1.484  1.2828 -0.3312 -0.3474
 1674SOL     OW 5706   1.610   5.602   0.749 -0.0130 -0.0927 -0.5042
 1674SOL    HW1 5707   1.538   5.544   0.724  0.0545 -0.0689 -0.7591
 1674SOL    HW2 5708   1.637   5.571   0.835 -0.6827  0.2338 -0.1651
 1675SOL     OW 5709   0.660   2.610   6.195  0.3088 -0.4983  0.3399
 1675SOL    HW1 5710   0.671   2.633   6.287  0.1371 -0.1224  0.2686
 1675SOL    HW2 5711   0.567   2.593   6.185 -0.0166  1.3638 -0.1785
 1676SOL     OW 5712   1.836   2.240   1.256  0.0386  0.2374 -0.1279
 1676SOL    HW1 5713   1.819   2.327   1.221 -1.7954 -0.7840 -1.9972
 1676SOL    HW2 5714   1.751   2.212   1.291  0.2048 -1.3510 -0.9308
 1677SOL     OW 5715   7.295   6.383   3.637  0.2657  0.2113  0.4892
 1677SOL    HW1 5716   7.256   6.450   3.580  0.0968  0.5842  1.0381
 1677SOL    HW2 5717   7.369   6.428   3.679 -0.7717  0.5432  2.0373
 1678SOL     OW 5718   1.877   4.107   3.538  0.2402  0.3079  0.3928
 1678SOL    HW1 5719   1.814   4.178   3.529 -1.3342 -1.0693  0.0897
 1678SOL    HW2 5720   1.844   4.037   3.481  0.9442 -1.2032  1.7381
 1679SOL     OW 5721   1.142   7.006   7.719 -0.4151  0.4856  0.0538
 1679SOL    HW1 5722   1.174   7.031   7.805 -0.2522 -2.2662  0.8861
 1679SOL    HW2 5723   1.053   6.973   7.735  0.1536 -1.4962 -0.4884
 1680SOL     OW 5724   3.869   2.405   6.774 -0.3787  0.4077 -0.1188
 1680SOL    HW1 5725   3.951   2.364   6.802 -0.2580 -0.3671 -1.5215
 1680SOL    HW2 5726   3.800   2.346   6.806 -0.2453 -0.4282 -1.3023
 1681SOL     OW 5727   5.157   1.384   5.243  0.0127  0.0317  0.4437
 1681SOL    HW1 5728   5.089   1.380   5.311  0.0736  2.8211  0.7791
 1681SOL    HW2 5729   5.115   1.429   5.170  0.6869 -0.7794 -0.4711
 1682SOL     OW 5730   0.940   6.044   2.335  0.2273  0.0482  0.8237
 1682SOL    HW1 5731   0.980   5.966   2.295  0.1020  0.8735 -0.9784
 1682SOL    HW2 5732   0.995   6.063   2.411  1.5929 -0.4919 -0.0007
 1683SOL     OW 5733   0.444   6.609   2.669 -0.6939  0.4085  0.4294
 1683SOL    HW1 5734   0.503   6.598   2.594 -1.7451  0.8395 -0.4964
 1683SOL    HW2 5735   0.410   6.521   2.686 -0.5256  0.3222  0.3244
 1684SOL     OW 5736   7.365   5.710   4.318  0.0004  0.1922  0.0928
 1684SOL    HW1 5737   7.426   5.748   4.381  0.6792 -0.5189 -0.1201
 1684SOL    HW2 5738   7.420   5.684   4.244 -0.8100  1.2107 -0.9008
 1685SOL     OW 5739   0.796   7.613   6.365 -0.2930 -0.0640 -0.3111
 1685SOL    HW1 5740   0.779   7.647   6.453 -0.8642 -0.9327 -0.0688
 1685SOL    HW2 5741   0.868   7.666   6.332 -0.2451  0.4458  0.5803
 1686SOL     OW 5742   6.952   5.870   6.705 -0.2438 -0.6032 -0.0396
 1686SOL    HW1 5743   6.947   5.960   6.737 -0.7322  0.6739 -3.2726
 1686SOL    HW2 5744   6.971   5.817   6.782  0.6966  2.3320  1.8764
 1687SOL     OW 5745   5.067   0.724   2.864 -0.0243 -0.1580 -0.2283
 1687SOL    HW1 5746   5.123   0.758   2.935 -0.0796  1.6346 -0.9884
 1687SOL    HW2 5747   4.979   0.723   2.902  0.4374 -3.0467  0.9951
 1688SOL     OW 5748   3.510   6.449   7.219 -0.3998  0.5053  0.1792
 1688SOL    HW1 5749   3.592   6.400   7.221  0.3404  1.5806 -1.3978
 1688SOL    HW2 5750   3.447   6.393   7.265  0.6419 -1.4166 -0.6037
 1689SOL     OW 5751   7.050   1.163   3.071  0.0276  0.2478 -0.2168
 1689SOL    HW1 5752   7.003   1.243   3.096  1.5860  1.4262 -0.8934
 1689SOL    HW2 5753   7.004   1.132   2.993 -0.6788  0.3877  0.1286
 1690SOL     OW 5754   5.817   6.524   0.635  0.0917 -0.0079  0.2708
 1690SOL    HW1 5755   5.854   6.437   0.621 -0.3771 -0.2457  0.5132
 1690SOL    HW2 5756   5.760   6.515   0.711 -1.2939  0.0914 -0.7197
 1691SOL     OW 5757   5.832   2.109   6.584 -0.2720 -0.3146 -0.4080
 1691SOL    HW1 5758   5.763   2.043   6.578 -0.1872 -0.3368 -1.1407
 1691SOL    HW2 5759   5.858   2.126   6.494  1.3894 -1.0303 -0.0853
 1692SOL     OW 5760   4.803   6.450   3.167 -0.0776 -0.1187  0.0278
 1692SOL    HW1 5761   4.864   6.433   3.095 -1.1306  1.5547 -1.3525
 1692SOL    HW2 5762   4.796   6.545   3.170 -0.7466 -0.2001  1.7824
 1693SOL     OW 5763   1.960   1.933   1.945 -0.2237 -0.2438 -0.7451
 1693SOL    HW1 5764   1.906   1.865   1.986 -1.1854  0.9238 -0.0134
 1693SOL    HW2 5765   1.908   1.964   1.871 -0.4578  0.6897 -0.2055
 1694SOL     OW 5766   2.229   3.867   6.684 -0.7521 -0.2075 -0.2265
 1694SOL    HW1 5767   2.147   3.864   6.733 -1.0083  0.6270 -0.5875
 1694SOL    HW2 5768   2.217   3.802   6.615 -1.1564 -0.0232 -0.3350
 1695SOL     OW 5769   1.607   3.357   4.358 -0.4027 -0.2358  0.2690
 1695SOL    HW1 5770   1.613   3.271   4.399 -0.9821 -1.1921 -1.5085
 1695SOL    HW2 5771   1.518   3.360   4.323  0.1625  0.3328 -1.2052
 1696SOL     OW 5772   2.530   3.698   5.527 -0.1083 -0.3168 -0.4905
 1696SOL    HW1 5773   2.505   3.609   5.552  0.6595 -1.2604 -2.8113
 1696SOL    HW2 5774   2.449   3.737   5.495 -0.3547 -0.3265  0.1069
 1697SOL     OW 5775   3.610   3.396   5.498 -0.1768  0.1062 -0.2815
 1697SOL    HW1 5776   3.538   3.339   5.470 -0.2040  0.2124 -0.4286
 1697SOL    HW2 5777   3.575   3.443   5.574 -0.1686 -0.0410 -0.1846
 1698SOL     OW 5778   0.535   0.052   0.727 -0.3761  0.1640 -0.1062
 1698SOL    HW1 5779   0.540  -0.019   0.663  1.4418  1.5229 -1.6103
 1698SOL    HW2 5780   0.500   0.126   0.678 -1.9973  0.4283  1.3628
 1699SOL     OW 5781   3.526   0.278   6.653  0.5663 -0.1569 -0.4556
 1699SOL    HW1 5782   3.440   0.249   6.683  0.7236 -0.5384 -0.3613
 1699SOL    HW2 5783   3.511   0.363   6.612  0.2950  0.2039  0.3937
 1700SOL     OW 5784   4.260   7.248   4.250  0.5385  0.2013 -0.0813
 1700SOL    HW1 5785   4.329   7.185   4.271  1.8680  2.0063  1.4271
 1700SOL    HW2 5786   4.304   7.333   4.254 -1.8514  1.4789  1.3741
 1701SOL     OW 5787   2.341   4.597   1.660  0.3871 -0.1201  0.0761
 1701SOL    HW1 5788   2.337   4.661   1.730 -1.1717 -0.1066 -0.0036
 1701SOL    HW2 5789   2.270   4.621   1.601  0.0735 -1.6248 -0.2004
 1702SOL     OW 5790   3.810   6.424   1.816 -0.1839 -0.2233  0.0123
 1702SOL    HW1 5791   3.885   6.474   1.848 -0.0501 -1.1816  1.2971
 1702SOL    HW2 5792   3.736   6.459   1.866 -0.5076  0.2931 -0.8044
 1703SOL     OW 5793   6.746   0.467   3.261  0.2151 -0.1115 -0.1966
 1703SOL    HW1 5794   6.654   0.470   3.236  0.5936  1.6889 -1.6577
 1703SOL    HW2 5795   6.753   0.392   3.320 -2.4965  0.6837  1.3047
 1704SOL     OW 5796   1.253   2.596   4.404  0.2301 -0.0866 -0.8539
 1704SOL    HW1 5797   1.205   2.577   4.323  1.1647 -0.2751 -1.3720
 1704SOL    HW2 5798   1.319   2.660   4.378  0.4799 -0.0781 -0.2109
 1705SOL     OW 5799   2.799   2.321   3.277  0.1161  0.3890  0.4355
 1705SOL    HW1 5800   2.821   2.399   3.227 -0.0623  0.8405  1.0588
 1705SOL    HW2 5801   2.716   2.291   3.238  0.8614 -0.2835 -0.7067
 1706SOL     OW 5802   5.619   5.950   3.663  0.1467  0.4201  0.8554
 1706SOL    HW1 5803   5.693   6.007   3.639  0.4123 -0.1454  0.3063
 1706SOL    HW2 5804   5.644   5.914   3.749  0.3767  0.4528  0.8035
 1707SOL     OW 5805   7.689   4.579   2.947  0.0883 -0.0144  0.1517
 1707SOL    HW1 5806   7.634   4.608   3.019  0.1574  0.2552  0.0948
 1707SOL    HW2 5807   7.664   4.634   2.873  2.1131  1.8290  0.7271
 1708SOL     OW 5808   4.219   5.981   0.020 -0.0227 -0.1971 -0.0470
 1708SOL    HW1 5809   4.299   6.025  -0.008  0.3856 -0.3069  0.9120
 1708SOL    HW2 5810   4.169   6.049   0.066 -0.6847 -0.0215 -0.9712
 1709SOL     OW 5811   1.922   5.357   7.488  0.4200  0.0584 -0.5622
 1709SOL    HW1 5812   1.944   5.267   7.512 -1.6199 -0.4561 -0.4110
 1709SOL    HW2 5813   1.842   5.350   7.436 -1.4388  1.8819  1.7548
 1710SOL     OW 5814   5.846   4.385   1.418  0.2144  0.2887 -0.2927
 1710SOL    HW1 5815   5.904   4.461   1.425 -0.9989  1.2074  0.2837
 1710SOL    HW2 5816   5.778   4.413   1.357 -0.6036 -0.0868  0.4346
 1711SOL     OW 5817   5.891   2.389   3.320 -0.5480 -0.7608 -0.0128
 1711SOL    HW1 5818   5.860   2.395   3.410  1.4217  0.5614  0.6380
 1711SOL    HW2 5819   5.866   2.472   3.281  1.2499 -0.0583  0.2559
 1712SOL     OW 5820   7.558   4.076   4.068 -0.5941  0.0734  0.3785
 1712SOL    HW1 5821   7.529   3.985   4.064 -1.1419  0.2099  0.9669
 1712SOL    HW2 5822   7.647   4.072   4.101 -0.1038 -0.3244 -0.9132
 1713SOL     OW 5823   3.293   3.492   3.805 -0.3896 -0.5131  0.0330
 1713SOL    HW1 5824   3.267   3.429   3.873  1.2811 -1.5770 -0.2583
 1713SOL    HW2 5825   3.210   3.527   3.773 -1.3543 -1.9959  0.7625
 1714SOL     OW 5826   5.627   6.796   1.082 -0.4180 -0.1592  0.1184
 1714SOL    HW1 5827   5.567   6.759   1.017  0.5620  0.7251 -1.3323
 1714SOL    HW2 5828   5.593   6.884   1.098 -0.8680 -0.4995  1.1150
 1715SOL     OW 5829   4.945   5.236   2.638  0.3120  0.0837  0.8476
 1715SOL    HW1 5830   4.945   5.299   2.710 -0.2462 -0.2758  1.1625
 1715SOL    HW2 5831   4.927   5.152   2.679  0.7991 -0.2525  0.3907
 1716SOL     OW 5832   4.449   7.615   2.928 -0.1689  0.0158  0.3104
 1716SOL    HW1 5833   4.515   7.594   2.862 -1.0492 -0.9658 -0.3014
 1716SOL    HW2 5834   4.468   7.705   2.953 -0.7349  1.0007 -2.4617
 1717SOL     OW 5835   2.471   1.153   5.847  0.2369  0.1830 -0.4095
 1717SOL    HW1 5836   2.396   1.209   5.866 -0.7625 -1.0210 -0.6529
 1717SOL    HW2 5837   2.535   1.174   5.915 -0.7999  0.3663  0.5366
 1718SOL     OW 5838   1.887   0.512   3.773  0.3890 -0.1518 -0.4938
 1718SOL    HW1 5839   1.905   0.587   3.717  0.6108  0.4208  0.3288
 1718SOL    HW2 5840   1.896   0.546   3.862  0.9527 -1.2622 -0.1135
 1719SOL     OW 5841   0.397   2.201   3.532 -0.2314 -0.0726  0.1475
 1719SOL    HW1 5842   0.411   2.296   3.535  2.5468 -0.4064  0.4912
 1719SOL    HW2 5843   0.327   2.185   3.596  0.4072  1.5910  1.3176
 1720SOL     OW 5844   1.809   2.555   1.532  0.2366 -0.7600 -0.1544
 1720SOL    HW1 5845   1.873   2.599   1.588 -0.9863  1.4843 -0.3694
 1720SOL    HW2 5846   1.797   2.614   1.458  0.5541 -2.8547 -1.9725
 1721SOL     OW 5847   4.413   0.562   5.646 -0.2601 -0.2524  0.2118
 1721SOL    HW1 5848   4.431   0.515   5.728  0.2348  0.5489  0.5717
 1721SOL    HW2 5849   4.328   0.603   5.661 -0.1351 -0.0431  0.3606
 1722SOL     OW 5850   0.013   5.263   6.523 -0.0371 -0.1566 -0.1916
 1722SOL    HW1 5851  -0.058   5.199   6.518 -2.0884  1.7935  1.3573
 1722SOL    HW2 5852   0.019   5.284   6.617  1.8553  0.5652 -0.4307
 1723SOL     OW 5853   1.744   1.141   1.724  0.2355  0.7988 -0.0416
 1723SOL    HW1 5854   1.667   1.189   1.695  0.2291  0.8650  0.0828
 1723SOL    HW2 5855   1.771   1.091   1.648 -0.3599  0.2078  0.1271
 1724SOL     OW 5856   4.535   0.121   0.281 -0.5587  0.0872 -0.1009
 1724SOL    HW1 5857   4.563   0.029   0.276  0.5605  0.4743 -1.4838
 1724SOL    HW2 5858   4.481   0.133   0.203 -1.0005  0.5232  0.2642
 1725SOL     OW 5859   2.238   3.134   3.523 -0.0697  0.3771  0.2275
 1725SOL    HW1 5860   2.218   3.047   3.489 -0.9510  0.8802 -0.5747
 1725SOL    HW2 5861   2.263   3.119   3.614 -0.3276 -0.7016  0.1318
 1726SOL     OW 5862   7.183   7.667   2.704  0.1602 -0.5036  0.2293
 1726SOL    HW1 5863   7.263   7.653   2.652  1.2997 -0.0111  1.7761
 1726SOL    HW2 5864   7.193   7.754   2.740 -0.9889 -0.5366  0.6554
 1727SOL     OW 5865   5.976   4.194   4.645  0.2107 -0.0444  0.1906
 1727SOL    HW1 5866   5.978   4.266   4.582 -0.6105 -0.5810 -0.4681
 1727SOL    HW2 5867   5.923   4.227   4.718 -1.7454 -0.5849 -0.9157
 1728SOL     OW 5868   2.216   4.900   4.311 -0.0907 -0.4904 -0.1964
 1728SOL    HW1 5869   2.230   4.987   4.348  0.5127  0.1960 -1.9345
 1728SOL    HW2 5870   2.148   4.861   4.366 -1.7143  1.7728 -0.4522
 1729SOL     OW 5871   2.516   6.312   5.183 -0.0628  0.2012 -0.1787
 1729SOL    HW1 5872   2.451   6.242   5.191 -1.4374  1.2963 -1.2605
 1729SOL    HW2 5873   2.596   6.268   5.156 -0.2942 -1.1946  1.2484
 1730SOL     OW 5874   0.160   0.537   1.861  0.1187 -0.2591 -0.2016
 1730SOL    HW1 5875   0.200   0.521   1.947  0.8284 -0.3637 -0.5429
 1730SOL    HW2 5876   0.067   0.544   1.879  0.3133  0.3048  0.6729
 1731SOL     OW 5877   4.853   2.399   5.548 -0.1610  0.2341 -0.1212
 1731SOL    HW1 5878   4.852   2.463   5.619 -2.0346  1.0670 -0.8358
 1731SOL    HW2 5879   4.772   2.350   5.559 -0.2309  0.0331 -1.3764
 1732SOL     OW 5880   7.447   1.922   5.627 -0.6233  0.1745 -0.4609
 1732SOL    HW1 5881   7.541   1.939   5.614 -0.6498 -0.3343 -1.4008
 1732SOL    HW2 5882   7.431   1.841   5.579 -1.0628 -1.0346  1.6258
 1733SOL     OW 5883   3.708   2.940   4.660 -0.2456 -0.0110  0.2791
 1733SOL    HW1 5884   3.663   2.897   4.587 -1.3018  0.5814  0.5593
 1733SOL    HW2 5885   3.640   2.991   4.703  0.4874  0.0900  1.3518
 1734SOL     OW 5886   5.021   2.811   7.355  0.6719  0.0054  0.3021
 1734SOL    HW1 5887   4.929   2.819   7.377  0.8260  0.9604  0.6505
 1734SOL    HW2 5888   5.031   2.721   7.323 -0.7621  0.4716 -1.5859
 1735SOL     OW 5889   0.418   6.697   5.334  0.0555 -0.3266 -0.2185
 1735SOL    HW1 5890   0.485   6.679   5.400 -1.0275 -1.5383  0.6001
 1735SOL    HW2 5891   0.467   6.721   5.256  1.3924  2.4244  1.3213
 1736SOL     OW 5892   3.003   2.182   4.066 -0.3509 -0.6978 -0.2115
 1736SOL    HW1 5893   3.029   2.171   4.157 -1.0521  2.3717  0.4428
 1736SOL    HW2 5894   2.908   2.187   4.068 -0.3409  0.0101 -1.0319
 1737SOL     OW 5895   4.749   3.507   0.269  0.2562  0.4529  0.0713
 1737SOL    HW1 5896   4.804   3.558   0.328  1.0503  1.5122 -1.5206
 1737SOL    HW2 5897   4.669   3.490   0.319  1.4014  0.1589  1.8993
 1738SOL     OW 5898   0.500   7.204   5.148 -0.2908  0.1582  0.2451
 1738SOL    HW1 5899   0.531   7.161   5.068 -0.2630  1.3067 -0.3818
 1738SOL    HW2 5900   0.532   7.148   5.219  2.6545  0.9035 -0.3857
 1739SOL     OW 5901   2.001   5.396   3.709  0.1995 -0.1685 -0.1755
 1739SOL    HW1 5902   2.020   5.372   3.618 -1.0578 -1.9276 -0.0197
 1739SOL    HW2 5903   1.951   5.322   3.743 -0.8451  1.2209  1.4431
 1740SOL     OW 5904   0.669   3.091   6.260 -0.1264  0.6629 -0.2264
 1740SOL    HW1 5905   0.616   3.162   6.295 -0.2464  1.2555 -1.5765
 1740SOL    HW2 5906   0.697   3.042   6.338 -2.0417  0.7464  0.5669
 1741SOL     OW 5907   0.266   3.856   3.740 -0.5797  0.3757 -0.5007
 1741SOL    HW1 5908   0.300   3.848   3.651 -2.3560  1.0486 -1.2860
 1741SOL    HW2 5909   0.278   3.948   3.763  0.0368  0.1663  0.0348
 1742SOL     OW 5910   5.797   5.695   4.535  0.3221  0.0472  0.4981
 1742SOL    HW1 5911   5.825   5.776   4.579 -0.1673  1.2874 -1.3467
 1742SOL    HW2 5912   5.752   5.725   4.456 -0.0146 -2.0514 -0.1733
 1743SOL     OW 5913   2.085   0.379   1.684 -0.2587 -0.0524  0.0422
 1743SOL    HW1 5914   1.999   0.387   1.725 -0.9561  0.2486 -1.4053
 1743SOL    HW2 5915   2.066   0.355   1.593  1.2275 -0.8778 -0.0818
 1744SOL     OW 5916   6.654   5.235   4.703 -0.1832  0.2636  0.5795
 1744SOL    HW1 5917   6.580   5.201   4.652  0.2813  0.6817 -0.3940
 1744SOL    HW2 5918   6.717   5.264   4.637  0.9410 -0.2657  1.3992
 1745SOL     OW 5919   4.096   5.837   0.543  0.1413  0.2292  0.2692
 1745SOL    HW1 5920   4.048   5.907   0.588  0.0461  0.4354 -0.1398
 1745SOL    HW2 5921   4.027   5.779   0.511  0.2771 -0.9436  1.9947
 1746SOL     OW 5922   1.389   3.573   2.139 -0.0128  0.1925 -0.7376
 1746SOL    HW1 5923   1.298   3.604   2.134  0.0011  0.3937  0.0892
 1746SOL    HW2 5924   1.382   3.478   2.132 -0.3074  0.1952 -0.5096
 1747SOL     OW 5925   0.529   4.750   1.067  0.1397  0.0435 -0.6887
 1747SOL    HW1 5926   0.472   4.761   0.991 -0.7086 -0.1279 -0.0954
 1747SOL    HW2 5927   0.533   4.837   1.107  0.3269  0.0620 -0.7454
 1748SOL     OW 5928   0.452   6.390   5.439  0.1054  0.1833  0.2549
 1748SOL    HW1 5929   0.520   6.323   5.429  0.5563  0.4608  1.2657
 1748SOL    HW2 5930   0.498   6.464   5.480 -0.8141  0.3634  0.9921
 1749SOL     OW 5931   1.267   4.450   3.909 -0.2127 -0.1602 -0.3430
 1749SOL    HW1 5932   1.224   4.386   3.965  1.3410 -1.4609 -0.5961
 1749SOL    HW2 5933   1.340   4.483   3.961 -0.7020  1.0763 -0.4009
 1750SOL     OW 5934   4.735   2.470   6.355 -0.0501 -0.1345 -0.0136
 1750SOL    HW1 5935   4.680   2.508   6.287 -0.7936  0.3324  0.8176
 1750SOL    HW2 5936   4.673   2.432   6.417  0.5721  0.0277  0.7290
 1751SOL     OW 5937   6.797   3.582   3.262 -0.3177 -0.1869  0.4777
 1751SOL    HW1 5938   6.776   3.570   3.170 -0.8899 -1.5465  0.7618
 1751SOL    HW2 5939   6.855   3.509   3.283  2.4289  1.8154  0.4584
 1752SOL     OW 5940   7.594   3.022   3.192 -0.2930 -0.7822 -0.7893
 1752SOL    HW1 5941   7.558   3.069   3.117  1.4475  0.1925 -1.0532
 1752SOL    HW2 5942   7.606   3.089   3.259 -0.3885 -1.3755 -0.1642
 1753SOL     OW 5943   3.178   6.459   4.307 -0.0423 -0.1428 -0.4730
 1753SOL    HW1 5944   3.171   6.397   4.379  0.0771  1.6615  1.1546
 1753SOL    HW2 5945   3.250   6.518   4.332 -0.4181  0.9103 -1.7411
 1754SOL     OW 5946   4.662   6.394   5.411 -0.0988 -0.0572  0.5857
 1754SOL    HW1 5947   4.681   6.305   5.443 -0.7590 -0.3371  0.2187
 1754SOL    HW2 5948   4.672   6.449   5.489 -0.9098 -0.6250  1.1106
 1755SOL     OW 5949   4.757   1.397   0.609 -0.4923 -0.3444  0.1758
 1755SOL    HW1 5950   4.691   1.329   0.595  0.7930 -1.3006 -1.8783
 1755SOL    HW2 5951   4.839   1.348   0.616  0.1559  0.8807  1.3647
 1756SOL     OW 5952   1.212   1.573   5.872  0.5169  0.0226  0.4487
 1756SOL    HW1 5953   1.234   1.481   5.857  0.5937  0.1413 -0.1815
 1756SOL    HW2 5954   1.211   1.612   5.785 -2.7945 -0.1006  0.3106
 1757SOL     OW 5955   2.295   3.763   4.346  0.2351 -0.7097  0.0903
 1757SOL    HW1 5956   2.223   3.700   4.337 -1.0447  0.8287 -0.8877
 1757SOL    HW2 5957   2.355   3.742   4.274  0.6615 -1.7941  0.7266
 1758SOL     OW 5958   5.468   3.895   4.842  0.0019 -0.0228  0.2879
 1758SOL    HW1 5959   5.383   3.938   4.827 -1.5257 -2.4900  1.2120
 1758SOL    HW2 5960   5.529   3.942   4.786 -2.2441  1.0653 -1.3984
 1759SOL     OW 5961   2.821   4.471   3.308 -0.0217  0.9228 -1.1497
 1759SOL    HW1 5962   2.912   4.501   3.299 -0.0014  0.2930 -4.9092
 1759SOL    HW2 5963   2.828   4.377   3.323 -0.0950  1.1450  0.3866
 1760SOL     OW 5964   4.045   1.836   6.180 -0.0102  0.1856 -0.3515
 1760SOL    HW1 5965   4.108   1.790   6.235 -0.9972 -0.7334  0.0566
 1760SOL    HW2 5966   4.092   1.914   6.149  0.6438  0.6438  1.6467
 1761SOL     OW 5967   5.522   4.437   7.166  0.6540  0.0523  0.4888
 1761SOL    HW1 5968   5.575   4.359   7.184  1.2216  0.4937  0.7782
 1761SOL    HW2 5969   5.522   4.486   7.249 -0.1407  0.1028  0.4686
 1762SOL     OW 5970   1.764   6.472   2.119 -0.3424  0.4825  0.4074
 1762SOL    HW1 5971   1.850   6.475   2.161 -1.0277  1.2136  1.8454
 1762SOL    HW2 5972   1.702   6.490   2.190 -1.5521  2.2542 -0.9896
 1763SOL     OW 5973   5.166   7.414   1.986  0.6327  0.2501 -0.4663
 1763SOL    HW1 5974   5.106   7.484   1.965 -0.2621 -0.3502 -0.0065
 1763SOL    HW2 5975   5.253   7.448   1.964  0.0852  0.9319 -1.6461
 1764SOL     OW 5976   2.247   6.753   2.709  0.0258 -0.0552  0.3031
 1764SOL    HW1 5977   2.260   6.686   2.642 -0.0792  0.2334 -0.0103
 1764SOL    HW2 5978   2.309   6.731   2.778  1.4482  0.6947 -0.7009
 1765SOL     OW 5979   0.476   7.504   5.147 -0.7820  0.0504 -0.0755
 1765SOL    HW1 5980   0.413   7.497   5.218  0.1674 -0.4344  0.7413
 1765SOL    HW2 5981   0.485   7.415   5.113 -0.1278  0.0108  0.1866
 1766SOL     OW 5982   5.665   3.085   5.627  0.7695  0.8360  0.0445
 1766SOL    HW1 5983   5.578   3.069   5.664  1.1309 -1.4612  0.0504
 1766SOL    HW2 5984   5.725   3.059   5.697  1.4724  1.1418 -0.4366
 1767SOL     OW 5985   3.284   2.043   6.255  0.1892  0.5063  0.2580
 1767SOL    HW1 5986   3.257   1.968   6.308  0.8205  0.5853  0.6997
 1767SOL    HW2 5987   3.306   2.111   6.318 -0.4662  1.1018 -0.1437
 1768SOL     OW 5988   6.203   2.492   5.529  0.0503 -0.0233 -0.0356
 1768SOL    HW1 5989   6.198   2.551   5.604 -0.7641 -0.3453  0.1704
 1768SOL    HW2 5990   6.112   2.478   5.502  0.3687  1.1867 -1.9620
 1769SOL     OW 5991   1.895   1.260   3.262  0.1689 -0.1871 -0.0566
 1769SOL    HW1 5992   1.907   1.230   3.352 -0.4418 -0.0993  0.0593
 1769SOL    HW2 5993   1.951   1.203   3.210 -1.4248 -1.9869  0.0777
 1770SOL     OW 5994   7.053   1.379   1.660 -0.1171 -0.6103  0.3214
 1770SOL    HW1 5995   7.066   1.287   1.637  1.0831 -0.4769  0.3605
 1770SOL    HW2 5996   7.065   1.426   1.578 -1.0534 -0.5001  0.2381
 1771SOL     OW 5997   4.385   7.700   3.434 -0.5896 -0.2671 -0.0110
 1771SOL    HW1 5998   4.383   7.694   3.529 -2.4096 -3.1056 -0.0918
 1771SOL    HW2 5999   4.432   7.621   3.406 -0.8987  0.0373 -1.4837
 1772SOL     OW 6000   7.272   4.537   2.120 -0.3764  0.0926  0.1242
 1772SOL    HW1 6001   7.191   4.588   2.115 -0.3668  0.2789  1.5906
 1772SOL    HW2 6002   7.324   4.569   2.046 -0.6123  1.8090  0.6463
 1773SOL     OW 6003   0.611   1.656   4.633  0.0336 -0.0933 -0.4100
 1773SOL    HW1 6004   0.644   1.613   4.554  1.8629  0.0873  0.2030
 1773SOL    HW2 6005   0.622   1.590   4.702 -1.7021 -0.3092 -0.2929
 1774SOL     OW 6006   3.931   0.666   3.731  0.0710 -0.4379  0.1043
 1774SOL    HW1 6007   3.860   0.684   3.793  1.0686  0.1186  1.1215
 1774SOL    HW2 6008   3.921   0.574   3.708 -0.5982 -0.5257  0.7329
 1775SOL     OW 6009   3.899   4.102   7.726  0.0620 -0.3580  0.2889
 1775SOL    HW1 6010   3.963   4.066   7.664  0.8561  0.1992  0.7593
 1775SOL    HW2 6011   3.885   4.192   7.696 -1.0102 -0.6731 -0.1898
 1776SOL     OW 6012   2.444   4.760   7.310  0.0714 -0.0174  0.3095
 1776SOL    HW1 6013   2.499   4.798   7.241 -1.1707 -0.3291 -0.9006
 1776SOL    HW2 6014   2.390   4.695   7.265 -1.4824  0.4717  1.3624
 1777SOL     OW 6015   5.722   0.384   2.309  0.3588 -0.2090 -0.5249
 1777SOL    HW1 6016   5.726   0.393   2.214  0.2403  0.1012 -0.5006
 1777SOL    HW2 6017   5.692   0.294   2.323 -1.2115  0.2427 -0.8081
 1778SOL     OW 6018   6.454   3.034   2.642  0.7763  0.3800 -0.1534
 1778SOL    HW1 6019   6.466   3.092   2.566  2.0582  1.3734  0.7606
 1778SOL    HW2 6020   6.380   3.070   2.689  1.8227  1.5873  0.6331
 1779SOL     OW 6021   6.930   6.316   1.357  0.2722  0.3355  0.3885
 1779SOL    HW1 6022   6.880   6.239   1.385  0.3389 -1.9143 -4.6660
 1779SOL    HW2 6023   7.011   6.280   1.322  0.9818  2.9130 -0.8380
 1780SOL     OW 6024   7.339   0.360   6.201 -0.0645 -0.4456 -0.6444
 1780SOL    HW1 6025   7.432   0.379   6.188  0.0744  0.5143  1.3760
 1780SOL    HW2 6026   7.338   0.269   6.231  0.3670 -0.0850  0.5159
 1781SOL     OW 6027   6.367   4.542   2.747  0.2385 -0.3143 -0.3740
 1781SOL    HW1 6028   6.447   4.496   2.772 -0.7676 -1.3149  1.1793
 1781SOL    HW2 6029   6.388   4.582   2.662  3.1234  1.3937  0.9893
 1782SOL     OW 6030   0.604   6.729   5.137 -0.0660 -0.0553  0.0843
 1782SOL    HW1 6031   0.599   6.655   5.076  0.2071 -0.6746  0.7950
 1782SOL    HW2 6032   0.651   6.797   5.088  4.3168 -2.0618  0.9781
 1783SOL     OW 6033   2.391   0.072   0.100  0.1754 -0.3367 -0.5095
 1783SOL    HW1 6034   2.400   0.001   0.164 -0.3188 -1.9173 -2.1399
 1783SOL    HW2 6035   2.474   0.071   0.052 -0.0718 -0.1853 -0.9376
 1784SOL     OW 6036   4.922   7.650   3.026  0.5684 -0.2625  0.4109
 1784SOL    HW1 6037   4.986   7.671   3.093  0.9030 -1.4597  0.4845
 1784SOL    HW2 6038   4.838   7.678   3.063  0.9973  1.2145  0.3557
 1785SOL     OW 6039   4.603   3.413   1.929 -0.1854  0.3151  0.0962
 1785SOL    HW1 6040   4.512   3.396   1.905 -0.5607  2.2768 -0.0587
 1785SOL    HW2 6041   4.623   3.498   1.889  0.7778  1.3148  2.4482
 1786SOL     OW 6042   0.862   6.151   5.262 -0.1393 -0.6107  0.2257
 1786SOL    HW1 6043   0.958   6.140   5.264  0.1193  1.2777 -0.2824
 1786SOL    HW2 6044   0.849   6.246   5.263 -2.0816 -0.8354  2.1556
 1787SOL     OW 6045   0.874   7.257   6.982 -0.5102 -0.0853  0.1618
 1787SOL    HW1 6046   0.922   7.282   7.061 -1.8053  1.8906  0.4043
 1787SOL    HW2 6047   0.941   7.221   6.924  0.7567 -0.0248  1.5121
 1788SOL     OW 6048   0.775   6.106   0.507  0.8030 -0.2200  0.3969
 1788SOL    HW1 6049   0.844   6.172   0.506  0.2090  0.4283  0.6283
 1788SOL    HW2 6050   0.786   6.058   0.425  0.5846  0.8988 -0.3114
 1789SOL     OW 6051   1.481   6.814   3.862  0.1687  0.3733  0.2649
 1789SOL    HW1 6052   1.399   6.858   3.885 -0.2295 -0.7485  1.0797
 1789SOL    HW2 6053   1.478   6.731   3.909  0.8141 -0.6219 -1.3512
 1790SOL     OW 6054   2.980   3.653   2.322 -0.0077  0.8150  0.1058
 1790SOL    HW1 6055   2.891   3.685   2.338  0.6644  1.7865  2.3357
 1790SOL    HW2 6056   3.026   3.729   2.287 -0.2088  0.0757 -1.8822
 1791SOL     OW 6057   2.202   7.079   0.675 -0.3364 -1.2226 -0.4438
 1791SOL    HW1 6058   2.136   7.010   0.667 -0.2666 -1.1643 -1.6994
 1791SOL    HW2 6059   2.248   7.079   0.591 -1.6660  1.6559 -1.3401
 1792SOL     OW 6060   2.755   2.796   1.144 -0.3830 -0.8015  0.3966
 1792SOL    HW1 6061   2.803   2.756   1.071 -0.5438  0.7915 -0.6567
 1792SOL    HW2 6062   2.817   2.796   1.216  0.6736 -0.2338 -0.4714
 1793SOL     OW 6063   6.800   0.899   0.766  0.2572  0.0785 -0.2965
 1793SOL    HW1 6064   6.742   0.877   0.693 -0.0089 -0.1471 -0.0150
 1793SOL    HW2 6065   6.877   0.843   0.753 -0.3821 -0.9788  0.3761
 1794SOL     OW 6066   2.701   4.773   4.397 -1.0456 -0.6009  0.4576
 1794SOL    HW1 6067   2.643   4.826   4.452  1.0803  1.0523  1.2630
 1794SOL    HW2 6068   2.778   4.759   4.451  1.0117  0.8115 -1.8984
 1795SOL     OW 6069   7.726   3.667   6.031 -0.4011  0.0140 -0.6119
 1795SOL    HW1 6070   7.637   3.631   6.027 -1.3279  2.1195 -0.2882
 1795SOL    HW2 6071   7.760   3.658   5.942 -1.3063  0.0212 -0.9716
 1796SOL     OW 6072   3.366   2.608   7.422 -0.3746 -0.0757  0.3458
 1796SOL    HW1 6073   3.320   2.541   7.474  1.9579 -1.5863  0.5985
 1796SOL    HW2 6074   3.406   2.665   7.487 -0.1264 -0.0329  0.1537
 1797SOL     OW 6075   1.803   7.732   1.554  0.6617  0.0146  0.2546
 1797SOL    HW1 6076   1.752   7.812   1.543 -1.0462 -1.1493 -0.6177
 1797SOL    HW2 6077   1.751   7.678   1.614  0.9634 -1.1060 -0.4725
 1798SOL     OW 6078   5.776   1.925   2.518 -0.6027  0.2914 -0.4217
 1798SOL    HW1 6079   5.690   1.937   2.480 -1.1513  0.2508  0.7635
 1798SOL    HW2 6080   5.796   1.833   2.504 -0.5738  0.3906 -1.0481
 1799SOL     OW 6081   2.548   6.426   7.147 -0.0401  0.0268 -0.5394
 1799SOL    HW1 6082   2.627   6.478   7.161  0.0995 -0.2642 -0.2100
 1799SOL    HW2 6083   2.581   6.339   7.125 -0.2705  0.0165 -0.8499
 1800SOL     OW 6084   6.010   7.126   5.873 -0.2888 -0.1428  0.0223
 1800SOL    HW1 6085   5.976   7.201   5.921 -0.3039  0.5617 -1.0564
 1800SOL    HW2 6086   6.030   7.061   5.941 -1.4479  0.3505  0.8717
 1801SOL     OW 6087   5.766   2.531   2.938  0.1115 -0.5653  0.4935
 1801SOL    HW1 6088   5.736   2.527   2.847 -0.8734 -0.1796  0.7861
 1801SOL    HW2 6089   5.834   2.597   2.938 -0.1460 -0.2936  0.1048
 1802SOL     OW 6090   3.313   3.097   7.011 -0.0281  0.0907 -0.1931
 1802SOL    HW1 6091   3.384   3.034   7.001 -0.2665 -0.0881 -0.7837
 1802SOL    HW2 6092   3.247   3.051   7.062  0.7706  0.6644  1.4331
 1803SOL     OW 6093   4.094   0.753   6.155 -0.3823  0.2243 -0.1087
 1803SOL    HW1 6094   4.012   0.713   6.185 -0.1316 -0.2692 -0.0717
 1803SOL    HW2 6095   4.132   0.688   6.096  0.6431 -0.1319  0.9131
 1804SOL     OW 6096   5.629   7.006   2.482 -0.2434  0.4576 -0.2100
 1804SOL    HW1 6097   5.561   6.975   2.423 -1.0262  0.0117  0.8991
 1804SOL    HW2 6098   5.690   6.932   2.491 -0.1419  0.5146 -0.4231
 1805SOL     OW 6099   1.116   2.360   3.364 -0.2413 -0.3655  0.3401
 1805SOL    HW1 6100   1.045   2.384   3.305  0.6263  2.4519  0.3051
 1805SOL    HW2 6101   1.119   2.265   3.360 -1.5335 -0.3775 -2.5581
 1806SOL     OW 6102   7.316   5.370   4.717 -0.1166  0.0729 -0.1162
 1806SOL    HW1 6103   7.259   5.317   4.660  0.5972 -1.2567  0.3498
 1806SOL    HW2 6104   7.281   5.356   4.805 -0.3204  0.9358 -0.0508
 1807SOL     OW 6105   4.435   6.941   6.653  0.3588  0.0935  0.4318
 1807SOL    HW1 6106   4.430   6.917   6.560 -0.0691  0.9560  0.2261
 1807SOL    HW2 6107   4.478   6.866   6.694  0.1463 -0.4979 -0.3880
 1808SOL     OW 6108   2.111   2.352   1.412  0.1308  0.2503 -0.1075
 1808SOL    HW1 6109   2.143   2.289   1.347 -0.7456 -0.4763  0.1466
 1808SOL    HW2 6110   2.024   2.320   1.436 -0.9185  2.2937 -0.9388
 1809SOL     OW 6111   2.806   7.338   5.812 -0.3163 -0.1570 -0.6319
 1809SOL    HW1 6112   2.878   7.282   5.783  0.6336  0.9564 -0.4967
 1809SOL    HW2 6113   2.758   7.284   5.874  0.6624 -0.7709 -0.3799
 1810SOL     OW 6114   4.266   7.479   2.386  0.3219 -0.0755 -0.6460
 1810SOL    HW1 6115   4.348   7.433   2.374  1.4532  1.8580 -0.8153
 1810SOL    HW2 6116   4.229   7.443   2.466  0.7574 -1.7566 -1.1773
 1811SOL     OW 6117   2.935   1.844   6.989 -0.3362  0.4695 -0.3039
 1811SOL    HW1 6118   2.964   1.899   6.917  0.6335 -0.7329 -0.8723
 1811SOL    HW2 6119   2.972   1.885   7.067 -1.5045  1.8545 -0.4344
 1812SOL     OW 6120   4.043   2.716   3.912 -0.3694 -0.5876 -0.8274
 1812SOL    HW1 6121   3.997   2.760   3.841 -0.5620 -0.7595 -0.8102
 1812SOL    HW2 6122   4.103   2.656   3.869  0.7657  0.5383 -0.8801
 1813SOL     OW 6123   1.405   7.261   7.522  0.4416 -0.2945  0.3009
 1813SOL    HW1 6124   1.373   7.332   7.467  1.2925  1.7343  2.2280
 1813SOL    HW2 6125   1.454   7.204   7.462 -1.6283 -0.1949 -1.5917
 1814SOL     OW 6126   7.600   0.404   5.539  0.3307 -0.6246  0.0796
 1814SOL    HW1 6127   7.568   0.382   5.452 -0.7118 -2.3811  0.8297
 1814SOL    HW2 6128   7.576   0.496   5.551 -2.3936 -1.1778 -0.3479
 1815SOL     OW 6129   2.992   4.062   2.340 -0.0974  0.1600 -0.2306
 1815SOL    HW1 6130   3.064   4.099   2.289 -0.0976 -0.6196 -0.8259
 1815SOL    HW2 6131   3.002   4.099   2.428  1.1414 -0.0905 -0.2606
 1816SOL     OW 6132   6.050   0.391   7.665  0.3147 -0.3558  0.0009
 1816SOL    HW1 6133   5.986   0.445   7.619  0.1316 -0.3036  0.3133
 1816SOL    HW2 6134   6.112   0.364   7.597  1.0620  1.1615  0.0374
 1817SOL     OW 6135   2.726   0.441   4.781  0.7675 -0.6374 -0.2838
 1817SOL    HW1 6136   2.735   0.348   4.766 -0.5271 -0.7826 -0.2950
 1817SOL    HW2 6137   2.726   0.450   4.877 -0.2306 -0.8016 -0.2533
 1818SOL     OW 6138   3.943   6.569   4.131  0.6215 -0.5567  0.1099
 1818SOL    HW1 6139   3.903   6.649   4.165 -0.7119 -0.5730 -1.2956
 1818SOL    HW2 6140   3.872   6.526   4.082  1.8628 -1.5710 -0.8624
 1819SOL     OW 6141   3.772   4.144   2.262 -0.3551  0.2810 -0.3140
 1819SOL    HW1 6142   3.729   4.144   2.176  0.9632 -4.5299 -1.2846
 1819SOL    HW2 6143   3.700   4.141   2.325 -1.6404 -3.0702 -1.7025
 1820SOL     OW 6144   6.850   3.972   2.132  0.4524  0.2323 -0.9189
 1820SOL    HW1 6145   6.836   3.879   2.112  0.7682  0.0326 -0.2416
 1820SOL    HW2 6146   6.857   3.975   2.228 -0.3773  1.0745 -0.8751
 1821SOL     OW 6147   5.253   3.404   4.878  0.0057  0.6215  0.8192
 1821SOL    HW1 6148   5.175   3.417   4.932  0.2688  2.0614  0.8923
 1821SOL    HW2 6149   5.235   3.451   4.797  0.8492  1.1067  0.8985
 1822SOL     OW 6150   6.342   5.266   5.928 -0.2154 -0.3109 -0.3497
 1822SOL    HW1 6151   6.295   5.194   5.887 -1.5380  0.3787 -0.0849
 1822SOL    HW2 6152   6.321   5.342   5.874  0.2679  0.0889  0.0117
 1823SOL     OW 6153   2.164   4.795   1.197 -0.0566 -0.4895  0.0727
 1823SOL    HW1 6154   2.203   4.709   1.182 -1.1655 -0.8476 -0.9258
 1823SOL    HW2 6155   2.233   4.846   1.238  0.9149 -1.5826 -0.1600
 1824SOL     OW 6156   3.455   3.262   7.769 -0.2199  0.0264  0.1794
 1824SOL    HW1 6157   3.381   3.240   7.711 -0.6187  1.0430  0.2661
 1824SOL    HW2 6158   3.424   3.241   7.857 -0.3397  0.2520  0.1942
 1825SOL     OW 6159   3.116   1.946   0.786 -0.2788 -0.0857 -0.0771
 1825SOL    HW1 6160   3.088   1.870   0.735  0.3582  0.5358 -1.4165
 1825SOL    HW2 6161   3.049   2.012   0.770 -0.2603 -0.0009  0.1881
 1826SOL     OW 6162   0.484   7.207   6.114 -0.7684  0.1414  0.4799
 1826SOL    HW1 6163   0.508   7.115   6.110  0.7075  0.5313 -0.5686
 1826SOL    HW2 6164   0.562   7.254   6.084 -2.0936  1.6364 -0.8608
 1827SOL     OW 6165   4.012   3.589   1.362 -0.4239  0.2046  0.5271
 1827SOL    HW1 6166   3.927   3.604   1.404 -0.4462 -0.5507  0.7553
 1827SOL    HW2 6167   4.074   3.584   1.435 -0.2223  0.4622  0.3773
 1828SOL     OW 6168   2.568   5.045   6.465  0.0097 -0.0491  0.8307
 1828SOL    HW1 6169   2.641   5.106   6.453  1.0869 -1.3974  0.1995
 1828SOL    HW2 6170   2.567   5.028   6.559  0.1000  0.4853  0.9284
 1829SOL     OW 6171   7.288   0.713   0.705  0.1125  0.0330  0.6788
 1829SOL    HW1 6172   7.367   0.737   0.754 -0.1563 -1.0223  1.6917
 1829SOL    HW2 6173   7.288   0.771   0.629  0.6622  1.6094  1.8241
 1830SOL     OW 6174   2.794   5.536   3.023  0.2763 -0.1811 -0.0040
 1830SOL    HW1 6175   2.857   5.489   2.969  0.0945 -0.0082 -0.3715
 1830SOL    HW2 6176   2.788   5.485   3.104  0.6336 -0.3801 -0.1033
 1831SOL     OW 6177   1.329   1.988   1.067 -0.0142 -0.3782  0.3984
 1831SOL    HW1 6178   1.361   2.076   1.046 -0.4051 -0.2801  0.2042
 1831SOL    HW2 6179   1.234   1.996   1.063 -0.1698 -0.2042  2.6819
 1832SOL     OW 6180   1.816   0.810   7.261 -0.6146 -0.3953  0.3333
 1832SOL    HW1 6181   1.832   0.744   7.193  1.8903  0.5906 -0.1321
 1832SOL    HW2 6182   1.820   0.760   7.343 -3.2871 -1.5267 -0.1293
 1833SOL     OW 6183   7.431   5.312   1.218 -0.1678 -0.4429 -0.5711
 1833SOL    HW1 6184   7.472   5.352   1.142  2.7205  0.6613  1.3849
 1833SOL    HW2 6185   7.369   5.378   1.249 -1.2140 -0.8216 -1.7837
 1834SOL     OW 6186   2.227   7.210   3.695  0.4838  0.1577  0.2830
 1834SOL    HW1 6187   2.179   7.276   3.746  0.1089  0.5161 -0.5148
 1834SOL    HW2 6188   2.283   7.166   3.759  1.3026  1.7603  0.7189
 1835SOL     OW 6189   5.417   0.000   6.971 -0.1624  0.0490  0.0029
 1835SOL    HW1 6190   5.448  -0.090   6.975 -0.3511 -0.1030 -1.4529
 1835SOL    HW2 6191   5.335  -0.000   7.021 -1.4486 -1.1740 -1.9869
 1836SOL     OW 6192   0.389   5.866   0.780 -0.3210 -0.1959 -0.2549
 1836SOL    HW1 6193   0.442   5.819   0.844  0.1654 -0.2948 -0.7309
 1836SOL    HW2 6194   0.451   5.918   0.730 -0.8362  0.8826  0.1847
 1837SOL     OW 6195   2.942   2.154   0.566 -0.8588 -0.1707 -0.0171
 1837SOL    HW1 6196   2.990   2.106   0.498  0.6150  0.6643  0.3737
 1837SOL    HW2 6197   3.001   2.226   0.589 -1.4119 -0.3103  1.9858
 1838SOL     OW 6198   4.232   5.457   0.407 -0.3085 -0.4254  0.3969
 1838SOL    HW1 6199   4.268   5.418   0.487  1.0727  0.3209  0.1631
 1838SOL    HW2 6200   4.301   5.445   0.341 -0.2879  1.3948  0.0438
 1839SOL     OW 6201   4.074   2.171   1.800  0.2413  0.0282 -0.4516
 1839SOL    HW1 6202   4.129   2.121   1.739  0.2908 -1.0917  0.4767
 1839SOL    HW2 6203   4.000   2.113   1.817 -0.0907  0.6004  0.0709
 1840SOL     OW 6204   4.896   1.234   2.097  0.1126 -0.2268 -0.0677
 1840SOL    HW1 6205   4.839   1.192   2.033 -0.2424  0.8189 -0.4691
 1840SOL    HW2 6206   4.838   1.261   2.168  0.4072 -0.8191  0.4043
 1841SOL     OW 6207   7.654   0.112   5.619  0.7452 -1.0364 -0.1524
 1841SOL    HW1 6208   7.741   0.085   5.592  0.4836 -0.8722 -1.2012
 1841SOL    HW2 6209   7.653   0.207   5.609  0.9411 -0.8472  1.3820
 1842SOL     OW 6210   7.759   6.311   7.395  0.0670  0.3877  0.5585
 1842SOL    HW1 6211   7.667   6.334   7.383  0.3063  0.7325 -0.8723
 1842SOL    HW2 6212   7.794   6.378   7.454 -0.1696  1.3859 -0.4028
 1843SOL     OW 6213   3.135   3.092   3.992  0.2270 -0.0690  0.3149
 1843SOL    HW1 6214   3.096   3.170   4.032 -0.3716  0.7444 -1.7194
 1843SOL    HW2 6215   3.230   3.106   3.999  0.1343  0.1752  1.1794
 1844SOL     OW 6216   6.243   5.952   3.413 -0.4555  0.6526 -0.1733
 1844SOL    HW1 6217   6.260   6.038   3.452  1.0667  1.4905 -2.4714
 1844SOL    HW2 6218   6.310   5.895   3.451 -0.0080  1.0574 -0.3498
 1845SOL     OW 6219   4.498   1.593   5.283 -0.0579  0.1318  0.0385
 1845SOL    HW1 6220   4.537   1.643   5.212 -0.3800 -1.0936 -1.0383
 1845SOL    HW2 6221   4.542   1.625   5.362  0.8244  1.0130 -0.7853
 1846SOL     OW 6222   4.065   2.325   0.225  0.6774  0.4584 -0.1069
 1846SOL    HW1 6223   4.030   2.314   0.313  0.4679 -0.7267 -0.3097
 1846SOL    HW2 6224   4.112   2.243   0.208  0.5332  0.5797 -1.1688
 1847SOL     OW 6225   0.635   3.278   7.167 -0.0998 -0.2153  0.2498
 1847SOL    HW1 6226   0.575   3.347   7.195  1.3248  0.7761  0.9491
 1847SOL    HW2 6227   0.599   3.198   7.204 -0.5397  0.4877  1.3881
 1848SOL     OW 6228   1.685   2.044   3.116  0.6961 -0.3002  0.4029
 1848SOL    HW1 6229   1.767   1.998   3.131  0.6289 -1.4481 -2.2698
 1848SOL    HW2 6230   1.705   2.110   3.050 -0.8999 -2.1430 -2.0879
 1849SOL     OW 6231   4.361   2.713   7.420 -0.0646  0.1715 -0.1654
 1849SOL    HW1 6232   4.436   2.769   7.441  0.2358  0.1134 -1.0599
 1849SOL    HW2 6233   4.285   2.767   7.443  0.2389  0.4550  0.1929
 1850SOL     OW 6234   6.643   4.604   6.575  0.4237  0.4118 -0.3678
 1850SOL    HW1 6235   6.600   4.616   6.660 -0.2203 -1.3463 -0.4124
 1850SOL    HW2 6236   6.573   4.618   6.511  0.6126  0.4553 -0.5671
 1851SOL     OW 6237   4.172   2.285   4.691  0.0310 -0.1290 -0.6072
 1851SOL    HW1 6238   4.199   2.347   4.759  0.3242  0.3847 -1.1937
 1851SOL    HW2 6239   4.235   2.297   4.620  0.1370 -1.1562 -0.6978
 1852SOL     OW 6240   0.219   4.225   7.130  0.0126 -0.7043 -0.5689
 1852SOL    HW1 6241   0.124   4.237   7.122  0.0624  1.1759  0.9962
 1852SOL    HW2 6242   0.229   4.136   7.164 -1.2646 -0.5029  0.4170
 1853SOL     OW 6243   2.283   7.511   5.132 -0.0792  0.4436 -0.5880
 1853SOL    HW1 6244   2.376   7.503   5.111 -0.2515  1.4780 -1.8052
 1853SOL    HW2 6245   2.242   7.438   5.086  0.2211 -0.6490  0.7949
 1854SOL     OW 6246   3.090   5.896   0.247  0.4118 -0.1111 -0.4027
 1854SOL    HW1 6247   3.154   5.949   0.200 -0.2223  1.9508  0.8963
 1854SOL    HW2 6248   3.037   5.960   0.295 -1.3795 -1.8599  0.0945
 1855SOL     OW 6249   7.756   6.735   6.407 -0.0458  0.4876  0.5941
 1855SOL    HW1 6250   7.666   6.739   6.439  0.0836  1.1249  0.8917
 1855SOL    HW2 6251   7.777   6.641   6.407 -0.3570  0.4061  1.5192
 1856SOL     OW 6252   4.432   0.618   2.970 -0.1010 -0.4555 -0.2345
 1856SOL    HW1 6253   4.497   0.562   2.927  1.8143 -0.5137  2.5504
 1856SOL    HW2 6254   4.414   0.574   3.053 -2.0108  0.7838  0.0526
 1857SOL     OW 6255   3.136   0.324   1.260 -0.2403  0.2363  0.1834
 1857SOL    HW1 6256   3.087   0.404   1.239 -0.1755  0.2156 -0.0518
 1857SOL    HW2 6257   3.074   0.253   1.244 -0.7674  0.3048  1.7841
 1858SOL     OW 6258   0.698   1.748   1.922 -0.1134  0.2126  0.1023
 1858SOL    HW1 6259   0.623   1.807   1.928 -0.5863 -0.3961  0.1542
 1858SOL    HW2 6260   0.712   1.735   1.828 -0.5124 -0.2370  0.1056
 1859SOL     OW 6261   5.459   2.905   1.417 -0.1636  0.5825  0.1670
 1859SOL    HW1 6262   5.491   2.839   1.355  0.7984  0.3315  0.8903
 1859SOL    HW2 6263   5.458   2.987   1.367  0.5747  0.3842 -0.1937
 1860SOL     OW 6264   6.208   3.937   4.072  0.2647  0.0654  0.5845
 1860SOL    HW1 6265   6.175   3.973   4.154  0.2786 -0.4835  0.8332
 1860SOL    HW2 6266   6.144   3.871   4.046  0.4091  0.0339  0.2995
 1861SOL     OW 6267   4.441   0.752   6.009  0.0105 -0.1555 -0.0748
 1861SOL    HW1 6268   4.395   0.808   5.946  0.4571  1.7708  1.2049
 1861SOL    HW2 6269   4.444   0.805   6.089  0.5403 -2.0270  1.2014
 1862SOL     OW 6270   3.923   2.801   4.724 -0.1932 -0.1416 -0.4994
 1862SOL    HW1 6271   3.877   2.719   4.746 -0.5745  0.1347 -0.2541
 1862SOL    HW2 6272   3.853   2.863   4.704  0.0880  0.1787 -0.4989
 1863SOL     OW 6273   4.623   7.364   2.567 -0.1732  0.5311 -0.3843
 1863SOL    HW1 6274   4.717   7.357   2.555 -0.0645  0.4219  0.4851
 1863SOL    HW2 6275   4.600   7.292   2.626 -0.8271  0.4690 -0.6940
 1864SOL     OW 6276   2.107   6.358   5.728 -0.0060 -0.1702 -0.1794
 1864SOL    HW1 6277   2.145   6.295   5.789  0.8354 -0.2362 -0.7456
 1864SOL    HW2 6278   2.013   6.341   5.730 -0.0040 -0.1517  1.1062
 1865SOL     OW 6279   7.245   3.157   1.581 -0.3093 -0.7819 -0.3556
 1865SOL    HW1 6280   7.186   3.105   1.636 -1.3979 -1.2043 -1.8669
 1865SOL    HW2 6281   7.187   3.205   1.521  0.8622 -1.1857 -1.8753
 1866SOL     OW 6282   3.755   7.689   5.569 -0.0806  0.0848  0.3102
 1866SOL    HW1 6283   3.836   7.710   5.523 -1.2167  0.5562 -1.5826
 1866SOL    HW2 6284   3.765   7.732   5.655  1.7693 -0.1365  0.2464
 1867SOL     OW 6285   1.075   2.552   3.550  0.2955 -0.2054  0.2215
 1867SOL    HW1 6286   1.065   2.480   3.488 -0.6536 -0.7261  0.9465
 1867SOL    HW2 6287   1.027   2.625   3.509  1.4449  0.1045 -0.6149
 1868SOL     OW 6288   4.195   5.786   5.161  0.1106 -0.2941 -0.3250
 1868SOL    HW1 6289   4.249   5.723   5.113 -0.4532 -2.5901  1.8305
 1868SOL    HW2 6290   4.202   5.759   5.252 -1.7852  1.5724  0.4555
 1869SOL     OW 6291   6.175   5.171   1.875 -0.1404  0.0416  0.0733
 1869SOL    HW1 6292   6.147   5.079   1.876  0.2898 -0.0964  1.6260
 1869SOL    HW2 6293   6.257   5.172   1.922 -0.1615  1.2454  0.1138
 1870SOL     OW 6294   1.907   1.120   3.525  0.2871  0.4360  0.3968
 1870SOL    HW1 6295   1.905   1.174   3.603  2.6836 -0.4774  1.1886
 1870SOL    HW2 6296   1.997   1.128   3.492  0.9198 -3.1890  0.7451
 1871SOL     OW 6297   7.479   6.980   3.097 -0.4802 -0.2580 -0.1732
 1871SOL    HW1 6298   7.441   6.971   3.185 -0.7327  1.9613  0.0068
 1871SOL    HW2 6299   7.572   6.959   3.109 -0.8338 -1.7734  0.2061
 1872SOL     OW 6300   1.661   4.676   6.782 -0.0074 -0.8285  0.0471
 1872SOL    HW1 6301   1.596   4.747   6.781 -0.6417 -1.3755  0.7720
 1872SOL    HW2 6302   1.613   4.602   6.819  1.0788 -1.2156  0.7016
 1873SOL     OW 6303   4.690   6.018   1.067  0.2033 -0.7023 -0.0151
 1873SOL    HW1 6304   4.726   5.965   0.996  2.4432  0.4353  0.1821
 1873SOL    HW2 6305   4.726   5.978   1.147 -0.0795 -0.3480  0.2912
 1874SOL     OW 6306   1.095   6.147   1.789 -0.4806  0.8244  0.3809
 1874SOL    HW1 6307   1.013   6.179   1.828 -1.4577 -1.1462  0.0899
 1874SOL    HW2 6308   1.067   6.097   1.712  0.9729  0.0290  0.3300
 1875SOL     OW 6309   5.713   6.138   3.990  0.1968  0.6949 -0.0866
 1875SOL    HW1 6310   5.692   6.064   3.934 -0.3349  0.3849  0.5108
 1875SOL    HW2 6311   5.724   6.212   3.930  1.3474  0.0217 -0.7561
 1876SOL     OW 6312   0.956   1.802   5.588 -0.4013  0.5160  0.0449
 1876SOL    HW1 6313   0.946   1.897   5.582 -0.5134  0.5981  1.1945
 1876SOL    HW2 6314   0.880   1.773   5.639 -0.2323 -0.1573 -0.0698
 1877SOL     OW 6315   1.607   6.569   7.430 -0.0959  0.7660 -0.2138
 1877SOL    HW1 6316   1.550   6.632   7.474 -1.2464 -0.5751  0.2973
 1877SOL    HW2 6317   1.549   6.522   7.370  0.2683 -1.1282  0.8392
 1878SOL     OW 6318   3.910   7.310   1.189 -0.0684 -0.3766 -0.4633
 1878SOL    HW1 6319   3.979   7.275   1.133  0.4418 -1.4315  0.7515
 1878SOL    HW2 6320   3.941   7.398   1.213  1.0758 -0.9690  0.3580
 1879SOL     OW 6321   4.594   7.691   1.457  0.2061  0.8041  0.2047
 1879SOL    HW1 6322   4.598   7.678   1.363 -1.7862  0.1835  0.1780
 1879SOL    HW2 6323   4.592   7.786   1.469 -2.4120  0.9155 -0.5862
 1880SOL     OW 6324   0.853   0.229   0.328  0.4107 -0.1887  0.3946
 1880SOL    HW1 6325   0.823   0.304   0.380 -0.3496  1.0322 -1.6855
 1880SOL    HW2 6326   0.945   0.248   0.310  0.3154  0.0802  0.1788
 1881SOL     OW 6327   0.479   0.949   4.045  0.1297  0.3250 -0.6331
 1881SOL    HW1 6328   0.463   0.854   4.048  0.9786  0.1694 -0.6280
 1881SOL    HW2 6329   0.428   0.984   4.117  1.3910 -0.3929  0.6517
 1882SOL     OW 6330   7.083   5.894   0.990  0.3916  0.0563 -0.3319
 1882SOL    HW1 6331   7.178   5.906   0.997  0.1496  1.0702  1.8288
 1882SOL    HW2 6332   7.051   5.901   1.080 -1.7051 -0.7157 -0.9645
 1883SOL     OW 6333   2.220   5.931   6.754 -0.0529 -0.3445 -0.0124
 1883SOL    HW1 6334   2.170   5.888   6.684 -1.5941 -1.2674  1.5846
 1883SOL    HW2 6335   2.304   5.886   6.754  0.1250 -0.0764 -1.4835
 1884SOL     OW 6336   6.529   6.793   2.877 -0.8666 -0.0151  0.7666
 1884SOL    HW1 6337   6.579   6.811   2.797 -1.8405  0.8069  0.3164
 1884SOL    HW2 6338   6.594   6.790   2.947 -0.2437  1.6963  0.3021
 1885SOL     OW 6339   2.866   2.613   3.205  0.2208  0.0358  0.1028
 1885SOL    HW1 6340   2.961   2.621   3.213  0.3818 -0.3884 -1.1739
 1885SOL    HW2 6341   2.846   2.652   3.120 -0.7833  0.3891  0.4960
 1886SOL     OW 6342   4.657   5.730   1.757 -0.7619  0.1676  0.1267
 1886SOL    HW1 6343   4.569   5.710   1.726  0.2692 -0.7880 -2.5552
 1886SOL    HW2 6344   4.705   5.648   1.748  0.5612  0.8233  0.8792
 1887SOL     OW 6345   4.533   5.090   7.290 -0.4348  0.4346 -0.1975
 1887SOL    HW1 6346   4.530   5.181   7.321 -2.8359  0.0349  0.9576
 1887SOL    HW2 6347   4.574   5.096   7.204 -0.0850  2.5499  0.0538
 1888SOL     OW 6348   4.184   5.493   5.354  0.2335  0.6753 -0.1644
 1888SOL    HW1 6349   4.218   5.578   5.384  0.0360  0.4103  0.8484
 1888SOL    HW2 6350   4.173   5.442   5.434  0.4821 -0.3673 -0.7766
 1889SOL     OW 6351   2.678   6.688   1.552  0.3608  0.2091 -0.1639
 1889SOL    HW1 6352   2.622   6.759   1.520  1.4807  1.5439  0.7457
 1889SOL    HW2 6353   2.646   6.671   1.641 -0.3285 -0.9179 -0.6039
 1890SOL     OW 6354   6.955   4.698   7.621 -0.0998 -0.1576 -0.2094
 1890SOL    HW1 6355   6.909   4.619   7.594  2.7106 -2.9013  2.2384
 1890SOL    HW2 6356   7.006   4.671   7.698  2.8850  3.4067 -0.6402
 1891SOL     OW 6357   3.483   1.842   5.784  0.4672  0.0038 -0.3447
 1891SOL    HW1 6358   3.451   1.909   5.845 -0.2761 -0.2019 -0.5080
 1891SOL    HW2 6359   3.472   1.760   5.832 -1.4848 -0.3294 -1.2593
 1892SOL     OW 6360   6.400   7.539   2.475  0.2282 -0.0603 -0.1182
 1892SOL    HW1 6361   6.496   7.541   2.479  0.2446  1.2388 -0.6951
 1892SOL    HW2 6362   6.377   7.609   2.414 -1.0911 -0.4861 -0.1421
 1893SOL     OW 6363   1.269   0.491   0.589  0.1015  0.2450 -0.8082
 1893SOL    HW1 6364   1.315   0.425   0.642  0.0010  0.1980 -0.7801
 1893SOL    HW2 6365   1.261   0.450   0.503 -1.8547 -0.6534 -0.2416
 1894SOL     OW 6366   0.498   3.073   4.496  0.2014 -0.6164 -0.1962
 1894SOL    HW1 6367   0.476   3.164   4.517  0.7243 -0.5567  0.1133
 1894SOL    HW2 6368   0.449   3.055   4.416 -0.6556 -0.3710  0.2614
 1895SOL     OW 6369   2.495   6.744   5.480  0.2784 -0.2232  0.4801
 1895SOL    HW1 6370   2.588   6.758   5.495  0.3862 -0.1546 -0.2549
 1895SOL    HW2 6371   2.490   6.665   5.426  0.0010  0.6696 -0.8345
 1896SOL     OW 6372   1.406   4.904   2.283 -0.3677  0.2919  0.0174
 1896SOL    HW1 6373   1.441   4.986   2.248 -3.5532  1.9059  0.2939
 1896SOL    HW2 6374   1.424   4.909   2.377 -0.4926  0.6372  0.0245
 1897SOL     OW 6375   1.272   5.802   4.210 -0.2180 -0.3835  0.8270
 1897SOL    HW1 6376   1.242   5.868   4.272  2.4148 -0.6873  2.6324
 1897SOL    HW2 6377   1.368   5.810   4.212  0.0408 -1.8484 -1.6714
 1898SOL     OW 6378   4.324   6.087   1.643 -0.0647 -0.3567 -0.1793
 1898SOL    HW1 6379   4.298   5.995   1.633 -0.2941 -0.4219  0.9226
 1898SOL    HW2 6380   4.277   6.117   1.721 -1.6654  1.3088 -1.6680
 1899SOL     OW 6381   5.075   0.807   7.105 -0.1504 -0.4037 -0.0028
 1899SOL    HW1 6382   5.039   0.867   7.171 -0.3150  0.0533 -0.5031
 1899SOL    HW2 6383   5.150   0.767   7.149 -1.0679 -1.1370  0.9404
 1900SOL     OW 6384   0.869   0.605   5.984 -0.0509  0.7709  0.2777
 1900SOL    HW1 6385   0.960   0.603   6.014 -0.0125 -0.9449  0.1768
 1900SOL    HW2 6386   0.863   0.532   5.922 -1.7244  0.2531  0.9952
 1901SOL     OW 6387   3.805   0.556   4.264  0.0122 -0.0788  0.0144
 1901SOL    HW1 6388   3.800   0.519   4.353 -0.7318 -0.5214 -0.2070
 1901SOL    HW2 6389   3.721   0.599   4.251 -0.2250 -0.7615 -0.7961
 1902SOL     OW 6390   0.836   3.327   2.081  0.0584 -0.1827 -0.0319
 1902SOL    HW1 6391   0.762   3.353   2.027  0.3588 -1.2313 -0.9884
 1902SOL    HW2 6392   0.823   3.374   2.163 -0.6603  1.0952 -0.8362
 1903SOL     OW 6393   3.770   4.411   7.369  0.1892 -0.1740  0.4486
 1903SOL    HW1 6394   3.683   4.412   7.411  0.3919 -0.2489  0.8794
 1903SOL    HW2 6395   3.831   4.411   7.443  0.5891  1.5628  0.1555
 1904SOL     OW 6396   5.938   5.496   4.346  0.1254 -0.0002  0.1628
 1904SOL    HW1 6397   5.968   5.439   4.416 -2.0115 -0.2206  0.9849
 1904SOL    HW2 6398   5.855   5.532   4.378 -0.6723  0.2795 -2.0267
 1905SOL     OW 6399   0.550   4.903   6.178  0.1647 -0.7030 -0.3517
 1905SOL    HW1 6400   0.567   4.810   6.172  3.3906 -0.2758  0.5256
 1905SOL    HW2 6401   0.596   4.941   6.103  0.0819  0.3028  0.0912
 1906SOL     OW 6402   0.443   0.680   6.862 -0.6891  0.0346  0.0635
 1906SOL    HW1 6403   0.465   0.591   6.889 -1.3327 -0.7981 -1.9826
 1906SOL    HW2 6404   0.349   0.678   6.847 -0.6384  0.9396 -0.4730
 1907SOL     OW 6405   5.733   4.181   3.084 -0.0611  0.2810 -0.1780
 1907SOL    HW1 6406   5.824   4.156   3.096  0.2643  0.2375 -2.2893
 1907SOL    HW2 6407   5.732   4.276   3.100  0.2337  0.2007  0.3450
 1908SOL     OW 6408   5.403   4.376   1.561  0.7217  0.2919  0.0353
 1908SOL    HW1 6409   5.491   4.356   1.531  0.0111  0.0611 -2.0885
 1908SOL    HW2 6410   5.374   4.448   1.505 -0.2793  0.6686  0.9974
 1909SOL     OW 6411   0.516   7.410   0.313  0.2628  0.3080  0.3648
 1909SOL    HW1 6412   0.549   7.435   0.227  0.1281 -0.4437  0.0797
 1909SOL    HW2 6413   0.588   7.361   0.353 -0.8244 -2.4513 -0.7630
 1910SOL     OW 6414   2.560   6.255   2.922 -0.1522  0.3943  0.0049
 1910SOL    HW1 6415   2.576   6.299   2.838  1.3710  0.4410  0.2818
 1910SOL    HW2 6416   2.478   6.292   2.954  0.5007  2.1945 -0.3025
 1911SOL     OW 6417   1.754   2.480   0.667 -0.1067 -0.0559 -0.1476
 1911SOL    HW1 6418   1.824   2.534   0.703 -1.1802  1.0700  0.3345
 1911SOL    HW2 6419   1.694   2.465   0.741 -0.2602 -1.2142 -0.4806
 1912SOL     OW 6420   2.999   5.527   1.968 -0.3064 -0.3387 -0.1576
 1912SOL    HW1 6421   2.920   5.496   2.013  0.2692 -0.5056  0.7782
 1912SOL    HW2 6422   3.054   5.450   1.962 -0.1567 -0.1916 -0.6909
 1913SOL     OW 6423   0.561   7.433   1.579  0.0396  0.6962  0.2863
 1913SOL    HW1 6424   0.585   7.432   1.671  1.7763  2.2832 -0.0913
 1913SOL    HW2 6425   0.645   7.432   1.532 -0.7889 -1.4695 -1.3483
 1914SOL     OW 6426   0.122   4.443   2.036 -0.0336  0.0346  0.1511
 1914SOL    HW1 6427   0.091   4.391   2.111 -0.3050 -0.3002 -0.1894
 1914SOL    HW2 6428   0.096   4.392   1.959  1.3785 -0.2751 -0.1566
 1915SOL     OW 6429   6.864   1.710   5.184 -0.2345  0.7601 -0.3817
 1915SOL    HW1 6430   6.919   1.787   5.169 -1.6561  2.1305  0.9415
 1915SOL    HW2 6431   6.793   1.719   5.120 -0.6711  0.8482  0.1059
 1916SOL     OW 6432   2.942   1.951   2.064 -0.4246 -0.2070 -0.3961
 1916SOL    HW1 6433   2.909   1.970   2.152  1.0536  0.3208  0.0638
 1916SOL    HW2 6434   2.999   1.875   2.076  1.3003  1.0172 -0.5311
 1917SOL     OW 6435   4.876   6.545   0.605  0.3805 -0.9447  1.1691
 1917SOL    HW1 6436   4.818   6.592   0.545  0.9593 -2.1450 -0.4121
 1917SOL    HW2 6437   4.851   6.576   0.692 -2.4883 -1.2791  0.5662
 1918SOL     OW 6438   3.350   2.077   1.967 -0.1497 -0.1957  0.3839
 1918SOL    HW1 6439   3.263   2.048   1.996 -0.0547  0.8793  1.8963
 1918SOL    HW2 6440   3.375   2.015   1.899 -3.6295  1.5380 -2.8765
 1919SOL     OW 6441   2.965   7.112   2.586 -0.3782  0.3471 -0.1170
 1919SOL    HW1 6442   2.989   7.116   2.493 -1.2657 -2.3871 -0.5681
 1919SOL    HW2 6443   2.870   7.119   2.587 -0.3521  0.7145  0.6387
 1920SOL     OW 6444   3.681   7.183   1.334  0.0212 -0.5172  0.0944
 1920SOL    HW1 6445   3.763   7.225   1.309  1.2070 -1.7862  1.6102
 1920SOL    HW2 6446   3.678   7.103   1.281 -0.2542 -0.4699  0.0344
 1921SOL     OW 6447   5.886   6.279   0.575 -1.1318  0.5217  0.5830
 1921SOL    HW1 6448   5.906   6.256   0.666  1.2517  2.3117  0.6117
 1921SOL    HW2 6449   5.840   6.203   0.541 -2.2271 -0.1728  3.2897
 1922SOL     OW 6450   3.971   7.465   2.044 -0.1687 -0.1224  0.1141
 1922SOL    HW1 6451   4.028   7.454   2.119  0.8032 -1.1625 -0.7360
 1922SOL    HW2 6452   3.893   7.509   2.079  0.0071 -1.0712  1.8386
 1923SOL     OW 6453   5.316   6.441   1.594 -0.3223 -0.1636  0.0663
 1923SOL    HW1 6454   5.391   6.499   1.602 -2.6615  2.8653  1.9565
 1923SOL    HW2 6455   5.316   6.390   1.675 -0.9233  0.6676  0.5958
 1924SOL     OW 6456   4.189   4.600   2.475 -0.2280  0.0144  0.2292
 1924SOL    HW1 6457   4.141   4.678   2.502  0.1875  0.9464 -1.5488
 1924SOL    HW2 6458   4.168   4.589   2.383  2.7093  0.3500 -0.6063
 1925SOL     OW 6459   0.229   1.681   3.015 -0.3529  0.6385  0.2102
 1925SOL    HW1 6460   0.204   1.731   2.937  0.8193  1.4516  0.3229
 1925SOL    HW2 6461   0.314   1.643   2.993 -1.4175 -1.7918 -0.0572
 1926SOL     OW 6462   2.822   0.656   6.692 -0.7732 -0.4900 -0.3675
 1926SOL    HW1 6463   2.789   0.591   6.755 -0.7225  0.6349  0.8478
 1926SOL    HW2 6464   2.754   0.723   6.689  0.8795  1.3624  1.4111
 1927SOL     OW 6465   0.588   5.966   6.038  0.1993 -0.0647  0.0472
 1927SOL    HW1 6466   0.621   5.878   6.019  1.2146 -0.5243  3.2345
 1927SOL    HW2 6467   0.615   6.019   5.963  1.6332 -2.0021 -0.8991
 1928SOL     OW 6468   3.548   3.123   4.813 -0.2889 -0.1257 -0.4894
 1928SOL    HW1 6469   3.569   3.207   4.773 -0.5690  0.6298  0.8788
 1928SOL    HW2 6470   3.538   3.143   4.906  1.4069 -1.9819  0.1694
 1929SOL     OW 6471   4.472   0.567   2.516 -0.0688 -0.4480 -0.1333
 1929SOL    HW1 6472   4.474   0.655   2.553 -0.7056 -0.7947  0.7474
 1929SOL    HW2 6473   4.559   0.555   2.477 -0.4138  1.0781 -1.4868
 1930SOL     OW 6474   0.174   7.547   6.111  0.3291 -0.3689  0.4773
 1930SOL    HW1 6475   0.239   7.558   6.041 -1.6665 -1.2663 -1.6663
 1930SOL    HW2 6476   0.133   7.463   6.092 -1.7899  0.3842  1.4126
 1931SOL     OW 6477   5.680   3.130   1.083 -0.3926  0.2384 -0.4413
 1931SOL    HW1 6478   5.603   3.074   1.078 -0.0021 -0.9572  3.2977
 1931SOL    HW2 6479   5.654   3.202   1.141  0.8055  0.6886 -0.4285
 1932SOL     OW 6480   4.907   5.006   2.804  1.0658  0.3826  0.3154
 1932SOL    HW1 6481   4.875   4.928   2.851  0.3199  1.6187  1.9415
 1932SOL    HW2 6482   4.901   4.981   2.711 -2.2487 -0.4255  0.5962
 1933SOL     OW 6483   7.126   6.215   4.469 -0.6698 -0.2257  0.1353
 1933SOL    HW1 6484   7.086   6.131   4.488  0.0397 -0.9810 -1.5307
 1933SOL    HW2 6485   7.074   6.251   4.397 -0.3402  0.2764  0.1429
 1934SOL     OW 6486   5.423   1.339   4.167 -0.4356  0.1522  0.2613
 1934SOL    HW1 6487   5.358   1.269   4.161 -0.6318  0.3813 -0.3877
 1934SOL    HW2 6488   5.380   1.407   4.218 -1.9717  1.6247 -2.7299
 1935SOL     OW 6489   1.357   2.897   4.759  0.3206 -0.2993 -0.0751
 1935SOL    HW1 6490   1.383   2.875   4.849 -2.9513 -2.0800  0.6153
 1935SOL    HW2 6491   1.378   2.819   4.708  1.0418  0.2358 -0.6071
 1936SOL     OW 6492   2.307   1.562   6.910  0.1123  0.6984 -0.0885
 1936SOL    HW1 6493   2.361   1.640   6.906  0.3278  0.5186 -0.8809
 1936SOL    HW2 6494   2.367   1.492   6.937  0.2603  0.5137 -0.8915
 1937SOL     OW 6495   1.204   2.331   7.224 -0.6006 -0.1922  0.4039
 1937SOL    HW1 6496   1.226   2.375   7.306  0.0815  0.2941 -0.0339
 1937SOL    HW2 6497   1.123   2.375   7.195 -0.2798  0.3342  0.2969
 1938SOL     OW 6498   0.030   7.515   7.538  0.6664  0.1826 -0.7172
 1938SOL    HW1 6499  -0.027   7.499   7.463  0.3024 -0.2391 -0.3536
 1938SOL    HW2 6500   0.021   7.609   7.554 -0.7303 -0.0460 -0.0355
 1939SOL     OW 6501   1.578   7.087   2.262 -0.1425 -0.3480 -0.0972
 1939SOL    HW1 6502   1.530   7.131   2.191 -1.8357 -0.7798  0.7282
 1939SOL    HW2 6503   1.556   7.137   2.340 -1.0319 -1.8065  0.6347
 1940SOL     OW 6504   7.150   4.584   1.554 -0.6301  0.5391 -0.3490
 1940SOL    HW1 6505   7.157   4.640   1.631  0.1849 -0.3891  0.2660
 1940SOL    HW2 6506   7.238   4.583   1.517 -1.0481  1.1111 -1.4061
 1941SOL     OW 6507   2.647   2.197   4.061  0.1843 -0.1369  0.1506
 1941SOL    HW1 6508   2.634   2.283   4.102  0.4461  1.0379 -2.0369
 1941SOL    HW2 6509   2.648   2.135   4.134  0.4828  1.7648  1.8588
 1942SOL     OW 6510   6.509   0.524   5.576  0.1146  0.5228  0.0413
 1942SOL    HW1 6511   6.536   0.614   5.592  1.4803  0.0451  0.5461
 1942SOL    HW2 6512   6.590   0.473   5.583 -1.0998 -1.2438  3.3995
 1943SOL     OW 6513   5.115   5.406   0.341  0.0894 -0.1336 -0.1856
 1943SOL    HW1 6514   5.042   5.365   0.388 -0.8129  0.4887 -1.0055
 1943SOL    HW2 6515   5.188   5.345   0.352 -0.7189 -1.0646  0.1516
 1944SOL     OW 6516   4.128   3.625   3.487  0.1911  0.3650  0.3853
 1944SOL    HW1 6517   4.078   3.688   3.435  2.4039  1.8686 -0.0091
 1944SOL    HW2 6518   4.061   3.568   3.526 -1.8084  2.2588 -0.1277
 1945SOL     OW 6519   6.326   0.655   2.352 -0.1241  0.6770 -0.6094
 1945SOL    HW1 6520   6.341   0.561   2.360 -0.7494  0.5147 -1.1867
 1945SOL    HW2 6521   6.393   0.696   2.407 -0.2242 -0.1248  0.1258
 1946SOL     OW 6522   2.786   5.665   4.912  0.2654 -0.1730 -0.5526
 1946SOL    HW1 6523   2.824   5.707   4.989  0.2741 -1.6475  0.2706
 1946SOL    HW2 6524   2.780   5.736   4.847 -0.4706  1.2972  1.0309
 1947SOL     OW 6525   1.974   4.935   6.340 -0.5495 -0.3176 -0.3433
 1947SOL    HW1 6526   1.968   4.943   6.436 -0.0469  0.0802 -0.3438
 1947SOL    HW2 6527   1.925   4.855   6.320 -0.9990 -0.1915  0.2067
 1948SOL     OW 6528   7.152   6.096   7.686 -0.5144 -0.2326 -0.2677
 1948SOL    HW1 6529   7.096   6.174   7.681 -0.0426  0.3255  2.1822
 1948SOL    HW2 6530   7.152   6.071   7.778 -1.0484 -3.4889 -1.0154
 1949SOL     OW 6531   7.731   6.616   3.351 -0.4645 -0.4092  0.0307
 1949SOL    HW1 6532   7.758   6.679   3.418  1.6897 -2.0278  0.7873
 1949SOL    HW2 6533   7.647   6.649   3.320  0.2371  2.4363  0.8665
 1950SOL     OW 6534   5.305   2.849   5.319  0.2056  0.2517  0.1714
 1950SOL    HW1 6535   5.359   2.811   5.251 -0.4479 -0.0689 -0.1817
 1950SOL    HW2 6536   5.263   2.924   5.277  0.2461  0.3966  0.3895
 1951SOL     OW 6537   1.016   3.544   5.367 -0.3561 -0.1475 -0.0731
 1951SOL    HW1 6538   1.015   3.636   5.342 -1.2006  0.1064  0.8441
 1951SOL    HW2 6539   0.926   3.525   5.393 -0.2774 -1.3319 -0.5631
 1952SOL     OW 6540   5.443   6.365   4.588  0.5664 -0.1454  0.0300
 1952SOL    HW1 6541   5.449   6.321   4.504 -2.1103 -0.2321 -0.2109
 1952SOL    HW2 6542   5.405   6.299   4.647 -0.1695  0.7269  0.5641
 1953SOL     OW 6543   5.132   6.414   3.927 -0.2299  0.2836  0.4160
 1953SOL    HW1 6544   5.125   6.370   4.012 -3.2014  0.0302  0.1366
 1953SOL    HW2 6545   5.052   6.466   3.920  0.4194  1.0980 -1.8244
 1954SOL     OW 6546   1.877   7.306   5.288 -0.6479 -0.5629  0.7000
 1954SOL    HW1 6547   1.859   7.235   5.350 -1.3283 -1.4306 -0.4484
 1954SOL    HW2 6548   1.898   7.381   5.343  0.6952 -1.7900  1.9637
 1955SOL     OW 6549   3.910   1.716   2.788 -0.1812 -0.3816  0.2293
 1955SOL    HW1 6550   3.874   1.648   2.732  1.3581 -0.1119 -1.1595
 1955SOL    HW2 6551   3.974   1.671   2.843 -0.2456 -0.3079  0.3648
 1956SOL     OW 6552   1.150   3.158   4.246  0.0359  0.0908 -0.2571
 1956SOL    HW1 6553   1.215   3.225   4.269  0.6895 -0.4410 -0.5371
 1956SOL    HW2 6554   1.192   3.106   4.178 -1.3069  0.7380 -1.6442
 1957SOL     OW 6555   2.267   6.817   2.436 -0.2364 -0.1180  0.4173
 1957SOL    HW1 6556   2.171   6.811   2.438 -0.3186 -0.1230 -1.4753
 1957SOL    HW2 6557   2.297   6.728   2.455 -0.6392 -0.2559  0.4147
 1958SOL     OW 6558   0.027   0.188   5.993  0.4949 -0.3009  0.2800
 1958SOL    HW1 6559  -0.006   0.106   6.030  0.7280 -0.2508  0.6062
 1958SOL    HW2 6560   0.121   0.174   5.982  0.0006 -1.7866 -4.0861
 1959SOL     OW 6561   6.888   3.083   3.554  0.1915  0.2054  0.3434
 1959SOL    HW1 6562   6.846   3.078   3.641 -2.1194  0.0654 -0.6971
 1959SOL    HW2 6563   6.821   3.051   3.494  1.5766  0.7423 -1.5643
 1960SOL     OW 6564   1.526   2.494   3.307  0.0574 -0.2713 -0.6797
 1960SOL    HW1 6565   1.453   2.507   3.247  0.2339  0.9955 -0.6560
 1960SOL    HW2 6566   1.592   2.447   3.256 -1.2753 -2.7134 -0.2812
 1961SOL     OW 6567   4.297   2.744   4.751  1.1401  0.5134 -0.2892
 1961SOL    HW1 6568   4.221   2.764   4.696  1.4677  2.6207 -0.0461
 1961SOL    HW2 6569   4.372   2.754   4.693  1.2986 -1.8697 -0.6108
 1962SOL     OW 6570   5.309   4.884   0.330  0.0952 -0.7707  0.2814
 1962SOL    HW1 6571   5.303   4.841   0.244 -0.0049 -1.4092  0.6005
 1962SOL    HW2 6572   5.253   4.961   0.321  0.6285 -0.4513 -0.4422
 1963SOL     OW 6573   3.317   3.546   2.168 -0.3709 -0.0212 -0.2952
 1963SOL    HW1 6574   3.410   3.562   2.185 -0.2808 -0.8892  0.0712
 1963SOL    HW2 6575   3.271   3.591   2.238 -0.2316  0.3416 -0.4312
 1964SOL     OW 6576   5.628   6.029   2.732  0.6712 -0.3261  0.2910
 1964SOL    HW1 6577   5.534   6.039   2.745  0.8969  1.6563  0.8165
 1964SOL    HW2 6578   5.637   5.973   2.655 -0.9030 -1.4526  0.8917
 1965SOL     OW 6579   7.005   0.012   3.092  0.4379  0.2442  0.4669
 1965SOL    HW1 6580   7.047  -0.066   3.056  1.4398  1.1136 -0.3316
 1965SOL    HW2 6581   7.046   0.023   3.178  1.0575  0.4538  0.1539
 1966SOL     OW 6582   2.279   0.790   4.115 -0.2541  0.2140  0.0233
 1966SOL    HW1 6583   2.324   0.706   4.122 -1.1708 -0.3402 -0.4490
 1966SOL    HW2 6584   2.328   0.849   4.171  1.2243 -0.2876 -0.6995
 1967SOL     OW 6585   1.226   3.569   5.593 -0.4903  0.0827 -0.0315
 1967SOL    HW1 6586   1.287   3.642   5.582  0.4352 -0.6909 -0.1763
 1967SOL    HW2 6587   1.178   3.565   5.511  0.6470 -0.5196 -0.6913
 1968SOL     OW 6588   1.028   6.740   4.763 -0.3672 -0.2481  0.7110
 1968SOL    HW1 6589   1.097   6.741   4.828 -1.6525 -1.8451  2.1999
 1968SOL    HW2 6590   1.025   6.649   4.732 -0.3844  0.2774 -0.9324
 1969SOL     OW 6591   6.818   0.857   1.656 -0.2831  0.5916  0.6143
 1969SOL    HW1 6592   6.789   0.916   1.586 -0.5508 -0.8449 -0.5282
 1969SOL    HW2 6593   6.905   0.829   1.629 -1.7183 -2.7883 -1.1542
 1970SOL     OW 6594   1.688   1.345   2.218 -0.6406 -0.7919 -0.7971
 1970SOL    HW1 6595   1.709   1.312   2.131  1.0593  0.9896 -1.1325
 1970SOL    HW2 6596   1.735   1.287   2.279  0.0583 -0.6732 -1.2136
 1971SOL     OW 6597   7.643   4.595   3.851  0.4247 -0.3145  0.2706
 1971SOL    HW1 6598   7.589   4.531   3.897 -0.2287 -0.9892 -1.3764
 1971SOL    HW2 6599   7.733   4.575   3.878  0.0553 -0.5512  1.3787
 1972SOL     OW 6600   2.174   5.688   4.055  0.0678 -0.3648  0.3861
 1972SOL    HW1 6601   2.250   5.630   4.060  3.3710  3.3562 -0.8784
 1972SOL    HW2 6602   2.132   5.667   3.972  0.8963 -1.2525  0.1770
 1973SOL     OW 6603   1.044   4.116   2.970 -0.4343  0.1288 -0.4420
 1973SOL    HW1 6604   1.078   4.110   3.059 -0.7462  0.5232 -0.2932
 1973SOL    HW2 6605   1.031   4.210   2.956 -0.5750  0.0535 -0.8310
 1974SOL     OW 6606   2.915   1.502   0.486 -0.0090  0.0262 -0.1324
 1974SOL    HW1 6607   2.824   1.530   0.485 -0.1761 -0.4709  0.5882
 1974SOL    HW2 6608   2.939   1.498   0.578  0.8001  0.3189 -0.3140
 1975SOL     OW 6609   2.174   7.105   2.392 -0.3955  0.2669 -0.3640
 1975SOL    HW1 6610   2.218   7.032   2.347  1.3598  0.0240  1.6007
 1975SOL    HW2 6611   2.185   7.086   2.485 -2.7291  1.4354  0.2130
 1976SOL     OW 6612   4.825   7.642   2.168 -0.2850  0.0556  0.0073
 1976SOL    HW1 6613   4.751   7.661   2.111 -0.7281 -1.2588  0.1018
 1976SOL    HW2 6614   4.846   7.550   2.150  2.0361  0.6800 -0.8212
 1977SOL     OW 6615   1.349   7.321   1.867  0.2165  0.4054 -0.5888
 1977SOL    HW1 6616   1.383   7.319   1.778 -0.7174  1.2546 -0.9788
 1977SOL    HW2 6617   1.311   7.234   1.879  0.8579  0.0864 -0.8011
 1978SOL     OW 6618   3.791   3.391   3.075  0.0693  0.0293 -0.0284
 1978SOL    HW1 6619   3.715   3.373   3.020  0.3431 -1.0131 -0.0922
 1978SOL    HW2 6620   3.861   3.414   3.014  0.1679 -0.3625 -0.0630
 1979SOL     OW 6621   3.858   2.406   2.421  0.3002 -0.0413 -0.4027
 1979SOL    HW1 6622   3.881   2.422   2.512  1.2282 -0.6997 -0.5099
 1979SOL    HW2 6623   3.844   2.493   2.384 -0.7958  0.2034  0.5245
 1980SOL     OW 6624   7.714   4.058   0.313 -0.4052 -0.2498 -0.4815
 1980SOL    HW1 6625   7.631   4.095   0.284 -0.0618 -0.1929 -1.4276
 1980SOL    HW2 6626   7.730   3.984   0.254 -0.2260 -0.8390  0.2785
 1981SOL     OW 6627   7.151   5.979   2.449  0.0734  0.2058 -1.1695
 1981SOL    HW1 6628   7.101   6.009   2.525 -0.9016 -1.0082 -1.3003
 1981SOL    HW2 6629   7.212   5.914   2.485 -0.5466 -0.5386 -1.4351
 1982SOL     OW 6630   1.403   0.351   5.575  0.0898  0.7348 -0.6240
 1982SOL    HW1 6631   1.395   0.302   5.657  0.8097  1.2046 -0.2527
 1982SOL    HW2 6632   1.313   0.372   5.550 -0.1705  0.0183 -0.3080
 1983SOL     OW 6633   5.696   1.644   2.212  0.5465 -0.0371 -0.2370
 1983SOL    HW1 6634   5.684   1.628   2.119  0.7722 -0.9871 -0.1152
 1983SOL    HW2 6635   5.788   1.622   2.228  0.6306  0.5610  0.1198
 1984SOL     OW 6636   0.216   4.009   7.293 -0.7219  0.0734 -0.0515
 1984SOL    HW1 6637   0.299   4.005   7.341 -1.3735  0.3198  1.1243
 1984SOL    HW2 6638   0.214   3.929   7.242  0.1851  0.0077 -0.0104
 1985SOL     OW 6639   4.102   3.893   2.556  0.1865  0.1486 -0.5444
 1985SOL    HW1 6640   4.085   3.861   2.468  0.5253 -2.2945  0.2001
 1985SOL    HW2 6641   4.186   3.853   2.580  0.1863  0.9106  0.8272
 1986SOL     OW 6642   3.450   3.502   4.825 -0.0793 -0.0650  0.8821
 1986SOL    HW1 6643   3.417   3.452   4.900 -0.5038  0.0385  0.7657
 1986SOL    HW2 6644   3.514   3.444   4.784  1.0905  0.3482  2.0432
 1987SOL     OW 6645   2.446   5.028   5.956 -0.3492 -0.3816 -0.7739
 1987SOL    HW1 6646   2.396   5.096   6.001 -0.4076  0.7380 -2.4232
 1987SOL    HW2 6647   2.515   5.004   6.019 -1.7862 -0.5884  0.7827
 1988SOL     OW 6648   6.586   1.413   2.258  0.4066  0.3457  0.4114
 1988SOL    HW1 6649   6.576   1.324   2.293 -0.3561 -0.2316 -1.1716
 1988SOL    HW2 6650   6.553   1.470   2.328 -0.1175 -0.6869  1.0400
 1989SOL     OW 6651   2.339   5.256   4.070 -0.0131  0.2113  0.8393
 1989SOL    HW1 6652   2.353   5.335   4.123 -1.6954  0.1226  1.5044
 1989SOL    HW2 6653   2.335   5.289   3.980 -1.1147  0.9977  1.1384
 1990SOL     OW 6654   0.869   5.275   2.536 -0.1355  0.1471  0.4788
 1990SOL    HW1 6655   0.774   5.283   2.530  0.0020  1.1147 -1.6130
 1990SOL    HW2 6656   0.885   5.184   2.560 -1.5841 -0.3654 -0.3992
 1991SOL     OW 6657   5.067   1.761   0.045  0.1295  0.2749 -0.0849
 1991SOL    HW1 6658   5.152   1.722   0.026 -0.8379 -1.4541 -1.1801
 1991SOL    HW2 6659   5.049   1.737   0.136  0.0740 -0.8691 -0.3848
 1992SOL     OW 6660   0.457   4.281   1.687  0.2587  0.0204  0.3300
 1992SOL    HW1 6661   0.546   4.246   1.684  0.3903  0.1213  2.2383
 1992SOL    HW2 6662   0.445   4.322   1.601  1.9569 -0.2075 -0.0522
 1993SOL     OW 6663   6.077   4.264   0.220 -0.1228 -0.2455 -0.2513
 1993SOL    HW1 6664   5.998   4.316   0.206 -0.5731 -0.3322  1.6576
 1993SOL    HW2 6665   6.050   4.196   0.281  1.3809 -0.3769  0.3125
 1994SOL     OW 6666   2.303   1.882   6.512  0.3131  0.2111  0.4764
 1994SOL    HW1 6667   2.320   1.974   6.531 -2.8659  0.7473  1.3345
 1994SOL    HW2 6668   2.307   1.876   6.416  3.3331  0.4897  0.4815
 1995SOL     OW 6669   4.716   2.990   5.427  0.0304 -0.2060 -0.1676
 1995SOL    HW1 6670   4.723   3.066   5.370  0.4371 -0.8026 -0.9312
 1995SOL    HW2 6671   4.688   3.026   5.511 -2.5994  0.4757 -1.2284
 1996SOL     OW 6672   3.181   6.168   4.086  0.0889 -0.1599 -0.8784
 1996SOL    HW1 6673   3.116   6.238   4.096  2.3500  2.2847 -1.9814
 1996SOL    HW2 6674   3.131   6.094   4.051 -2.4907  0.7325  0.6426
 1997SOL     OW 6675   0.139   5.206   1.791 -0.2309 -0.2591 -0.2279
 1997SOL    HW1 6676   0.046   5.227   1.794 -0.2486 -0.4155  1.2932
 1997SOL    HW2 6677   0.183   5.290   1.803 -0.2286 -0.4356  1.1442
 1998SOL     OW 6678   5.745   6.936   0.425  0.4588  0.6813 -0.4256
 1998SOL    HW1 6679   5.800   6.881   0.481  0.0211 -0.8087 -1.4080
 1998SOL    HW2 6680   5.677   6.970   0.484  0.0764 -0.7601  0.0132
 1999SOL     OW 6681   2.213   6.080   5.163  0.6991  0.8394  0.2290
 1999SOL    HW1 6682   2.299   6.055   5.129 -0.3609 -2.9072 -0.1755
 1999SOL    HW2 6683   2.169   6.121   5.089  0.7732 -0.9858 -0.8693
 2000SOL     OW 6684   0.403   3.086   6.749  0.2664  0.4305  0.2779
 2000SOL    HW1 6685   0.357   3.151   6.802  0.9184  1.3702 -0.2897
 2000SOL    HW2 6686   0.494   3.093   6.777  0.5780  0.7795 -0.8091
 2001SOL     OW 6687   3.896   1.937   5.714 -0.0640  0.3468  0.3055
 2001SOL    HW1 6688   3.902   2.029   5.686 -2.7444 -0.0598 -2.1321
 2001SOL    HW2 6689   3.823   1.935   5.776  0.1754 -0.0973  0.5796
 2002SOL     OW 6690   3.341   6.915   3.682 -0.2990 -0.2721 -0.1412
 2002SOL    HW1 6691   3.374   6.908   3.771  0.1096  0.3557 -0.2374
 2002SOL    HW2 6692   3.395   6.982   3.641 -0.0554 -0.9939 -1.0573
 2003SOL     OW 6693   5.108   4.742   0.431 -0.6123  0.3829  0.2165
 2003SOL    HW1 6694   5.047   4.799   0.384 -0.6913  0.2226  0.1262
 2003SOL    HW2 6695   5.194   4.783   0.416 -0.4958 -0.2416 -0.9673
 2004SOL     OW 6696   5.931   2.303   3.030  0.3476  0.1163  0.1763
 2004SOL    HW1 6697   5.917   2.391   2.994  1.7946  0.3171  0.0093
 2004SOL    HW2 6698   5.910   2.312   3.123 -1.3094  0.1480 -0.1737
 2005SOL     OW 6699   3.796   3.406   7.392 -0.0319 -0.5982 -0.0561
 2005SOL    HW1 6700   3.853   3.342   7.349  2.1007  1.1515  0.0122
 2005SOL    HW2 6701   3.774   3.469   7.324  0.4672  0.2672  0.5563
 2006SOL     OW 6702   1.862   6.490   7.575  0.0966  0.1849  0.5208
 2006SOL    HW1 6703   1.820   6.463   7.493 -1.0580 -0.8274  1.4003
 2006SOL    HW2 6704   1.893   6.579   7.558  0.5081 -0.2583 -1.2273
 2007SOL     OW 6705   0.541   7.172   0.824 -0.0596  0.1977  0.3234
 2007SOL    HW1 6706   0.494   7.174   0.907 -2.8578  0.2083 -1.1340
 2007SOL    HW2 6707   0.569   7.081   0.814  0.4588  0.2339  1.3312
 2008SOL     OW 6708   1.202   7.020   1.168  0.0690 -0.2245 -0.3060
 2008SOL    HW1 6709   1.107   7.019   1.156  0.0910  0.2818 -0.5793
 2008SOL    HW2 6710   1.236   6.976   1.090  0.0018 -2.0574  0.6508
 2009SOL     OW 6711   2.306   0.629   3.639  0.0252 -0.2180 -0.5369
 2009SOL    HW1 6712   2.241   0.674   3.693 -0.0009  0.4610 -1.1230
 2009SOL    HW2 6713   2.388   0.677   3.654  0.6414 -1.6267  0.9173
 2010SOL     OW 6714   0.054   5.101   5.195 -0.3702 -0.3660  0.3004
 2010SOL    HW1 6715   0.104   5.067   5.120  0.2659 -0.2845  0.6742
 2010SOL    HW2 6716   0.056   5.029   5.259  0.6283  0.2026  0.9322
 2011SOL     OW 6717   5.538   0.505   1.946  0.4964  0.1101 -0.5006
 2011SOL    HW1 6718   5.597   0.457   2.004 -1.9264 -0.4360  1.7239
 2011SOL    HW2 6719   5.532   0.450   1.868  2.0845 -0.3183 -0.3603
 2012SOL     OW 6720   2.235   4.451   5.944 -0.0311  0.1777 -1.2050
 2012SOL    HW1 6721   2.298   4.414   6.006  0.0986  4.0820  1.3984
 2012SOL    HW2 6722   2.150   4.425   5.978  0.0940  0.7314 -0.4299
 2013SOL     OW 6723   2.063   0.612   3.100  0.1016 -0.1095  0.0188
 2013SOL    HW1 6724   1.970   0.593   3.089  0.0125  0.4373 -0.2398
 2013SOL    HW2 6725   2.077   0.609   3.195 -1.3273  4.6194  0.6865
 2014SOL     OW 6726   0.331   5.572   3.981  0.7413  0.3079 -0.3043
 2014SOL    HW1 6727   0.424   5.561   3.960  1.0216 -0.7183  1.3313
 2014SOL    HW2 6728   0.331   5.609   4.069 -0.3930 -1.6429  0.5580
 2015SOL     OW 6729   5.075   0.474   4.254  0.2439 -0.3586 -0.4906
 2015SOL    HW1 6730   5.133   0.408   4.290  0.7262 -0.3843 -1.2848
 2015SOL    HW2 6731   4.987   0.438   4.265  0.4973 -1.1103 -0.8760
 2016SOL     OW 6732   3.006   1.823   0.070 -0.1903  0.2682  0.1113
 2016SOL    HW1 6733   3.073   1.820   0.002 -0.4678 -1.3432 -0.1421
 2016SOL    HW2 6734   3.041   1.767   0.140  0.3757  2.3753  1.6076
 2017SOL     OW 6735   6.436   3.135   6.994  0.0224  0.1701  0.3566
 2017SOL    HW1 6736   6.434   3.050   6.950  1.8069  0.1703  0.1945
 2017SOL    HW2 6737   6.398   3.196   6.930  0.3591 -0.2220 -0.2227
 2018SOL     OW 6738   4.633   6.731   3.255 -0.2075  0.1626  0.3130
 2018SOL    HW1 6739   4.586   6.768   3.180  1.5174 -1.3740 -1.6450
 2018SOL    HW2 6740   4.725   6.734   3.230  0.2972 -1.9003  1.6364
 2019SOL     OW 6741   0.758   5.005   4.161 -0.2691  0.7643  0.1679
 2019SOL    HW1 6742   0.711   5.020   4.243  0.1685  0.7988  0.4145
 2019SOL    HW2 6743   0.763   5.092   4.121  0.7817  1.0055  0.7945
 2020SOL     OW 6744   0.405   2.473   1.406  0.5010  0.4284 -0.0883
 2020SOL    HW1 6745   0.487   2.496   1.449 -0.0558  0.7727  0.7951
 2020SOL    HW2 6746   0.336   2.497   1.468 -0.2523 -0.3711 -0.5852
 2021SOL     OW 6747   5.032   2.360   3.252 -0.2664 -0.0857 -0.2645
 2021SOL    HW1 6748   5.102   2.329   3.310 -0.7247  0.7509  0.7713
 2021SOL    HW2 6749   4.952   2.324   3.290 -0.8603  2.4744  1.1633
 2022SOL     OW 6750   6.572   1.548   2.600  0.4270 -0.2732 -0.4422
 2022SOL    HW1 6751   6.507   1.601   2.553  0.5475  0.2171 -0.0675
 2022SOL    HW2 6752   6.529   1.464   2.615 -2.0215  1.4456  3.9379
 2023SOL     OW 6753   3.558   4.843   4.135 -0.0949  0.2404  0.2588
 2023SOL    HW1 6754   3.623   4.904   4.098  0.3465  1.0215  2.1842
 2023SOL    HW2 6755   3.598   4.757   4.124  1.7921  0.7639  2.2014
 2024SOL     OW 6756   4.152   5.362   5.607 -0.3235 -0.1978  0.4651
 2024SOL    HW1 6757   4.221   5.378   5.670 -0.4080 -0.0453  0.5203
 2024SOL    HW2 6758   4.118   5.275   5.628 -0.4155 -0.1079  0.6909
 2025SOL     OW 6759   0.223   5.207   1.062  0.1654  0.2503 -0.6894
 2025SOL    HW1 6760   0.243   5.165   0.979 -0.0899 -1.0296 -0.1240
 2025SOL    HW2 6761   0.200   5.297   1.039  1.5394  0.3356 -1.8422
 2026SOL     OW 6762   4.802   7.255   4.568  0.3468 -0.3875 -0.3833
 2026SOL    HW1 6763   4.731   7.287   4.625 -0.2525 -0.7595 -0.9052
 2026SOL    HW2 6764   4.880   7.260   4.622 -0.4945 -2.6600  1.2264
 2027SOL     OW 6765   4.907   2.655   5.669 -0.6644 -0.1816  0.2616
 2027SOL    HW1 6766   4.936   2.682   5.582 -1.0170  0.8590  0.4437
 2027SOL    HW2 6767   4.948   2.719   5.728 -1.7881  0.1595  0.6966
 2028SOL     OW 6768   1.503   3.604   3.352 -0.2438  0.5315 -0.7442
 2028SOL    HW1 6769   1.444   3.530   3.364  0.1817  0.1298 -1.0906
 2028SOL    HW2 6770   1.500   3.651   3.436  0.1884 -0.3999 -0.1921
 2029SOL     OW 6771   0.813   7.313   6.568  0.2589  0.0973  0.4615
 2029SOL    HW1 6772   0.847   7.236   6.612  2.2387  0.8783  0.4161
 2029SOL    HW2 6773   0.757   7.355   6.634  1.5947  0.2030  1.5837
 2030SOL     OW 6774   0.216   0.329   6.211 -0.1489  0.3800  0.0946
 2030SOL    HW1 6775   0.253   0.259   6.158  2.0550  0.9176  0.8118
 2030SOL    HW2 6776   0.137   0.290   6.250  1.6155 -2.1501  1.4298
 2031SOL     OW 6777   5.228   3.658   3.429 -0.1485  0.4796  0.3284
 2031SOL    HW1 6778   5.323   3.658   3.439 -0.0458  1.1071 -0.5431
 2031SOL    HW2 6779   5.194   3.662   3.519  0.6632  1.8683  0.5879
 2032SOL     OW 6780   0.071   0.647   1.635 -0.2869 -0.0477 -0.4164
 2032SOL    HW1 6781   0.131   0.625   1.707  0.1514  0.0396 -0.7464
 2032SOL    HW2 6782   0.038   0.562   1.605 -0.9270 -0.0499  0.2611
 2033SOL     OW 6783   6.858   3.543   7.753 -0.1230  0.1292  0.4380
 2033SOL    HW1 6784   6.828   3.620   7.707  1.0894 -1.2809 -3.0311
 2033SOL    HW2 6785   6.922   3.576   7.816  0.1890  1.9494 -0.7708
 2034SOL     OW 6786   3.304   7.184   6.328 -0.0030 -0.3444  0.2960
 2034SOL    HW1 6787   3.219   7.172   6.286  0.5361 -0.9243 -0.6727
 2034SOL    HW2 6788   3.327   7.097   6.360 -0.0020 -0.0853  1.0081
 2035SOL     OW 6789   2.822   6.224   5.821  0.6188  0.4146 -0.0265
 2035SOL    HW1 6790   2.832   6.319   5.829 -2.1987  0.8933 -1.1082
 2035SOL    HW2 6791   2.746   6.212   5.764  1.7955 -2.5297 -1.1900
 2036SOL     OW 6792   0.157   1.303   3.708 -0.2005  0.3445 -0.0683
 2036SOL    HW1 6793   0.158   1.267   3.620 -0.3891  1.4161 -0.5286
 2036SOL    HW2 6794   0.170   1.397   3.696 -1.0924  0.6304  0.9828
 2037SOL     OW 6795   1.066   2.428   1.504  0.1154 -0.5256 -0.0142
 2037SOL    HW1 6796   1.139   2.437   1.565 -0.3628 -1.0205  0.6622
 2037SOL    HW2 6797   1.027   2.343   1.527  0.2484 -0.9866 -1.3827
 2038SOL     OW 6798   7.645   6.150   7.164  0.2857  0.3173 -0.2812
 2038SOL    HW1 6799   7.694   6.203   7.227  1.9368 -0.4493 -0.8784
 2038SOL    HW2 6800   7.585   6.098   7.218 -0.6179  1.9683  0.3917
 2039SOL     OW 6801   6.631   6.169   0.865  0.2172 -0.1914  0.4104
 2039SOL    HW1 6802   6.579   6.121   0.930 -0.6036  0.9120  0.5963
 2039SOL    HW2 6803   6.721   6.140   0.879 -0.2414 -1.6018  0.5739
 2040SOL     OW 6804   2.106   5.801   0.549 -0.5468 -0.0742 -1.1697
 2040SOL    HW1 6805   2.196   5.772   0.534 -0.3944 -1.3450  1.5138
 2040SOL    HW2 6806   2.066   5.803   0.462  1.7165 -0.7418 -2.2880
 2041SOL     OW 6807   2.946   3.348   5.963 -0.3969  0.3381  0.4257
 2041SOL    HW1 6808   2.948   3.273   5.903 -2.1753  0.4252  0.2134
 2041SOL    HW2 6809   2.880   3.325   6.028  0.2883  0.9881  1.3668
 2042SOL     OW 6810   4.211   7.642   5.836 -0.0050 -0.5808  0.6605
 2042SOL    HW1 6811   4.291   7.614   5.791  0.6475  0.0041  1.4249
 2042SOL    HW2 6812   4.166   7.560   5.857  0.0189 -0.8862 -0.4241
 2043SOL     OW 6813   3.470   0.526   1.466 -0.0779 -0.3089  0.6710
 2043SOL    HW1 6814   3.421   0.492   1.540 -1.0992 -1.7281 -0.5991
 2043SOL    HW2 6815   3.403   0.540   1.398  1.2378 -2.8010 -1.2950
 2044SOL     OW 6816   3.558   0.685   6.468  0.0311  0.0227 -0.1778
 2044SOL    HW1 6817   3.500   0.748   6.424  1.0233  0.8536 -0.3283
 2044SOL    HW2 6818   3.566   0.613   6.406 -0.7278 -0.0346 -0.2160
 2045SOL     OW 6819   2.865   4.765   0.793  0.5123  0.6047 -0.4552
 2045SOL    HW1 6820   2.856   4.678   0.756 -2.1514  0.9717 -0.8851
 2045SOL    HW2 6821   2.899   4.818   0.721  0.5489  0.2416 -0.7075
 2046SOL     OW 6822   3.309   7.654   0.757  0.0770 -0.2663 -0.3885
 2046SOL    HW1 6823   3.221   7.623   0.781 -0.9754  0.5314 -2.8244
 2046SOL    HW2 6824   3.346   7.688   0.838 -2.5043  0.7844  0.4443
 2047SOL     OW 6825   7.430   5.364   0.936 -0.7511  0.2508  0.0429
 2047SOL    HW1 6826   7.350   5.403   0.973 -1.2223 -1.0690  0.4495
 2047SOL    HW2 6827   7.417   5.270   0.944  1.3376  0.0039  1.1528
 2048SOL     OW 6828   1.850   4.612   4.124  0.0500 -0.0006  0.0534
 2048SOL    HW1 6829   1.818   4.618   4.214 -0.8880 -0.1919 -0.2576
 2048SOL    HW2 6830   1.862   4.703   4.097 -0.2616  0.0781  0.1706
 2049SOL     OW 6831   7.503   0.162   5.085 -0.3300  0.3964 -0.2056
 2049SOL    HW1 6832   7.412   0.134   5.088 -0.2372  0.0917 -0.2299
 2049SOL    HW2 6833   7.552   0.084   5.060 -0.3408  1.1271 -2.9238
 2050SOL     OW 6834   0.135   6.083   7.369 -0.1708 -0.1742  0.5500
 2050SOL    HW1 6835   0.229   6.100   7.360  0.0174 -0.5608  1.7019
 2050SOL    HW2 6836   0.096   6.171   7.371  0.2297  0.0057  0.6969
 2051SOL     OW 6837   1.486   4.327   4.259  0.0963 -0.0770  0.1927
 2051SOL    HW1 6838   1.404   4.314   4.308 -0.4858  0.1420 -0.7011
 2051SOL    HW2 6839   1.499   4.244   4.213 -0.1656  0.2383 -0.4541
 2052SOL     OW 6840   7.287   6.158   6.126  0.4149  0.3856 -0.0534
 2052SOL    HW1 6841   7.195   6.177   6.108  0.7162  1.1753 -0.8183
 2052SOL    HW2 6842   7.292   6.062   6.126 -0.2196  0.3291 -1.0819
 2053SOL     OW 6843   0.338   0.531   2.542 -0.4057 -0.3207 -0.2891
 2053SOL    HW1 6844   0.331   0.528   2.637  1.4256  0.1001 -0.1178
 2053SOL    HW2 6845   0.278   0.602   2.516 -0.3966  0.0266  0.6051
 2054SOL     OW 6846   3.310   5.861   5.954 -0.7491  0.0338  0.0783
 2054SOL    HW1 6847   3.342   5.905   5.875  0.2648 -1.2475 -0.2458
 2054SOL    HW2 6848   3.387   5.855   6.011 -0.8654 -1.2994  0.1194
 2055SOL     OW 6849   1.326   4.699   2.640 -0.0781 -0.3344 -0.2976
 2055SOL    HW1 6850   1.270   4.777   2.641  2.3160  1.5183  1.5938
 2055SOL    HW2 6851   1.369   4.702   2.554  0.0982  0.5152 -0.1883
 2056SOL     OW 6852   7.672   5.821   4.987 -0.1102 -0.0741  0.1875
 2056SOL    HW1 6853   7.656   5.909   4.955 -0.0008 -0.1942 -0.2045
 2056SOL    HW2 6854   7.723   5.779   4.917 -0.5272 -0.5811  0.1852
 2057SOL     OW 6855   4.920   1.642   4.280  0.1112  0.4872 -0.3673
 2057SOL    HW1 6856   4.911   1.621   4.373  0.8025  2.3728  0.1671
 2057SOL    HW2 6857   4.855   1.587   4.236  1.0694 -1.8998  0.9794
 2058SOL     OW 6858   0.323   7.528   6.344 -0.5175  0.2291  0.5509
 2058SOL    HW1 6859   0.289   7.534   6.255  0.5607  1.1865  0.1899
 2058SOL    HW2 6860   0.413   7.497   6.333 -0.8680 -1.2020  1.4241
 2059SOL     OW 6861   7.516   3.061   7.199 -0.5167  0.0656 -0.2481
 2059SOL    HW1 6862   7.565   2.985   7.165  1.5635  1.3371 -0.3030
 2059SOL    HW2 6863   7.496   3.113   7.121 -2.5749 -0.7303 -0.2897
 2060SOL     OW 6864   2.371   1.466   0.373  0.5124 -0.1395 -0.2366
 2060SOL    HW1 6865   2.351   1.390   0.318 -1.1708 -0.9131  1.3667
 2060SOL    HW2 6866   2.302   1.529   0.353  1.3016  0.5911 -0.7712
 2061SOL     OW 6867   0.659   6.839   3.220 -1.0927  0.4133  0.1911
 2061SOL    HW1 6868   0.754   6.837   3.232 -0.7303  2.0617 -1.8709
 2061SOL    HW2 6869   0.635   6.746   3.214  0.7933 -0.0519 -1.6684
 2062SOL     OW 6870   7.166   6.794   5.824  0.2243  0.5242  0.4378
 2062SOL    HW1 6871   7.249   6.841   5.819 -0.5807  1.9019 -1.1893
 2062SOL    HW2 6872   7.176   6.721   5.762 -0.2328  1.5533 -0.9085
 2063SOL     OW 6873   3.831   5.168   7.125  0.3136  0.4608 -0.1053
 2063SOL    HW1 6874   3.872   5.085   7.102 -0.8430 -0.2729  0.3856
 2063SOL    HW2 6875   3.745   5.144   7.158 -0.1050  1.8755 -0.0939
 2064SOL     OW 6876   4.708   6.753   6.077  0.0353 -0.2922  0.9384
 2064SOL    HW1 6877   4.695   6.784   6.166  2.1402  0.9354  0.8882
 2064SOL    HW2 6878   4.727   6.832   6.027  1.6640 -1.2244 -0.0061
 2065SOL     OW 6879   6.284   4.784   2.896  0.3264  0.5950 -0.3344
 2065SOL    HW1 6880   6.283   4.804   2.990  0.9135  1.8233 -0.5748
 2065SOL    HW2 6881   6.367   4.738   2.882  2.3160  3.9806 -0.8801
 2066SOL     OW 6882   5.691   3.328   0.826 -0.2700 -0.6953 -0.4540
 2066SOL    HW1 6883   5.709   3.240   0.858  1.1318 -0.1209  0.3880
 2066SOL    HW2 6884   5.599   3.343   0.848 -0.2376 -1.5576  0.3201
 2067SOL     OW 6885   7.247   5.572   0.739 -0.0677  0.0931  0.4250
 2067SOL    HW1 6886   7.319   5.589   0.801 -0.6715 -1.2440  1.5441
 2067SOL    HW2 6887   7.173   5.622   0.774 -0.9392 -2.1114  1.9099
 2068SOL     OW 6888   6.649   7.446   0.362  0.2541  0.1329 -0.0845
 2068SOL    HW1 6889   6.735   7.456   0.322 -0.1786 -0.5248 -1.2396
 2068SOL    HW2 6890   6.663   7.390   0.438  0.8523  0.1014 -0.2186
 2069SOL     OW 6891   0.237   2.375   3.827  0.4866 -0.0658 -0.3503
 2069SOL    HW1 6892   0.268   2.465   3.811 -0.8683  0.2467 -1.3657
 2069SOL    HW2 6893   0.196   2.379   3.913 -2.2631  1.1170 -1.5881
 2070SOL     OW 6894   5.293   7.031   0.469 -0.5251 -0.4207  0.1283
 2070SOL    HW1 6895   5.281   7.055   0.377 -3.0481 -1.3040  0.1666
 2070SOL    HW2 6896   5.232   6.959   0.483  0.2107 -0.6768  2.3827
 2071SOL     OW 6897   2.948   2.208   2.258 -0.2489  0.1895  0.0112
 2071SOL    HW1 6898   2.965   2.168   2.344  0.3929 -2.0949 -1.0906
 2071SOL    HW2 6899   3.019   2.270   2.247  2.4943 -2.7777 -0.6770
 2072SOL     OW 6900   3.439   2.207   2.945  0.1799  0.2222  0.5867
 2072SOL    HW1 6901   3.518   2.179   2.898  0.3747 -1.2300  1.7149
 2072SOL    HW2 6902   3.382   2.242   2.877  1.5604  0.7841 -0.3344
 2073SOL     OW 6903   3.402   1.797   3.170  0.2465 -0.1635 -0.1066
 2073SOL    HW1 6904   3.445   1.864   3.222  0.3113  0.0310 -0.4106
 2073SOL    HW2 6905   3.346   1.751   3.233  3.0824 -2.4104  1.0540
 2074SOL     OW 6906   5.941   5.950   6.710  0.3594  0.7218  0.3722
 2074SOL    HW1 6907   5.923   5.928   6.802 -1.9059  2.3172  0.4002
 2074SOL    HW2 6908   5.940   6.046   6.709 -0.1859  0.7199 -1.4012
 2075SOL     OW 6909   0.324   7.642   3.112 -0.3296 -0.4435 -0.3759
 2075SOL    HW1 6910   0.413   7.606   3.117 -0.9248 -1.8484  1.3250
 2075SOL    HW2 6911   0.337   7.736   3.098  1.5635 -0.1482  2.5084
 2076SOL     OW 6912   4.191   0.550   5.962  0.6034  0.0968 -0.7765
 2076SOL    HW1 6913   4.276   0.506   5.965  0.3983 -0.2961 -0.5188
 2076SOL    HW2 6914   4.130   0.482   5.932  0.0677 -0.1685  0.7794
 2077SOL     OW 6915   1.615   1.834   4.668 -0.1539 -0.6332 -0.3259
 2077SOL    HW1 6916   1.690   1.778   4.646  0.1754 -0.3841  0.1609
 2077SOL    HW2 6917   1.637   1.873   4.752 -1.3553 -1.4825  0.4254
 2078SOL     OW 6918   0.364   5.237   3.207 -0.2269 -0.1782 -0.1456
 2078SOL    HW1 6919   0.457   5.254   3.217 -0.4472  0.2922  1.5227
 2078SOL    HW2 6920   0.345   5.168   3.271 -1.1993  0.5267  0.3604
 2079SOL     OW 6921   7.008   1.822   4.739  0.8139  0.3194  0.3445
 2079SOL    HW1 6922   7.083   1.847   4.684  1.3118 -1.4815  0.1497
 2079SOL    HW2 6923   6.938   1.882   4.713  1.7925  1.1809 -0.4052
 2080SOL     OW 6924   3.546   4.438   7.512 -0.2012  0.3472 -0.3320
 2080SOL    HW1 6925   3.503   4.423   7.596  1.2306  2.6968  0.9339
 2080SOL    HW2 6926   3.475   4.448   7.449 -1.4217  1.3682  1.1472
 2081SOL     OW 6927   1.781   3.604   5.025  0.2248  0.1561 -0.4181
 2081SOL    HW1 6928   1.795   3.628   4.934 -0.2766  0.3641 -0.4375
 2081SOL    HW2 6929   1.687   3.614   5.040  0.3146  0.2074  0.1457
 2082SOL     OW 6930   4.266   6.049   2.615  0.3764  0.4039 -0.5972
 2082SOL    HW1 6931   4.251   5.965   2.570 -2.0911  0.3388  0.2023
 2082SOL    HW2 6932   4.311   6.026   2.696  0.3393 -0.0622 -0.7086
 2083SOL     OW 6933   2.219   1.984   1.517  0.6735  0.4298 -0.4257
 2083SOL    HW1 6934   2.276   1.930   1.462 -0.1126  0.0095 -0.8633
 2083SOL    HW2 6935   2.144   2.003   1.460  0.4121  1.0217  0.1116
 2084SOL     OW 6936   3.123   7.167   1.588  0.4936 -0.4914  0.4418
 2084SOL    HW1 6937   3.133   7.088   1.641 -4.1038 -1.8984 -0.2944
 2084SOL    HW2 6938   3.137   7.138   1.498 -1.4892 -0.7051  0.1400
 2085SOL     OW 6939   1.529   5.534   7.726 -0.2852  0.6084 -0.3675
 2085SOL    HW1 6940   1.520   5.614   7.675  1.3131  0.9215 -0.1925
 2085SOL    HW2 6941   1.619   5.506   7.713 -0.7660 -1.1145 -0.3277
 2086SOL     OW 6942   0.870   3.400   0.907 -0.1381 -0.5238 -0.1326
 2086SOL    HW1 6943   0.938   3.404   0.840 -1.0109  0.5077 -0.9912
 2086SOL    HW2 6944   0.849   3.307   0.915 -1.1941 -0.5661 -2.5272
 2087SOL     OW 6945   0.135   7.066   4.919  0.8327  0.7611  0.7849
 2087SOL    HW1 6946   0.193   7.080   4.844 -1.4778  1.2324 -1.0242
 2087SOL    HW2 6947   0.130   7.151   4.962 -0.2325  1.3234 -0.3991
 2088SOL     OW 6948   2.670   1.939   3.464  0.4677  0.7104 -0.0792
 2088SOL    HW1 6949   2.745   1.997   3.479  1.2577  0.1269 -1.6026
 2088SOL    HW2 6950   2.684   1.866   3.523  0.7703  0.8991  0.0867
 2089SOL     OW 6951   0.292   4.872   1.409 -0.0321  0.1927  0.0338
 2089SOL    HW1 6952   0.278   4.907   1.497 -0.7303  2.3886 -0.8763
 2089SOL    HW2 6953   0.204   4.863   1.373  0.3013  0.9435 -1.0113
 2090SOL     OW 6954   1.606   3.316   3.570  0.0762 -0.0098  0.5129
 2090SOL    HW1 6955   1.657   3.238   3.550  0.1559  0.1325  0.1558
 2090SOL    HW2 6956   1.670   3.387   3.574 -0.3460  0.6677 -2.5901
 2091SOL     OW 6957   0.425   1.983   7.095 -0.4651  0.1094 -0.2358
 2091SOL    HW1 6958   0.489   2.019   7.156  0.4134 -0.0684 -1.0214
 2091SOL    HW2 6959   0.478   1.940   7.027 -1.3995  0.3864 -1.1721
 2092SOL     OW 6960   2.643   5.784   6.991 -0.3833  0.7919 -0.1337
 2092SOL    HW1 6961   2.595   5.866   7.002 -2.1339 -0.3992  1.5922
 2092SOL    HW2 6962   2.595   5.720   7.043  2.4521 -0.7645  0.7669
 2093SOL     OW 6963   4.042   7.483   7.657  0.8792 -0.0822  0.0384
 2093SOL    HW1 6964   4.096   7.422   7.707  1.0310 -0.3236 -0.4121
 2093SOL    HW2 6965   4.026   7.556   7.716  0.6990 -0.5567  0.5827
 2094SOL     OW 6966   4.336   5.601   6.522 -0.3832 -0.1411 -0.3460
 2094SOL    HW1 6967   4.296   5.568   6.602  1.3881 -0.0507  0.6340
 2094SOL    HW2 6968   4.324   5.696   6.527 -0.6460 -0.1719 -0.3986
 2095SOL     OW 6969   3.138   1.128   0.462  0.4946 -0.0525  0.2114
 2095SOL    HW1 6970   3.214   1.172   0.423  0.4565 -0.8151 -0.7935
 2095SOL    HW2 6971   3.071   1.132   0.393 -0.6790  1.3149  1.3750
 2096SOL     OW 6972   7.580   1.834   6.602  0.5434  0.2388  0.7453
 2096SOL    HW1 6973   7.556   1.766   6.665 -0.6370  0.6871  0.8145
 2096SOL    HW2 6974   7.516   1.824   6.531  1.2818  0.3340  0.0619
 2097SOL     OW 6975   1.193   3.658   7.637 -0.2023 -0.2532  0.0206
 2097SOL    HW1 6976   1.141   3.586   7.601 -0.7007 -0.3761  0.9608
 2097SOL    HW2 6977   1.199   3.722   7.566 -1.2848 -0.4257 -0.2330
 2098SOL     OW 6978   1.676   4.409   4.790 -0.5262  0.5417  0.3030
 2098SOL    HW1 6979   1.643   4.323   4.815 -0.9144  0.1465 -1.4255
 2098SOL    HW2 6980   1.658   4.415   4.696  2.9512  0.9335 -0.4589
 2099SOL     OW 6981   6.756   2.483   6.741  0.1556 -0.5005  0.2288
 2099SOL    HW1 6982   6.692   2.431   6.791 -0.1104 -0.0511  0.3606
 2099SOL    HW2 6983   6.818   2.418   6.707 -0.6685 -1.0160 -0.3530
 2100SOL     OW 6984   0.083   0.077   7.135 -0.2545  0.1553 -0.7373
 2100SOL    HW1 6985   0.012   0.032   7.181 -0.5003 -0.1127 -1.3547
 2100SOL    HW2 6986   0.076   0.168   7.162 -0.6716  0.0813 -0.5917
 2101SOL     OW 6987   1.195   6.623   3.528  0.1033  0.3332  0.7640
 2101SOL    HW1 6988   1.179   6.713   3.502  1.7954  0.3262 -0.4980
 2101SOL    HW2 6989   1.109   6.589   3.552 -0.5860  2.2250  1.1619
 2102SOL     OW 6990   3.654   5.280   4.162 -0.0311 -0.4908 -0.1761
 2102SOL    HW1 6991   3.578   5.337   4.173  1.8642  2.2151 -0.0288
 2102SOL    HW2 6992   3.667   5.276   4.067  1.1558  1.3657 -0.1482
 2103SOL     OW 6993   6.206   0.936   7.282 -0.2018  0.8462  0.1466
 2103SOL    HW1 6994   6.261   0.963   7.356 -0.1358  1.5988 -0.1612
 2103SOL    HW2 6995   6.226   0.844   7.270 -0.8864  0.4595  1.6398
 2104SOL     OW 6996   0.673   4.224   2.843 -0.1396  0.1684 -0.3293
 2104SOL    HW1 6997   0.764   4.233   2.817  0.4145 -3.5410 -0.2482
 2104SOL    HW2 6998   0.677   4.189   2.932 -1.5958 -0.7107 -0.5772
 2105SOL     OW 6999   6.585   3.346   3.333  0.1180 -0.3168 -0.2483
 2105SOL    HW1 7000   6.556   3.259   3.361 -1.8376  0.1271 -0.7273
 2105SOL    HW2 7001   6.619   3.332   3.244 -0.3375 -0.5783 -0.3857
 2106SOL     OW 7002   4.798   6.999   5.984  0.1929 -0.3273 -0.3927
 2106SOL    HW1 7003   4.862   6.972   5.918 -1.2845  1.1324 -2.5580
 2106SOL    HW2 7004   4.849   7.046   6.050  1.9125 -2.9563  0.3339
 2107SOL     OW 7005   7.728   4.424   7.529  0.0856  0.4193 -0.0567
 2107SOL    HW1 7006   7.752   4.514   7.550  2.2219 -0.2388  0.5334
 2107SOL    HW2 7007   7.795   4.395   7.467  0.0338 -1.0813  0.5489
 2108SOL     OW 7008   3.116   0.518   4.535 -0.5745  0.3378  0.0623
 2108SOL    HW1 7009   3.127   0.426   4.514 -2.0762 -0.0015  0.6077
 2108SOL    HW2 7010   3.068   0.554   4.460  1.5418  1.1321 -0.9944
 2109SOL     OW 7011   5.941   5.761   3.788 -0.0249 -0.6228  0.3999
 2109SOL    HW1 7012   5.932   5.832   3.725 -0.2414  1.4936  2.6512
 2109SOL    HW2 7013   5.866   5.704   3.772 -1.6863  1.4172  0.5457
 2110SOL     OW 7014   2.471   0.926   4.912 -0.2415  0.5824  0.4845
 2110SOL    HW1 7015   2.514   0.998   4.959 -1.5520  1.3606  0.5514
 2110SOL    HW2 7016   2.385   0.919   4.953  0.2508 -1.8170  1.2445
 2111SOL     OW 7017   2.103   6.316   4.010 -0.3535  0.9513 -0.1019
 2111SOL    HW1 7018   2.197   6.330   4.001  0.1065 -0.7032  1.5965
 2111SOL    HW2 7019   2.083   6.245   3.949 -0.1768  0.2348  0.6575
 2112SOL     OW 7020   6.609   5.130   4.237  0.2276 -0.3119 -0.3676
 2112SOL    HW1 7021   6.657   5.086   4.307  2.5383 -0.0781 -1.7123
 2112SOL    HW2 7022   6.642   5.090   4.157 -0.4042  1.2537 -1.4588
 2113SOL     OW 7023   6.337   3.917   7.437  0.1318  0.0226  0.3361
 2113SOL    HW1 7024   6.405   3.984   7.441 -1.0595  1.3992 -0.8865
 2113SOL    HW2 7025   6.257   3.966   7.417 -0.8394 -1.7471 -0.3575
 2114SOL     OW 7026   1.360   5.780   6.484  0.1659  0.4951 -0.4380
 2114SOL    HW1 7027   1.422   5.825   6.542  1.7284  0.6129 -2.1076
 2114SOL    HW2 7028   1.322   5.711   6.539  1.3847  0.7742  0.8094
 2115SOL     OW 7029   3.755   2.146   5.796  0.1097  0.5991 -0.0339
 2115SOL    HW1 7030   3.662   2.170   5.795  0.2020  1.0339  1.0442
 2115SOL    HW2 7031   3.779   2.145   5.888  0.9580 -0.4057 -0.2521
 2116SOL     OW 7032   1.451   7.725   3.267 -0.0916 -0.1864 -0.1307
 2116SOL    HW1 7033   1.416   7.732   3.356 -1.2374  0.5010 -0.6072
 2116SOL    HW2 7034   1.545   7.741   3.276 -0.0656 -0.9161  1.0485
 2117SOL     OW 7035   2.845   6.507   3.129 -0.0255 -0.5108 -1.1615
 2117SOL    HW1 7036   2.841   6.497   3.034  0.4500 -0.5880 -1.1774
 2117SOL    HW2 7037   2.892   6.429   3.159 -1.1572 -1.0576 -0.7486
 2118SOL     OW 7038   1.699   3.584   5.916  0.6352  0.3427  0.2436
 2118SOL    HW1 7039   1.700   3.522   5.990 -0.4143 -0.5021 -0.4188
 2118SOL    HW2 7040   1.608   3.614   5.912  0.5436 -0.0525 -1.0401
 2119SOL     OW 7041   6.731   3.509   3.018 -0.3794 -0.1996 -0.1722
 2119SOL    HW1 7042   6.658   3.486   2.961 -0.0125  0.9695 -1.1568
 2119SOL    HW2 7043   6.809   3.496   2.965 -0.0392  0.9466  0.0064
 2120SOL     OW 7044   1.242   5.957   6.285  0.4721 -0.1220 -0.3893
 2120SOL    HW1 7045   1.287   5.903   6.350 -1.3938  0.9317  1.9367
 2120SOL    HW2 7046   1.227   5.899   6.211 -0.2173 -2.4062  1.4289
 2121SOL     OW 7047   1.460   6.561   3.975 -0.2318  0.0142 -0.1055
 2121SOL    HW1 7048   1.551   6.583   3.996  0.7629 -1.1975 -2.6763
 2121SOL    HW2 7049   1.444   6.478   4.021  1.2158 -1.5629 -2.2570
 2122SOL     OW 7050   0.693   2.403   2.404 -0.7448  0.0271 -0.3008
 2122SOL    HW1 7051   0.693   2.383   2.498 -0.6586  0.0714 -0.2906
 2122SOL    HW2 7052   0.756   2.474   2.395  0.3588 -0.9626 -0.6043
 2123SOL     OW 7053   7.711   6.138   4.895 -0.1589  0.0705 -0.8044
 2123SOL    HW1 7054   7.636   6.124   4.837  0.9935 -2.6431 -1.7946
 2123SOL    HW2 7055   7.709   6.231   4.915 -1.6349  0.7898 -3.7805
 2124SOL     OW 7056   0.397   6.924   7.384 -0.4520 -0.0661 -0.0628
 2124SOL    HW1 7057   0.318   6.948   7.336  0.7938  1.7606 -1.3799
 2124SOL    HW2 7058   0.415   7.000   7.440 -1.5738 -1.9326  3.0674
 2125SOL     OW 7059   5.801   4.163   3.830  0.3884 -0.4473  0.2497
 2125SOL    HW1 7060   5.865   4.183   3.899  1.6807  1.9600 -1.5008
 2125SOL    HW2 7061   5.855   4.134   3.756 -0.6036  0.6621 -0.9457
 2126SOL     OW 7062   4.529   4.550   7.117  0.7993  0.2187 -0.1965
 2126SOL    HW1 7063   4.464   4.517   7.179  0.2517 -2.0244 -1.8544
 2126SOL    HW2 7064   4.567   4.472   7.078  2.3545  1.5377 -1.4650
 2127SOL     OW 7065   3.941   0.037   1.619  0.0742  0.0047 -0.5526
 2127SOL    HW1 7066   3.867   0.095   1.638 -0.5573 -0.4936 -1.3802
 2127SOL    HW2 7067   3.941  -0.026   1.690  1.4977  1.6590  1.0064
 2128SOL     OW 7068   3.952   4.649   1.813  0.1401 -0.1617 -0.5441
 2128SOL    HW1 7069   3.962   4.642   1.718 -0.2617 -0.5768 -0.5585
 2128SOL    HW2 7070   3.962   4.742   1.832 -2.4270  0.3211 -1.2998
 2129SOL     OW 7071   4.186   6.552   2.751  0.4168  0.9074 -0.0510
 2129SOL    HW1 7072   4.259   6.502   2.715  0.9366  1.1400  0.6631
 2129SOL    HW2 7073   4.226   6.628   2.792 -0.0259  0.0759  2.0302
 2130SOL     OW 7074   5.932   0.054   5.818 -0.2020  0.1779  0.3380
 2130SOL    HW1 7075   5.875   0.131   5.821 -0.7463 -0.2191  0.2309
 2130SOL    HW2 7076   5.951   0.042   5.725 -1.4159 -0.7607  0.1956
 2131SOL     OW 7077   0.077   2.818   5.914 -0.2904  0.0730 -0.0017
 2131SOL    HW1 7078   0.076   2.765   5.994 -1.2509 -1.5157 -1.0068
 2131SOL    HW2 7079  -0.012   2.853   5.908 -0.5071 -0.5817 -0.8278
 2132SOL     OW 7080   0.866   0.820   7.644 -0.1389 -0.3519 -0.4564
 2132SOL    HW1 7081   0.839   0.901   7.688 -2.2516 -1.7386  0.9880
 2132SOL    HW2 7082   0.790   0.796   7.590  0.1587 -1.7573 -0.2901
 2133SOL     OW 7083   1.567   3.089   1.093  0.0693  0.0680  0.5072
 2133SOL    HW1 7084   1.558   2.998   1.063 -0.9919  0.1330  0.6000
 2133SOL    HW2 7085   1.548   3.141   1.015 -0.6356  0.2198  0.7798
 2134SOL     OW 7086   3.171   4.620   1.922 -0.1464 -0.0877  0.2699
 2134SOL    HW1 7087   3.202   4.537   1.886 -0.2807 -0.6279  1.3635
 2134SOL    HW2 7088   3.088   4.637   1.878  0.1477 -0.2536 -0.3508
 2135SOL     OW 7089   4.615   7.391   1.896 -0.5984 -0.4646 -0.0942
 2135SOL    HW1 7090   4.520   7.382   1.902 -0.4520 -1.7959  0.7108
 2135SOL    HW2 7091   4.633   7.391   1.802 -1.5389  1.9923 -0.3415
 2136SOL     OW 7092   4.028   2.617   0.336  0.2419 -0.0047  0.6509
 2136SOL    HW1 7093   3.957   2.622   0.400 -0.3936  0.7385 -0.0836
 2136SOL    HW2 7094   4.017   2.531   0.295 -0.6626  0.3653  0.0855
 2137SOL     OW 7095   3.521   3.993   3.410  0.2315 -0.2719 -0.0113
 2137SOL    HW1 7096   3.472   3.989   3.492  3.6366  1.5418  2.3501
 2137SOL    HW2 7097   3.481   4.067   3.362 -1.5467 -1.1124  0.1150
 2138SOL     OW 7098   6.820   6.372   4.092  0.1253  0.0774  0.3381
 2138SOL    HW1 7099   6.867   6.433   4.034  0.2537 -0.0356  0.3236
 2138SOL    HW2 7100   6.761   6.428   4.143 -0.8612  0.0492 -0.7363
 2139SOL     OW 7101   3.451   7.143   3.554 -0.2755 -0.4995  0.1109
 2139SOL    HW1 7102   3.445   7.093   3.472 -0.5203 -1.4652  0.7066
 2139SOL    HW2 7103   3.399   7.222   3.537 -1.5845 -1.3843 -0.1805
 2140SOL     OW 7104   4.780   3.007   1.693 -0.5430 -0.1491 -0.1839
 2140SOL    HW1 7105   4.835   3.067   1.642 -0.4734  0.1809  0.2692
 2140SOL    HW2 7106   4.819   2.921   1.680  0.9505  0.2739  1.2667
 2141SOL     OW 7107   2.912   2.507   6.681 -0.4123 -0.1869 -0.0601
 2141SOL    HW1 7108   2.848   2.569   6.646 -0.3699 -0.0138  0.1640
 2141SOL    HW2 7109   2.861   2.446   6.734 -0.3002  0.4338  0.7839
 2142SOL     OW 7110   2.197   6.835   3.994 -0.2068  0.4924 -0.4681
 2142SOL    HW1 7111   2.121   6.846   4.051 -0.2931 -0.4620 -0.3728
 2142SOL    HW2 7112   2.171   6.766   3.933  1.3731 -1.5732  1.0451
 2143SOL     OW 7113   1.885   0.812   1.985  0.4833 -0.3552  0.2233
 2143SOL    HW1 7114   1.966   0.780   1.946  0.4731 -1.0127  0.7319
 2143SOL    HW2 7115   1.819   0.803   1.916  0.6989 -0.4602  0.0333
 2144SOL     OW 7116   1.858   6.302   0.904 -0.6404 -0.0446  0.1284
 2144SOL    HW1 7117   1.908   6.266   0.831 -1.3059 -1.2728  0.2474
 2144SOL    HW2 7118   1.876   6.396   0.902  1.2312 -0.3734 -0.1515
 2145SOL     OW 7119   0.254   7.494   0.124  0.0525 -0.0807 -0.3921
 2145SOL    HW1 7120   0.232   7.409   0.163 -0.3198  0.1930  0.0008
 2145SOL    HW2 7121   0.247   7.479   0.030  1.1926 -0.8166 -0.3903
 2146SOL     OW 7122   0.640   1.603   6.973 -0.3644 -0.2384  0.0638
 2146SOL    HW1 7123   0.669   1.526   6.925 -0.8150 -0.1221 -0.3993
 2146SOL    HW2 7124   0.720   1.642   7.007 -0.0809 -0.5477 -0.2462
 2147SOL     OW 7125   0.075   5.361   7.433  0.1956  0.4473 -0.0514
 2147SOL    HW1 7126   0.143   5.402   7.379  0.8224 -0.0014  0.3896
 2147SOL    HW2 7127   0.111   5.277   7.458  0.9595  1.5422  3.0261
 2148SOL     OW 7128   7.106   5.171   2.822  0.2701  0.6493  0.8700
 2148SOL    HW1 7129   7.108   5.264   2.842  4.2809  0.7822  0.6281
 2148SOL    HW2 7130   7.194   5.140   2.841 -0.1441 -2.5520 -1.5365
 2149SOL     OW 7131   0.474   3.353   5.382 -0.6126  0.3251  0.1589
 2149SOL    HW1 7132   0.549   3.317   5.429  0.1205  1.9646  0.3180
 2149SOL    HW2 7133   0.402   3.351   5.445 -1.6598 -4.0082 -0.8487
 2150SOL     OW 7134   4.156   0.185   4.899 -0.1202 -0.4048  0.1713
 2150SOL    HW1 7135   4.183   0.123   4.967  1.2985 -0.1251 -0.1055
 2150SOL    HW2 7136   4.234   0.197   4.845 -0.7311  0.6823 -0.5073
 2151SOL     OW 7137   1.047   5.340   2.068  0.6143  0.2147 -0.4880
 2151SOL    HW1 7138   1.138   5.310   2.076  1.5965  3.4283  2.9439
 2151SOL    HW2 7139   1.053   5.420   2.017  0.1714  1.7457  1.7420
 2152SOL     OW 7140   1.625   5.958   3.016  0.2669  0.3385  0.6080
 2152SOL    HW1 7141   1.671   6.030   2.974  0.0930  0.1869  0.1476
 2152SOL    HW2 7142   1.534   5.987   3.020  0.5206  1.0110  2.3175
 2153SOL     OW 7143   2.433   1.484   6.632 -0.0425  0.3636  0.1079
 2153SOL    HW1 7144   2.345   1.519   6.625 -0.1999 -0.1832 -0.7944
 2153SOL    HW2 7145   2.490   1.556   6.606 -0.2843  0.3915 -0.3489
 2154SOL     OW 7146   4.078   1.109   3.577 -1.2221 -0.1312  0.0602
 2154SOL    HW1 7147   3.988   1.102   3.546 -1.6317  2.8737  0.3251
 2154SOL    HW2 7148   4.072   1.160   3.658  0.7289  0.1789  0.0517
 2155SOL     OW 7149   2.754   1.578   0.812 -0.7095  0.3653  0.0311
 2155SOL    HW1 7150   2.758   1.661   0.764 -1.7676  0.9883  0.9449
 2155SOL    HW2 7151   2.824   1.584   0.876 -1.1616  0.8474  0.4987
 2156SOL     OW 7152   4.543   3.167   3.908 -0.0568  0.0936  0.5915
 2156SOL    HW1 7153   4.481   3.110   3.863 -0.0008 -0.1286  0.7927
 2156SOL    HW2 7154   4.572   3.116   3.984 -0.6333  0.6995  1.2423
 2157SOL     OW 7155   7.065   6.586   7.612 -0.2511 -0.2633 -0.1608
 2157SOL    HW1 7156   7.068   6.645   7.536  1.7345 -0.3676 -0.2128
 2157SOL    HW2 7157   7.010   6.632   7.675 -2.0315 -0.2018 -1.6533
 2158SOL     OW 7158   6.788   5.267   1.020  0.5592  0.8518 -0.3704
 2158SOL    HW1 7159   6.783   5.308   1.106 -0.2611 -0.6702  0.3412
 2158SOL    HW2 7160   6.882   5.259   1.003  0.7282  1.4075  0.2561
 2159SOL     OW 7161   4.398   7.671   0.957 -0.6410  0.0232  0.7867
 2159SOL    HW1 7162   4.416   7.719   1.038  2.7991  1.1151 -0.4620
 2159SOL    HW2 7163   4.383   7.739   0.891 -0.3897 -0.7497 -0.0940
 2160SOL     OW 7164   3.750   4.682   3.831  0.2095 -0.6878 -0.0454
 2160SOL    HW1 7165   3.793   4.767   3.816  0.5962 -0.4521  2.0547
 2160SOL    HW2 7166   3.658   4.704   3.847  0.4210 -0.5661  1.0956
 2161SOL     OW 7167   0.938   7.751   0.312  0.2999  0.1810 -0.3645
 2161SOL    HW1 7168   0.993   7.779   0.239 -0.6199 -1.1453 -1.6161
 2161SOL    HW2 7169   0.880   7.826   0.327  1.4040  1.0063 -0.0292
 2162SOL     OW 7170   7.133   6.724   4.752 -0.3677  0.3444  0.1580
 2162SOL    HW1 7171   7.066   6.685   4.808  0.9718 -0.7441  1.0953
 2162SOL    HW2 7172   7.110   6.697   4.663 -0.0843 -1.7900  0.6628
 2163SOL     OW 7173   6.466   1.431   3.286  0.5829  0.5832  0.0993
 2163SOL    HW1 7174   6.389   1.445   3.230  0.8471 -0.1568 -0.4702
 2163SOL    HW2 7175   6.517   1.511   3.277  2.2397 -0.6604 -3.3192
 2164SOL     OW 7176   0.144   5.478   6.653 -0.3130  0.7947 -0.0314
 2164SOL    HW1 7177   0.175   5.453   6.740  0.5897 -0.4816 -0.6964
 2164SOL    HW2 7178   0.056   5.514   6.669  0.3481  1.8341  1.5468
 2165SOL     OW 7179   6.776   7.279   3.959 -0.3594 -0.3453 -0.0707
 2165SOL    HW1 7180   6.759   7.230   3.879  0.0309  0.4389 -0.6324
 2165SOL    HW2 7181   6.844   7.341   3.936  0.5107 -0.8079  1.1438
 2166SOL     OW 7182   7.465   0.780   4.400 -0.3089  0.1783  0.1053
 2166SOL    HW1 7183   7.397   0.789   4.333 -0.2775 -1.3602 -0.1683
 2166SOL    HW2 7184   7.458   0.690   4.429  1.9207 -0.1760 -0.2763
 2167SOL     OW 7185   0.906   6.146   1.537  0.0604  0.1242  0.1518
 2167SOL    HW1 7186   0.889   6.153   1.444  0.8113  1.8593  0.1151
 2167SOL    HW2 7187   0.912   6.236   1.568  1.1538 -0.3966  1.6214
 2168SOL     OW 7188   5.245   7.386   5.726  0.4371 -0.9085 -0.2344
 2168SOL    HW1 7189   5.196   7.436   5.792 -2.2904  0.3157 -2.9576
 2168SOL    HW2 7190   5.336   7.416   5.736 -0.3818  1.3619  1.0801
 2169SOL     OW 7191   0.355   0.061   6.341 -0.3913  0.0490  0.0760
 2169SOL    HW1 7192   0.353   0.049   6.247  0.7806  2.5313 -0.3603
 2169SOL    HW2 7193   0.265   0.083   6.366 -0.4404  0.7336 -0.6931
 2170SOL     OW 7194   0.202   7.752   3.554  0.8655 -0.3310  0.5349
 2170SOL    HW1 7195   0.264   7.679   3.553 -0.2900 -1.3514 -0.2250
 2170SOL    HW2 7196   0.155   7.743   3.637 -2.8667 -3.7556 -1.5760
 2171SOL     OW 7197   6.639   3.423   4.355 -0.5438  0.0650  0.0244
 2171SOL    HW1 7198   6.547   3.446   4.365 -0.7189  1.1471 -3.0138
 2171SOL    HW2 7199   6.637   3.334   4.318 -0.1650 -1.1956  2.7690
 2172SOL     OW 7200   1.992   1.897   0.848 -0.3966 -0.3269  0.5806
 2172SOL    HW1 7201   2.023   1.870   0.934  0.1805 -0.3013  0.3814
 2172SOL    HW2 7202   2.070   1.928   0.802 -0.6717 -0.4837 -0.0067
 2173SOL     OW 7203   3.491   5.584   5.145 -0.7134  0.6635  0.0391
 2173SOL    HW1 7204   3.547   5.660   5.158 -0.3928  0.4197  0.0879
 2173SOL    HW2 7205   3.439   5.606   5.068 -0.7187  0.9887  0.1318
 2174SOL     OW 7206   6.582   2.815   6.273 -0.1068 -0.1366  0.0636
 2174SOL    HW1 7207   6.565   2.796   6.366 -0.8853 -0.1400 -0.0760
 2174SOL    HW2 7208   6.574   2.910   6.266 -0.1667 -0.1481 -0.0232
 2175SOL     OW 7209   7.737   1.460   6.451 -0.0509 -0.3637 -0.4009
 2175SOL    HW1 7210   7.668   1.399   6.427 -1.0687 -0.5814  2.6014
 2175SOL    HW2 7211   7.704   1.546   6.423 -3.0038 -0.0613  3.1766
 2176SOL     OW 7212   4.235   5.859   1.467  0.7628  0.3064 -0.4290
 2176SOL    HW1 7213   4.212   5.952   1.455 -0.8926 -0.0258 -0.1501
 2176SOL    HW2 7214   4.154   5.812   1.447  1.4824 -1.0673 -0.2419
 2177SOL     OW 7215   4.033   0.086   5.913  0.6281 -0.1694  0.9065
 2177SOL    HW1 7216   4.102   0.141   5.948 -0.0057 -0.2932  2.4106
 2177SOL    HW2 7217   4.074   0.041   5.839  1.6287  1.0621  0.6745
 2178SOL     OW 7218   1.647   6.475   0.769 -0.3386 -0.0082  0.1636
 2178SOL    HW1 7219   1.617   6.446   0.683 -0.4558  0.4284  0.0538
 2178SOL    HW2 7220   1.640   6.398   0.824  0.0999 -0.3968 -0.3090
 2179SOL     OW 7221   5.834   5.541   3.342 -0.3409  0.2830  0.0865
 2179SOL    HW1 7222   5.836   5.609   3.275  3.5997 -0.7816 -1.1508
 2179SOL    HW2 7223   5.841   5.588   3.425  2.2722  1.5556 -0.7296
 2180SOL     OW 7224   6.856   3.182   5.929  0.2477  0.0731 -0.0792
 2180SOL    HW1 7225   6.859   3.095   5.968  0.1270  1.5005  3.4824
 2180SOL    HW2 7226   6.941   3.221   5.949 -0.5986  1.6161  0.7803
 2181SOL     OW 7227   0.686   2.494   4.890 -0.5345 -0.5106 -0.2593
 2181SOL    HW1 7228   0.775   2.462   4.876 -0.4718 -0.0085 -1.0453
 2181SOL    HW2 7229   0.664   2.542   4.810 -1.4900 -0.5760 -0.0541
 2182SOL     OW 7230   3.716   0.959   6.381 -0.2431 -0.1022 -0.3952
 2182SOL    HW1 7231   3.655   1.014   6.333  1.4152  0.8362 -1.5519
 2182SOL    HW2 7232   3.755   0.902   6.314  1.4127  0.5540 -0.0524
 2183SOL     OW 7233   4.547   5.668   4.532  0.2262 -0.1075 -0.2371
 2183SOL    HW1 7234   4.531   5.594   4.473 -1.1769 -0.6802  0.8045
 2183SOL    HW2 7235   4.623   5.642   4.583  0.3960 -0.3608 -0.6117
 2184SOL     OW 7236   0.265   6.455   0.703 -0.6499  0.0536  0.3254
 2184SOL    HW1 7237   0.352   6.417   0.689 -1.0206 -1.0534  0.8895
 2184SOL    HW2 7238   0.273   6.546   0.675 -0.2154 -0.8656 -2.9614
 2185SOL     OW 7239   1.868   2.003   3.888 -0.1340 -0.6607  0.6846
 2185SOL    HW1 7240   1.942   2.061   3.904  0.3223 -0.4839 -1.7324
 2185SOL    HW2 7241   1.791   2.055   3.910  0.2743  0.8294 -1.2016
 2186SOL     OW 7242   6.124   7.434   3.258  0.0305  0.4723 -0.4288
 2186SOL    HW1 7243   6.077   7.487   3.323  0.2472  0.7278 -0.4802
 2186SOL    HW2 7244   6.207   7.480   3.245  1.1475 -0.9575  1.1011
 2187SOL     OW 7245   0.563   7.612   0.552 -0.1777 -0.0066 -0.1648
 2187SOL    HW1 7246   0.513   7.590   0.474 -2.2417  2.5565  0.2790
 2187SOL    HW2 7247   0.532   7.550   0.619 -1.2726  0.2447 -0.4256
 2188SOL     OW 7248   4.536   7.490   3.352  0.2886 -0.1079  0.3029
 2188SOL    HW1 7249   4.625   7.459   3.339  1.6581  3.1172  0.9209
 2188SOL    HW2 7250   4.484   7.411   3.365  3.1673 -2.0687  0.7601
 2189SOL     OW 7251   7.326   1.726   1.480 -0.0018  0.3607 -0.8157
 2189SOL    HW1 7252   7.337   1.761   1.391  2.8079  0.0478 -0.6829
 2189SOL    HW2 7253   7.291   1.799   1.531 -0.3640  0.9551 -1.8904
 2190SOL     OW 7254   6.084   7.035   0.293  0.3219 -0.3386 -0.1207
 2190SOL    HW1 7255   6.019   7.019   0.224  0.0827 -0.0021  0.0209
 2190SOL    HW2 7256   6.055   7.117   0.333 -0.2248 -1.1272  1.1615
 2191SOL     OW 7257   1.729   5.866   1.726  0.6767 -0.0669 -0.7428
 2191SOL    HW1 7258   1.802   5.805   1.712 -0.4240 -1.2021 -1.8313
 2191SOL    HW2 7259   1.762   5.930   1.789  1.8623 -1.8467  0.5180
 2192SOL     OW 7260   0.786   2.982   0.023 -0.0694 -0.7044 -0.0895
 2192SOL    HW1 7261   0.748   3.060   0.063  0.6048 -0.5556  0.2710
 2192SOL    HW2 7262   0.875   2.976   0.060 -0.6808 -2.6248  1.2321
 2193SOL     OW 7263   0.649   1.735   5.569 -0.2589 -0.4901  0.5878
 2193SOL    HW1 7264   0.715   1.705   5.505 -0.0503  1.7399 -0.3151
 2193SOL    HW2 7265   0.685   1.816   5.605 -2.2512  0.5122  0.4616
 2194SOL     OW 7266   6.423   0.455   3.514 -0.1387 -0.3826 -0.2191
 2194SOL    HW1 7267   6.509   0.414   3.513 -0.5013 -1.1657 -0.3898
 2194SOL    HW2 7268   6.381   0.426   3.433 -0.0336  1.1877 -0.8658
 2195SOL     OW 7269   6.261   5.142   1.555  0.2031  0.0790 -0.1133
 2195SOL    HW1 7270   6.321   5.109   1.622  1.4341  0.9381 -0.7333
 2195SOL    HW2 7271   6.267   5.238   1.563  0.1986  0.1954 -1.2711
 2196SOL     OW 7272   2.468   6.573   3.939 -0.1264 -0.4503 -0.0999
 2196SOL    HW1 7273   2.510   6.573   3.853  0.5727  0.7576  0.2187
 2196SOL    HW2 7274   2.464   6.665   3.964  0.7542 -0.8453  1.6787
 2197SOL     OW 7275   0.642   1.234   3.589  0.0668 -0.3787  0.6688
 2197SOL    HW1 7276   0.702   1.258   3.518 -0.7381  3.6274  1.0607
 2197SOL    HW2 7277   0.565   1.198   3.544  0.4874 -0.0792 -0.3216
 2198SOL     OW 7278   6.180   7.233   5.372  0.6796  0.2652  0.1094
 2198SOL    HW1 7279   6.091   7.199   5.377  0.9048 -1.3846 -3.6199
 2198SOL    HW2 7280   6.235   7.159   5.398  1.0060  0.6192  0.4303
 2199SOL     OW 7281   1.957   0.186   1.191 -0.0420 -0.3430  0.4218
 2199SOL    HW1 7282   1.878   0.221   1.149  0.4139  2.2303  1.5149
 2199SOL    HW2 7283   1.939   0.093   1.204 -1.3362 -0.6622 -2.7839
 2200SOL     OW 7284   3.624   6.158   6.065  0.0572 -0.0668 -0.0925
 2200SOL    HW1 7285   3.704   6.206   6.044  1.9443 -3.2264 -0.7096
 2200SOL    HW2 7286   3.622   6.086   6.002 -2.5276 -0.9143  0.8369
 2201SOL     OW 7287   6.669   4.064   0.827 -0.3437 -0.0149 -0.2557
 2201SOL    HW1 7288   6.622   4.095   0.905 -1.5690  0.4203 -1.1398
 2201SOL    HW2 7289   6.609   4.080   0.755  0.9636  0.0349 -1.3693
 2202SOL     OW 7290   3.681   1.329   0.891  0.1404  0.1925  0.6798
 2202SOL    HW1 7291   3.670   1.263   0.822  1.2567  0.1846  0.4869
 2202SOL    HW2 7292   3.639   1.407   0.856  0.7048  0.1898 -0.0435
 2203SOL     OW 7293   2.857   6.489   5.894  0.1082 -0.6361 -0.0598
 2203SOL    HW1 7294   2.917   6.538   5.950 -0.0148  1.0901 -1.3215
 2203SOL    HW2 7295   2.874   6.524   5.806  0.2625 -3.1940 -1.1298
 2204SOL     OW 7296   0.309   1.549   6.066 -0.3810 -0.3847  0.2804
 2204SOL    HW1 7297   0.218   1.537   6.039 -0.2401  0.6407 -0.7006
 2204SOL    HW2 7298   0.361   1.518   5.992  0.0084  3.6886 -1.4114
 2205SOL     OW 7299   7.426   2.511   2.508 -0.2461  0.0506 -0.1067
 2205SOL    HW1 7300   7.469   2.448   2.566 -0.2196  1.2177  1.2056
 2205SOL    HW2 7301   7.350   2.464   2.473 -0.0183 -0.8298  0.5506
 2206SOL     OW 7302   6.978   7.390   7.375  0.0398  0.5997  0.2971
 2206SOL    HW1 7303   6.967   7.295   7.377  0.3590  0.5680  0.5693
 2206SOL    HW2 7304   6.998   7.409   7.283  1.0572  0.2740  0.4331
 2207SOL     OW 7305   7.505   3.204   6.317 -0.2461 -0.5611  0.3808
 2207SOL    HW1 7306   7.483   3.116   6.286 -0.0630 -0.8753  1.1005
 2207SOL    HW2 7307   7.441   3.221   6.387  1.8552 -1.6302  2.7428
 2208SOL     OW 7308   4.162   4.795   3.686 -0.1167  0.0473  0.2573
 2208SOL    HW1 7309   4.204   4.879   3.670  0.6444 -0.1349  1.1915
 2208SOL    HW2 7310   4.231   4.730   3.671 -0.4400 -0.3473  0.4572
 2209SOL     OW 7311   6.821   4.289   5.829 -0.0570 -0.2504  0.2509
 2209SOL    HW1 7312   6.784   4.295   5.917 -0.6875  0.4921 -0.0517
 2209SOL    HW2 7313   6.759   4.233   5.780 -0.9055  1.1156 -0.2962
 2210SOL     OW 7314   3.867   7.155   2.276 -0.2654  0.3578  0.0643
 2210SOL    HW1 7315   3.930   7.222   2.248 -0.5506  0.7287  0.2975
 2210SOL    HW2 7316   3.851   7.103   2.197 -0.3788  0.8414 -0.2433
 2211SOL     OW 7317   7.373   6.676   1.837  0.4785 -0.4102  0.4011
 2211SOL    HW1 7318   7.437   6.654   1.905  1.5723 -1.9251 -1.0328
 2211SOL    HW2 7319   7.318   6.598   1.829  0.3791 -0.2640 -0.4564
 2212SOL     OW 7320   4.218   6.039   3.143  0.1692 -0.4214  0.0654
 2212SOL    HW1 7321   4.124   6.022   3.148 -0.0711  0.1780 -1.8856
 2212SOL    HW2 7322   4.225   6.125   3.102  1.5392 -1.9935 -3.4129
 2213SOL     OW 7323   4.841   1.865   2.881 -0.2284  0.5010 -0.3473
 2213SOL    HW1 7324   4.921   1.905   2.846 -1.5400  2.6586 -1.0881
 2213SOL    HW2 7325   4.795   1.833   2.803 -0.1265 -0.7283  0.0745
 2214SOL     OW 7326   7.723   7.419   1.303 -0.3113  0.0347  0.5142
 2214SOL    HW1 7327   7.640   7.380   1.330 -1.1894 -0.0199 -1.9972
 2214SOL    HW2 7328   7.790   7.369   1.349 -1.6013 -1.1159  1.1925
 2215SOL     OW 7329   4.565   6.439   3.701  0.6935  0.1573  0.2301
 2215SOL    HW1 7330   4.623   6.407   3.632 -0.0376 -1.4210  0.3124
 2215SOL    HW2 7331   4.538   6.525   3.671  0.0576 -0.6560 -1.6808
 2216SOL     OW 7332   3.743   4.465   0.363 -0.0380 -0.3040 -0.4722
 2216SOL    HW1 7333   3.830   4.505   0.362 -1.0486  2.0925  0.3510
 2216SOL    HW2 7334   3.759   4.374   0.388  2.1444  0.3202  0.6701
 2217SOL     OW 7335   4.905   6.588   2.639 -0.7490 -0.2930  0.1609
 2217SOL    HW1 7336   4.985   6.544   2.671 -0.3680  1.7880  2.3458
 2217SOL    HW2 7337   4.933   6.677   2.619 -2.4383  0.3774  0.6060
 2218SOL     OW 7338   3.450   2.866   0.091  0.0202 -0.2624  0.2436
 2218SOL    HW1 7339   3.501   2.855   0.171  0.9177 -1.0559 -0.4136
 2218SOL    HW2 7340   3.489   2.942   0.047 -0.5224  0.2208  0.5889
 2219SOL     OW 7341   1.069   2.212   2.867  0.0329 -0.9631 -0.3342
 2219SOL    HW1 7342   1.142   2.187   2.811 -0.4766  0.2101 -1.5839
 2219SOL    HW2 7343   0.997   2.156   2.841  0.0667 -1.0997 -0.1402
 2220SOL     OW 7344   0.618   6.104   7.668  0.4645 -0.1251  0.3454
 2220SOL    HW1 7345   0.554   6.165   7.704  0.3328 -0.5280  0.7991
 2220SOL    HW2 7346   0.693   6.159   7.644 -1.0388  0.7676 -2.7332
 2221SOL     OW 7347   5.096   3.136   4.657  0.0260  0.0196 -0.1171
 2221SOL    HW1 7348   5.104   3.181   4.573  3.2612  1.6993  0.9325
 2221SOL    HW2 7349   5.186   3.113   4.681 -0.9619 -1.8424  2.1680
 2222SOL     OW 7350   7.392   2.226   0.711  0.3191 -0.2259 -0.0456
 2222SOL    HW1 7351   7.485   2.205   0.707  0.3620  0.0483 -0.6491
 2222SOL    HW2 7352   7.372   2.260   0.623 -0.0494  0.9304  0.4683
 2223SOL     OW 7353   3.643   4.441   4.773 -0.2167 -0.1750  0.3501
 2223SOL    HW1 7354   3.686   4.421   4.857 -0.5889  0.8014  0.7827
 2223SOL    HW2 7355   3.550   4.440   4.794 -0.3343 -0.4252 -0.1774
 2224SOL     OW 7356   0.624   5.592   3.229  0.2995  0.4702 -0.2666
 2224SOL    HW1 7357   0.662   5.679   3.243 -1.1251  0.9384  0.8575
 2224SOL    HW2 7358   0.562   5.604   3.158 -0.2250  0.4727  0.1912
 2225SOL     OW 7359   3.839   6.808   5.310  0.1218 -0.2421  0.1526
 2225SOL    HW1 7360   3.813   6.865   5.238  0.9409 -1.1590 -0.9148
 2225SOL    HW2 7361   3.934   6.819   5.316  0.0730 -0.2271  1.0685
 2226SOL     OW 7362   4.964   5.795   4.150  0.0985  0.1317 -0.3989
 2226SOL    HW1 7363   4.948   5.701   4.151 -0.9876  0.2909 -0.9711
 2226SOL    HW2 7364   4.893   5.832   4.202  0.7929  0.6114  0.2300
 2227SOL     OW 7365   0.663   5.244   0.792  0.3659 -0.5233 -0.4321
 2227SOL    HW1 7366   0.711   5.171   0.831  1.2409  0.2696  0.0194
 2227SOL    HW2 7367   0.650   5.306   0.865 -0.3553 -0.2209 -0.8068
 2228SOL     OW 7368   7.196   4.962   5.117  0.4614  0.0094 -0.4580
 2228SOL    HW1 7369   7.173   4.869   5.122 -0.0804  0.2029  1.0124
 2228SOL    HW2 7370   7.263   4.974   5.185  0.2284  0.7764 -0.3554
 2229SOL     OW 7371   5.852   6.303   4.821 -0.2660  0.7690  0.7581
 2229SOL    HW1 7372   5.882   6.299   4.912 -2.2108  0.4641  1.4216
 2229SOL    HW2 7373   5.785   6.371   4.821 -2.3464 -1.1815  0.2078
 2230SOL     OW 7374   6.170   7.767   3.809  0.3602 -0.5890  0.1157
 2230SOL    HW1 7375   6.098   7.705   3.819 -0.2808  0.3641  1.8329
 2230SOL    HW2 7376   6.139   7.829   3.743  0.7026 -1.6254 -1.0598
 2231SOL     OW 7377   7.667   0.484   0.688 -0.0838  0.8136  0.3794
 2231SOL    HW1 7378   7.677   0.413   0.625 -1.4068  0.4092  0.6003
 2231SOL    HW2 7379   7.757   0.506   0.714  0.3698 -0.4229 -0.0828
 2232SOL     OW 7380   0.509   0.023   7.231  0.5394  0.0498  0.3850
 2232SOL    HW1 7381   0.507  -0.009   7.141  0.3967  2.1270 -0.4014
 2232SOL    HW2 7382   0.520  -0.056   7.284  1.7363 -1.1236 -1.4850
 2233SOL     OW 7383   2.538   1.398   1.945  0.0157  0.5393 -0.0503
 2233SOL    HW1 7384   2.583   1.468   1.992  0.3450  0.0027  0.4655
 2233SOL    HW2 7385   2.485   1.355   2.012  1.6319 -1.1791  0.2168
 2234SOL     OW 7386   1.527   0.806   3.624  0.5244  0.0912 -0.2464
 2234SOL    HW1 7387   1.585   0.882   3.613  0.3638  0.2336 -0.1016
 2234SOL    HW2 7388   1.557   0.764   3.704 -1.2507  1.6555  1.3074
 2235SOL     OW 7389   2.349   3.457   3.660  0.2497  0.0031  0.1810
 2235SOL    HW1 7390   2.435   3.434   3.623  0.8774  0.5420  1.2735
 2235SOL    HW2 7391   2.324   3.381   3.712 -0.4252 -0.5705 -0.9490
 2236SOL     OW 7392   3.185   3.906   5.784  0.1176 -0.2602  0.1324
 2236SOL    HW1 7393   3.259   3.850   5.808  0.8032  0.6790  0.2597
 2236SOL    HW2 7394   3.146   3.863   5.708  0.8498 -0.7098 -0.0000
 2237SOL     OW 7395   0.711   1.716   2.738  0.0732  0.2372  0.1832
 2237SOL    HW1 7396   0.760   1.795   2.715  0.1210 -0.0379 -0.7091
 2237SOL    HW2 7397   0.636   1.747   2.788  0.9507  0.7036  1.2380
 2238SOL     OW 7398   1.279   7.558   2.434  0.2511 -0.2673  0.7506
 2238SOL    HW1 7399   1.301   7.599   2.350 -0.0694  0.2572  0.9137
 2238SOL    HW2 7400   1.221   7.486   2.412  0.2019 -0.1558  0.5159
 2239SOL     OW 7401   4.589   0.423   5.313 -0.4159  0.2578 -0.5103
 2239SOL    HW1 7402   4.612   0.399   5.224 -1.3117 -0.7709 -0.4842
 2239SOL    HW2 7403   4.502   0.384   5.327 -0.2672  0.3548  0.8173
 2240SOL     OW 7404   4.353   4.732   5.188  0.7964  0.8034  0.4205
 2240SOL    HW1 7405   4.409   4.676   5.135 -1.1836  0.5214 -1.5000
 2240SOL    HW2 7406   4.413   4.776   5.248  2.8708 -0.4759 -0.6135
 2241SOL     OW 7407   4.957   0.021   1.573 -0.1838 -0.0033  0.2334
 2241SOL    HW1 7408   4.875  -0.004   1.616 -0.1762 -1.5150 -0.5620
 2241SOL    HW2 7409   4.930   0.080   1.502 -0.6266 -0.6428 -0.1440
 2242SOL     OW 7410   2.062   3.669   4.068  0.1578  0.2244  0.2471
 2242SOL    HW1 7411   1.989   3.683   4.008 -0.0437  2.7509  0.9600
 2242SOL    HW2 7412   2.133   3.638   4.012 -0.6097  0.5612 -0.9581
 2243SOL     OW 7413   4.150   6.198   1.111 -0.1625  0.3778  0.1275
 2243SOL    HW1 7414   4.245   6.190   1.112 -0.2457 -0.7578  0.2882
 2243SOL    HW2 7415   4.127   6.226   1.200  0.0511  1.1878 -0.0651
 2244SOL     OW 7416   2.300   0.452   3.364  0.2865 -0.3097  0.3629
 2244SOL    HW1 7417   2.223   0.477   3.414 -0.3514 -0.3521 -0.5771
 2244SOL    HW2 7418   2.361   0.525   3.374 -0.5085  0.4407 -0.1938
 2245SOL     OW 7419   7.021   6.591   3.650 -0.2734  0.1746 -0.2196
 2245SOL    HW1 7420   6.972   6.529   3.597  0.9420  0.4916 -1.7803
 2245SOL    HW2 7421   7.076   6.638   3.588 -0.5930  2.3239  0.9907
 2246SOL     OW 7422   6.496   4.356   2.116  0.4206  0.7836  0.2785
 2246SOL    HW1 7423   6.537   4.336   2.200 -3.2617 -3.5662  1.4868
 2246SOL    HW2 7424   6.520   4.282   2.060  1.0418  2.5139 -1.8789
 2247SOL     OW 7425   7.717   3.300   3.794 -0.1002 -0.0526 -0.1061
 2247SOL    HW1 7426   7.638   3.328   3.750 -0.4283  0.8347  1.0100
 2247SOL    HW2 7427   7.746   3.223   3.745 -1.5607 -0.3020 -0.6221
 2248SOL     OW 7428   3.238   6.788   3.150 -0.4479 -0.3686 -0.5579
 2248SOL    HW1 7429   3.273   6.731   3.082  1.2177 -0.1941  0.1094
 2248SOL    HW2 7430   3.153   6.817   3.116 -0.2503 -1.3418 -1.9455
 2249SOL     OW 7431   7.344   6.685   0.465 -0.1020  0.0732  0.1085
 2249SOL    HW1 7432   7.352   6.660   0.373 -0.0998 -0.1462  0.1671
 2249SOL    HW2 7433   7.397   6.620   0.512 -1.7747 -1.1008  0.4587
 2250SOL     OW 7434   3.850   1.383   1.111  0.3605 -0.5651  0.3170
 2250SOL    HW1 7435   3.794   1.368   1.035  0.1014  1.7173 -0.0052
 2250SOL    HW2 7436   3.823   1.317   1.174 -0.2495 -1.7409 -1.1243
 2251SOL     OW 7437   0.200   2.718   5.440  0.2663  0.3517  0.9452
 2251SOL    HW1 7438   0.113   2.678   5.451  0.9862 -0.8985  2.4075
 2251SOL    HW2 7439   0.250   2.654   5.389  0.1909  1.3381 -0.4302
 2252SOL     OW 7440   1.457   0.762   6.658 -0.1692  0.4959 -0.3414
 2252SOL    HW1 7441   1.467   0.848   6.698  0.0424  0.5795 -0.5743
 2252SOL    HW2 7442   1.383   0.722   6.706 -0.0792  0.6880 -0.0373
 2253SOL     OW 7443   4.157   6.982   5.948 -0.5153 -0.1843 -0.0795
 2253SOL    HW1 7444   4.115   6.944   6.025 -0.6054  1.2252  0.6141
 2253SOL    HW2 7445   4.087   6.993   5.885 -0.4300 -1.4089 -0.3937
 2254SOL     OW 7446   2.811   0.985   5.647  0.3930 -0.3309  0.2072
 2254SOL    HW1 7447   2.760   0.922   5.597  1.4437 -0.6013 -0.5573
 2254SOL    HW2 7448   2.768   1.069   5.632 -0.9295 -0.8248  1.1181
 2255SOL     OW 7449   3.289   3.971   4.999 -0.5039 -0.4382  0.0924
 2255SOL    HW1 7450   3.290   4.018   4.915 -1.9381  0.0649  0.3127
 2255SOL    HW2 7451   3.333   3.889   4.981  1.2129  0.5702 -0.5657
 2256SOL     OW 7452   1.590   7.450   2.618  0.1794 -0.0028  0.4222
 2256SOL    HW1 7453   1.540   7.454   2.699  1.9361  1.1301  1.5027
 2256SOL    HW2 7454   1.679   7.425   2.645  0.5562 -0.6269 -1.2719
 2257SOL     OW 7455   3.892   1.422   6.706  0.2806 -0.1627 -1.2956
 2257SOL    HW1 7456   3.801   1.410   6.735  0.9505 -0.8839  0.7078
 2257SOL    HW2 7457   3.900   1.517   6.694 -0.0013  0.3205  1.4667
 2258SOL     OW 7458   6.741   6.598   1.899 -0.0683  0.2432 -0.1331
 2258SOL    HW1 7459   6.793   6.617   1.977  0.5033 -0.4742 -0.3311
 2258SOL    HW2 7460   6.666   6.656   1.906 -0.9403 -1.0229  1.8498
 2259SOL     OW 7461   4.886   2.681   1.971 -0.5215 -0.1700  0.8637
 2259SOL    HW1 7462   4.943   2.641   2.037 -1.0236 -0.4833  1.1177
 2259SOL    HW2 7463   4.945   2.725   1.911  0.1749 -2.4063 -0.1803
 2260SOL     OW 7464   6.607   7.175   1.877 -0.2663 -0.3289  0.0033
 2260SOL    HW1 7465   6.667   7.248   1.891  0.4980 -1.2417  1.7577
 2260SOL    HW2 7466   6.577   7.151   1.964 -1.7613 -1.1009 -0.6751
 2261SOL     OW 7467   1.346   5.167   7.582 -0.3980 -0.1494  0.5113
 2261SOL    HW1 7468   1.354   5.219   7.662  0.4180  1.2640 -0.4626
 2261SOL    HW2 7469   1.433   5.130   7.568 -0.7566 -1.1205  0.7220
 2262SOL     OW 7470   7.727   5.794   2.512 -0.0750 -0.4613  0.1837
 2262SOL    HW1 7471   7.780   5.835   2.444 -0.8081 -0.0276 -0.1369
 2262SOL    HW2 7472   7.776   5.808   2.592  0.3324 -0.1291 -0.1189
 2263SOL     OW 7473   3.334   1.778   0.467 -0.1761 -0.7434 -0.7350
 2263SOL    HW1 7474   3.289   1.695   0.453 -0.7893 -0.5293 -0.0947
 2263SOL    HW2 7475   3.403   1.779   0.401  0.9462 -2.5500  0.2887
 2264SOL     OW 7476   5.210   5.329   7.317 -0.1720  0.0138 -0.5210
 2264SOL    HW1 7477   5.280   5.351   7.255 -0.7189 -4.8193 -3.3854
 2264SOL    HW2 7478   5.251   5.271   7.380 -0.4140  2.1689  1.7694
 2265SOL     OW 7479   3.816   0.933   5.099  0.3287 -0.0054 -0.1989
 2265SOL    HW1 7480   3.850   0.981   5.175  2.5419 -0.2569 -0.9787
 2265SOL    HW2 7481   3.821   0.995   5.027 -3.6960  0.9485  0.0842
 2266SOL     OW 7482   0.980   6.256   5.792 -0.4163 -0.0745 -0.0267
 2266SOL    HW1 7483   0.990   6.171   5.749  1.6568  0.5122 -0.8073
 2266SOL    HW2 7484   0.948   6.314   5.723  1.2894  0.4759 -0.4113
 2267SOL     OW 7485   5.086   0.411   1.902 -0.4757 -0.6814 -0.0268
 2267SOL    HW1 7486   5.122   0.347   1.841 -0.9835  0.4218 -1.5210
 2267SOL    HW2 7487   5.157   0.427   1.965 -0.2423 -2.4607  0.2179
 2268SOL     OW 7488   4.531   3.855   1.917 -0.6003 -0.2281  0.3046
 2268SOL    HW1 7489   4.545   3.873   2.010  1.2215  1.4583 -0.2200
 2268SOL    HW2 7490   4.468   3.921   1.889 -2.1726 -1.5622  0.5683
 2269SOL     OW 7491   3.843   6.298   2.400 -0.7576 -0.1969  0.3728
 2269SOL    HW1 7492   3.850   6.229   2.467 -2.7357  0.4228  1.3047
 2269SOL    HW2 7493   3.792   6.367   2.443  1.2939  1.9634 -0.4638
 2270SOL     OW 7494   0.678   2.645   7.043 -0.3324 -0.8192  0.1360
 2270SOL    HW1 7495   0.717   2.714   7.097  2.3508 -1.0031 -1.3924
 2270SOL    HW2 7496   0.585   2.669   7.037  0.2208  1.8272  0.8349
 2271SOL     OW 7497   0.873   4.699   1.193  0.7406  1.0246 -0.5950
 2271SOL    HW1 7498   0.802   4.645   1.158  1.9347 -1.8545  1.0699
 2271SOL    HW2 7499   0.945   4.686   1.131  0.6847  1.6634 -0.7965
 2272SOL     OW 7500   3.219   7.575   7.362 -0.0584  0.1314 -0.0316
 2272SOL    HW1 7501   3.128   7.549   7.371  0.3111 -0.7381  1.5836
 2272SOL    HW2 7502   3.253   7.575   7.452  1.1207  2.0122 -0.4146
 2273SOL     OW 7503   0.643   1.696   5.870  0.5045  0.2494 -0.4201
 2273SOL    HW1 7504   0.724   1.746   5.876  1.1893 -0.6410 -1.7708
 2273SOL    HW2 7505   0.615   1.705   5.779 -0.7646  0.3073 -0.0463
 2274SOL     OW 7506   1.507   6.644   5.250  0.3582 -0.2884  0.2902
 2274SOL    HW1 7507   1.533   6.704   5.180  0.2992 -0.6475 -0.0445
 2274SOL    HW2 7508   1.565   6.666   5.323  1.5022 -0.9622 -0.3881
 2275SOL     OW 7509   2.217   1.910   2.003 -0.0918 -0.2404 -0.0824
 2275SOL    HW1 7510   2.245   1.848   1.935 -2.4604  0.6077 -1.9524
 2275SOL    HW2 7511   2.123   1.921   1.988 -0.6851  0.1823  3.2442
 2276SOL     OW 7512   5.740   0.541   4.676  0.2768  0.1211  0.7781
 2276SOL    HW1 7513   5.681   0.615   4.668 -0.2685 -0.4228 -0.3577
 2276SOL    HW2 7514   5.813   0.561   4.616  0.5165  0.1032  1.0601
 2277SOL     OW 7515   1.803   0.805   4.185 -0.4198 -0.3222 -0.0673
 2277SOL    HW1 7516   1.771   0.738   4.246  0.3413 -0.4264  0.2217
 2277SOL    HW2 7517   1.878   0.844   4.229 -0.7762  0.6499 -0.2841
 2278SOL     OW 7518   4.763   4.419   1.957 -0.3562 -0.2050  0.1947
 2278SOL    HW1 7519   4.813   4.426   2.038  0.1654  3.6451 -0.2611
 2278SOL    HW2 7520   4.799   4.488   1.901 -2.9031 -0.5505 -2.0615
 2279SOL     OW 7521   4.925   1.367   4.679 -0.3077  0.1129 -0.1160
 2279SOL    HW1 7522   4.876   1.288   4.653 -0.6395  0.6190 -1.0985
 2279SOL    HW2 7523   4.931   1.418   4.598 -2.1522  2.2072  0.9536
 2280SOL     OW 7524   5.020   3.425   7.408 -0.3081 -0.6484 -0.1738
 2280SOL    HW1 7525   5.010   3.407   7.502 -1.2682 -0.3760 -0.2167
 2280SOL    HW2 7526   4.933   3.452   7.379  0.5438  2.1147 -0.5321
 2281SOL     OW 7527   4.640   1.477   0.980 -1.1401  0.1200  0.1507
 2281SOL    HW1 7528   4.574   1.487   1.049  0.0649 -1.3169  1.6029
 2281SOL    HW2 7529   4.666   1.567   0.959 -0.6598  0.6066  2.5123
 2282SOL     OW 7530   0.255   7.230   5.951 -0.5488 -0.3061 -0.2915
 2282SOL    HW1 7531   0.182   7.257   6.007  0.0514 -1.3193  1.0378
 2282SOL    HW2 7532   0.332   7.237   6.008  0.3274  0.2227 -1.5077
 2283SOL     OW 7533   6.239   6.904   3.317 -0.2672  0.1716  0.0833
 2283SOL    HW1 7534   6.250   6.995   3.288 -0.9160  1.1307  2.5614
 2283SOL    HW2 7535   6.325   6.865   3.306  0.1680  1.2443 -0.5142
 2284SOL     OW 7536   5.610   1.514   2.464  0.0862 -0.0466 -0.3118
 2284SOL    HW1 7537   5.521   1.544   2.486  0.6366  1.1751  0.3028
 2284SOL    HW2 7538   5.620   1.535   2.371 -0.3683 -0.4819 -0.4688
 2285SOL     OW 7539   7.130   1.523   0.805 -0.1227 -0.5174  0.3825
 2285SOL    HW1 7540   7.086   1.605   0.825  0.4028 -0.3081  0.7072
 2285SOL    HW2 7541   7.162   1.491   0.890  0.8937 -0.3417  0.0821
 2286SOL     OW 7542   6.904   2.822   2.819  0.6147  0.1174 -0.2827
 2286SOL    HW1 7543   6.823   2.861   2.787  0.9808  0.1467 -1.2213
 2286SOL    HW2 7544   6.954   2.804   2.739  0.8950 -1.2872  0.1874
 2287SOL     OW 7545   4.417   2.742   2.541 -0.0661 -0.5052  0.0066
 2287SOL    HW1 7546   4.412   2.760   2.635 -0.3180 -1.5791  0.2075
 2287SOL    HW2 7547   4.371   2.815   2.501  0.9319  0.5114  0.6475
 2288SOL     OW 7548   2.159   4.803   7.115 -0.2111  0.5267 -0.0674
 2288SOL    HW1 7549   2.078   4.767   7.151  0.2873  0.3888  0.9502
 2288SOL    HW2 7550   2.222   4.731   7.120  0.2111  0.8923 -0.0319
 2289SOL     OW 7551   4.157   3.323   6.879  0.3236  0.0568  0.5568
 2289SOL    HW1 7552   4.167   3.369   6.796 -0.6208 -0.6373  0.0471
 2289SOL    HW2 7553   4.247   3.308   6.908  0.6560  1.3221  0.2459
 2290SOL     OW 7554   4.360   5.931   0.626  0.0507 -0.0476 -0.4866
 2290SOL    HW1 7555   4.298   5.899   0.560  0.2135 -0.5306 -0.4109
 2290SOL    HW2 7556   4.359   6.026   0.615 -0.2520 -0.0913 -0.8922
 2291SOL     OW 7557   0.873   3.328   4.700  0.0458  0.0994  0.0315
 2291SOL    HW1 7558   0.831   3.290   4.623 -0.4455 -0.0752  0.3823
 2291SOL    HW2 7559   0.920   3.404   4.667  0.2179 -0.2362 -0.5161
 2292SOL     OW 7560   6.667   5.805   2.043  0.1846 -0.0756  0.0627
 2292SOL    HW1 7561   6.573   5.816   2.060 -0.1560  2.9091 -2.7032
 2292SOL    HW2 7562   6.686   5.714   2.066 -3.0505 -0.4219  1.9379
 2293SOL     OW 7563   1.844   2.870   2.478 -0.3522  0.6941 -0.0444
 2293SOL    HW1 7564   1.825   2.795   2.534  1.3338 -0.4384 -0.9140
 2293SOL    HW2 7565   1.818   2.842   2.390 -1.0424  1.6872 -0.1824
 2294SOL     OW 7566   3.208   0.637   1.271 -0.5243  0.4395  0.3324
 2294SOL    HW1 7567   3.242   0.711   1.221  0.2543  0.6842  1.1764
 2294SOL    HW2 7568   3.122   0.620   1.235  0.2307  0.2298 -1.4595
 2295SOL     OW 7569   2.888   0.411   5.590  0.3029  0.0765 -0.0690
 2295SOL    HW1 7570   2.845   0.411   5.505  1.0676 -0.7827 -0.4809
 2295SOL    HW2 7571   2.947   0.486   5.588  0.1319  0.2049 -0.2015
 2296SOL     OW 7572   3.359   5.198   1.233  0.1430 -0.6204  0.7747
 2296SOL    HW1 7573   3.422   5.270   1.228 -1.2390  0.5878  0.3829
 2296SOL    HW2 7574   3.289   5.231   1.288 -0.1491 -1.9824  1.2585
 2297SOL     OW 7575   2.234   5.501   3.051 -0.4353  0.0360 -0.6604
 2297SOL    HW1 7576   2.195   5.479   3.136 -0.5565 -2.4185 -1.2757
 2297SOL    HW2 7577   2.211   5.593   3.037 -1.6816  0.0721  1.2661
 2298SOL     OW 7578   3.236   1.404   3.449 -0.0013  0.3846  0.3694
 2298SOL    HW1 7579   3.304   1.460   3.486  1.6270 -0.7130 -0.7944
 2298SOL    HW2 7580   3.268   1.383   3.362 -0.6916 -2.0446  0.6343
 2299SOL     OW 7581   3.889   3.891   1.971  0.3119 -0.3048 -0.6051
 2299SOL    HW1 7582   3.933   3.961   2.019  0.3786  0.9036 -2.3420
 2299SOL    HW2 7583   3.806   3.880   2.016  0.8173  0.0153  0.4435
 2300SOL     OW 7584   0.326   2.703   5.082  0.2815  0.6224  0.2097
 2300SOL    HW1 7585   0.418   2.686   5.065  0.2712 -0.2283  0.9052
 2300SOL    HW2 7586   0.324   2.792   5.117  1.0120  0.2114  1.3620
 2301SOL     OW 7587   5.668   6.736   7.704  0.0619 -0.1394 -0.3870
 2301SOL    HW1 7588   5.606   6.808   7.691  0.5465  0.0871 -1.5720
 2301SOL    HW2 7589   5.642   6.696   7.787  0.7490  2.3863  1.1519
 2302SOL     OW 7590   0.818   5.416   5.119  0.1152 -0.0885 -0.3145
 2302SOL    HW1 7591   0.835   5.375   5.034 -1.3512  1.1870 -1.2809
 2302SOL    HW2 7592   0.869   5.496   5.118 -1.8108  1.2135 -1.1270
 2303SOL     OW 7593   1.531   0.477   2.153 -0.1222 -0.0756 -0.2689
 2303SOL    HW1 7594   1.495   0.560   2.122 -1.3598 -1.0624 -1.6150
 2303SOL    HW2 7595   1.624   0.496   2.168 -0.1005  1.2441 -1.7608
 2304SOL     OW 7596   4.174   1.357   4.956  0.2611 -0.8681  0.3823
 2304SOL    HW1 7597   4.197   1.268   4.932  1.8083 -0.4370  0.1290
 2304SOL    HW2 7598   4.136   1.349   5.044 -1.0803 -1.9151 -0.2532
 2305SOL     OW 7599   3.920   2.165   3.632 -0.6367 -0.2839 -0.6444
 2305SOL    HW1 7600   3.902   2.174   3.726 -0.6943  0.1067 -0.6889
 2305SOL    HW2 7601   3.972   2.243   3.610 -1.1972 -0.0235 -1.0724
 2306SOL     OW 7602   2.516   4.213   5.727  0.0563  0.5952  0.1598
 2306SOL    HW1 7603   2.547   4.129   5.693 -0.9820  0.6404 -0.9256
 2306SOL    HW2 7604   2.575   4.231   5.801  0.2846 -1.0884  0.4426
 2307SOL     OW 7605   6.342   1.062   5.906 -0.3831  0.0066  0.2083
 2307SOL    HW1 7606   6.328   0.968   5.914 -0.1355 -0.1701 -1.1412
 2307SOL    HW2 7607   6.279   1.091   5.840 -1.1901  0.9975  1.3749
 2308SOL     OW 7608   4.353   6.253   2.436  0.1584 -0.2385 -0.7664
 2308SOL    HW1 7609   4.313   6.182   2.486 -1.1571  1.5153  0.8209
 2308SOL    HW2 7610   4.299   6.261   2.358 -1.0389  0.4042  0.1029
 2309SOL     OW 7611   3.606   0.884   3.903  0.0240  0.0230 -0.3830
 2309SOL    HW1 7612   3.587   0.917   3.814 -0.2021  1.3062  0.1094
 2309SOL    HW2 7613   3.649   0.800   3.889 -2.8331 -1.3669 -1.6648
 2310SOL     OW 7614   5.069   1.801   0.784 -0.0842 -0.3040 -0.3342
 2310SOL    HW1 7615   5.076   1.896   0.774  0.1498 -0.3162 -0.2846
 2310SOL    HW2 7616   5.157   1.769   0.767 -0.5988 -0.7218 -2.6187
 2311SOL     OW 7617   0.899   2.920   0.703  0.3626  0.2532  1.0277
 2311SOL    HW1 7618   0.957   2.957   0.770  1.0980 -1.3106  1.3025
 2311SOL    HW2 7619   0.838   2.990   0.683  1.2128  1.3406  2.0764
 2312SOL     OW 7620   1.286   6.896   2.611 -0.0217  0.5588 -0.3372
 2312SOL    HW1 7621   1.372   6.922   2.645  0.2142  0.1183 -0.5980
 2312SOL    HW2 7622   1.228   6.968   2.637 -0.1042 -0.2367  1.9682
 2313SOL     OW 7623   2.829   2.009   1.610  0.4012  0.0768 -0.5097
 2313SOL    HW1 7624   2.736   2.007   1.632  0.2336  0.1721 -1.1745
 2313SOL    HW2 7625   2.847   2.102   1.594  0.6232  0.0637 -0.3378
 2314SOL     OW 7626   2.132   5.689   4.736  0.0503  0.2863  0.7624
 2314SOL    HW1 7627   2.201   5.704   4.672 -0.3552  0.4256  0.3616
 2314SOL    HW2 7628   2.053   5.676   4.685 -0.1201 -0.4844  1.1934
 2315SOL     OW 7629   5.309   4.993   1.759  0.2866 -0.1765 -0.1405
 2315SOL    HW1 7630   5.325   5.059   1.827  0.5667  0.0030 -0.3769
 2315SOL    HW2 7631   5.373   4.924   1.777 -2.1078 -1.9692  2.0929
 2316SOL     OW 7632   2.119   1.446   3.056  0.0721  0.2176  0.0034
 2316SOL    HW1 7633   2.092   1.359   3.087  0.9675  0.2694  0.9964
 2316SOL    HW2 7634   2.210   1.434   3.029  0.0862  0.7647 -0.1839
 2317SOL     OW 7635   0.357   1.906   4.517 -0.0419 -0.3231  0.5037
 2317SOL    HW1 7636   0.353   1.899   4.422  0.4857  0.3244  0.4297
 2317SOL    HW2 7637   0.386   1.819   4.546  1.0599 -0.1481 -0.0228
 2318SOL     OW 7638   7.056   5.683   2.819  0.5370  0.1787 -0.6417
 2318SOL    HW1 7639   6.961   5.687   2.830  0.2546 -1.2988 -2.0768
 2318SOL    HW2 7640   7.089   5.758   2.868 -1.2456 -0.0999  1.1390
 2319SOL     OW 7641   3.894   1.443   2.336 -0.1609  0.0794  0.0329
 2319SOL    HW1 7642   3.870   1.354   2.365  0.0675 -0.7502 -2.1380
 2319SOL    HW2 7643   3.840   1.458   2.258  1.0425  1.1453 -0.6307
 2320SOL     OW 7644   1.838   1.723   1.482 -0.5079 -0.3061 -0.2322
 2320SOL    HW1 7645   1.901   1.792   1.459 -1.6588  1.1377  0.7943
 2320SOL    HW2 7646   1.845   1.715   1.577  0.1635 -2.2179 -0.3927
 2321SOL     OW 7647   6.955   1.279   5.495  0.8243  0.1272 -0.1380
 2321SOL    HW1 7648   7.010   1.222   5.441  1.3341 -1.3521  1.8298
 2321SOL    HW2 7649   6.907   1.218   5.552  0.0472  1.5887  0.8263
 2322SOL     OW 7650   7.343   4.826   6.009  0.0539 -0.1901 -0.4043
 2322SOL    HW1 7651   7.352   4.774   6.089 -0.2901  0.4936  0.0988
 2322SOL    HW2 7652   7.248   4.829   5.993  0.1783 -1.0833 -1.3645
 2323SOL     OW 7653   3.684   7.452   6.544  0.2642 -0.1850  0.0162
 2323SOL    HW1 7654   3.615   7.385   6.551  0.3074 -0.0802  2.5672
 2323SOL    HW2 7655   3.638   7.534   6.560  0.9777 -0.1713  2.4060
 2324SOL     OW 7656   5.082   2.080   6.040 -0.1680  0.4370 -0.2448
 2324SOL    HW1 7657   5.126   2.052   5.959 -0.2912 -1.4589  0.3032
 2324SOL    HW2 7658   5.151   2.123   6.090  0.3073  0.2159 -0.6921
 2325SOL     OW 7659   1.923   7.593   6.157  0.0360  0.8658  0.5178
 2325SOL    HW1 7660   1.830   7.611   6.144  0.3353  2.3486  0.3548
 2325SOL    HW2 7661   1.960   7.592   6.069 -0.0290 -1.0870  0.4690
 2326SOL     OW 7662   1.892   4.977   5.657 -0.0593  0.0200  0.1783
 2326SOL    HW1 7663   1.980   4.992   5.624 -0.4934 -0.7087 -1.3801
 2326SOL    HW2 7664   1.900   4.990   5.752  1.5200  0.7947 -0.0256
 2327SOL     OW 7665   0.279   5.118   7.486 -0.4508  0.2156  0.3196
 2327SOL    HW1 7666   0.346   5.130   7.554 -0.4874 -0.4578  0.4855
 2327SOL    HW2 7667   0.320   5.149   7.406 -0.9069  2.4020  0.8655
 2328SOL     OW 7668   2.782   1.051   3.602  0.0356 -0.3140 -0.8884
 2328SOL    HW1 7669   2.863   1.095   3.629  1.2229 -2.4560 -0.6776
 2328SOL    HW2 7670   2.777   1.066   3.507 -0.4363  1.5068 -0.5950
 2329SOL     OW 7671   5.169   4.293   1.272  0.2363 -0.3384  0.3464
 2329SOL    HW1 7672   5.166   4.242   1.191  2.4409  0.7412 -0.5230
 2329SOL    HW2 7673   5.086   4.274   1.316 -1.1721 -0.7383 -2.2798
 2330SOL     OW 7674   2.233   2.126   1.228  0.4343 -0.1997 -0.8517
 2330SOL    HW1 7675   2.244   2.036   1.260 -0.3358 -0.1732 -0.4968
 2330SOL    HW2 7676   2.156   2.123   1.172  0.6128  0.1723 -1.1211
 2331SOL     OW 7677   5.547   7.622   2.441 -0.0820  0.1712 -0.0792
 2331SOL    HW1 7678   5.550   7.573   2.359  0.6578 -0.2008  0.1621
 2331SOL    HW2 7679   5.609   7.576   2.498 -2.1171 -0.9078  1.4023
 2332SOL     OW 7680   0.841   7.647   0.855 -0.1835 -0.3250 -0.2871
 2332SOL    HW1 7681   0.859   7.553   0.844  2.2117  0.0930 -0.4872
 2332SOL    HW2 7682   0.904   7.691   0.798 -0.8714  1.4266  0.2332
 2333SOL     OW 7683   0.691   4.780   6.723 -0.0503  0.2398  0.2955
 2333SOL    HW1 7684   0.638   4.859   6.731 -0.1198  0.1235  1.0708
 2333SOL    HW2 7685   0.651   4.732   6.650 -1.4062 -0.1159  1.2342
 2334SOL     OW 7686   4.270   5.497   0.098 -0.2462  0.0408 -0.5151
 2334SOL    HW1 7687   4.304   5.557   0.032 -1.5832  0.2194 -1.0555
 2334SOL    HW2 7688   4.197   5.452   0.056  0.2705 -1.4778  0.1111
 2335SOL     OW 7689   5.231   5.014   5.209  0.2943 -0.1811 -0.0092
 2335SOL    HW1 7690   5.138   5.001   5.186  0.8898 -0.8315 -2.3659
 2335SOL    HW2 7691   5.238   5.107   5.228 -0.4015  0.4593 -2.4754
 2336SOL     OW 7692   4.379   7.167   7.117 -0.5459  0.3171 -0.3663
 2336SOL    HW1 7693   4.354   7.258   7.106 -1.4535 -0.0638 -1.7889
 2336SOL    HW2 7694   4.303   7.126   7.160 -0.0421  0.2580  0.5036
 2337SOL     OW 7695   7.583   6.665   2.443 -0.1270  0.6035 -0.4871
 2337SOL    HW1 7696   7.664   6.616   2.427 -0.3109  0.2593 -0.3782
 2337SOL    HW2 7697   7.611   6.743   2.491  0.0721  0.1791  0.1000
 2338SOL     OW 7698   5.275   5.605   4.630  0.2402  0.3837  0.0250
 2338SOL    HW1 7699   5.365   5.638   4.630  0.1490  0.6551  0.8006
 2338SOL    HW2 7700   5.256   5.589   4.723 -0.2896 -0.2830 -0.1920
 2339SOL     OW 7701   1.377   2.555   3.858  0.5023  0.5182 -0.0648
 2339SOL    HW1 7702   1.427   2.626   3.897 -0.8370  0.7088  1.3906
 2339SOL    HW2 7703   1.368   2.491   3.929  0.8222 -0.6533 -1.0538
 2340SOL     OW 7704   7.241   0.705   7.105  0.4058 -0.0520 -0.3871
 2340SOL    HW1 7705   7.264   0.755   7.026  1.3818  1.0464  0.5509
 2340SOL    HW2 7706   7.233   0.772   7.173  1.2629 -1.1280  0.8065
 2341SOL     OW 7707   0.867   4.186   4.558  0.4609  0.0518  0.0185
 2341SOL    HW1 7708   0.791   4.132   4.583  0.3496  0.6888  1.1566
 2341SOL    HW2 7709   0.934   4.122   4.532  0.3125 -0.6707  1.2742
 2342SOL     OW 7710   6.847   4.059   7.579  0.0977  0.0295 -0.1572
 2342SOL    HW1 7711   6.857   4.089   7.669  2.4889  1.5561 -0.8197
 2342SOL    HW2 7712   6.767   4.007   7.579 -2.0113  2.9301  2.0829
 2343SOL     OW 7713   0.585   4.462   3.327 -0.4590  0.0417  0.1629
 2343SOL    HW1 7714   0.523   4.533   3.343  0.0679  0.5700 -0.1163
 2343SOL    HW2 7715   0.663   4.486   3.377 -0.1372 -0.1521 -0.2461
 2344SOL     OW 7716   2.274   5.044   7.211 -0.2177 -0.6673  0.2899
 2344SOL    HW1 7717   2.325   5.055   7.131 -2.0936  1.7022 -0.6970
 2344SOL    HW2 7718   2.207   4.980   7.188 -1.8346  1.2943 -0.6870
 2345SOL     OW 7719   7.532   3.879   6.122 -0.0299 -0.2861  0.2032
 2345SOL    HW1 7720   7.475   3.825   6.177 -0.2318 -0.7565 -0.4666
 2345SOL    HW2 7721   7.618   3.838   6.130  0.3875  0.7723  1.6971
 2346SOL     OW 7722   1.915   7.631   7.618  0.7092  0.4155 -0.4833
 2346SOL    HW1 7723   1.952   7.588   7.541 -0.0622  0.0084 -0.6398
 2346SOL    HW2 7724   1.861   7.564   7.659 -0.0967  1.0797 -0.4341
 2347SOL     OW 7725   3.132   4.042   0.383 -0.3585 -0.5028 -0.0451
 2347SOL    HW1 7726   3.193   3.973   0.409  0.6600  0.1011 -0.7818
 2347SOL    HW2 7727   3.091   4.069   0.465  1.3539  0.0143  0.6800
 2348SOL     OW 7728   7.761   1.811   2.066  0.7829  0.3840  0.3525
 2348SOL    HW1 7729   7.811   1.739   2.027 -0.8988  0.0529 -1.3595
 2348SOL    HW2 7730   7.820   1.850   2.130  2.2092 -1.6885  0.3788
 2349SOL     OW 7731   5.828   4.430   3.674 -0.0191 -0.2655 -0.2309
 2349SOL    HW1 7732   5.854   4.339   3.681  1.7407  0.2904  1.1622
 2349SOL    HW2 7733   5.761   4.431   3.605  0.7327 -2.4099 -1.0677
 2350SOL     OW 7734   2.380   7.632   6.659  0.3597  0.0237  0.5831
 2350SOL    HW1 7735   2.367   7.608   6.751 -0.7315 -0.6452  0.2706
 2350SOL    HW2 7736   2.305   7.688   6.638  0.7239  0.3627  0.1476
 2351SOL     OW 7737   5.289   1.518   2.569 -0.2780 -0.6442 -0.5302
 2351SOL    HW1 7738   5.256   1.456   2.503 -0.4345 -0.8063 -0.3007
 2351SOL    HW2 7739   5.272   1.475   2.653 -0.6298 -0.1761 -0.3558
 2352SOL     OW 7740   2.901   4.744   0.462 -0.1952 -0.0690 -0.5769
 2352SOL    HW1 7741   2.988   4.769   0.434  0.8761 -1.6278  1.1175
 2352SOL    HW2 7742   2.893   4.652   0.439 -0.9974 -0.1964  0.1347
 2353SOL     OW 7743   4.411   7.139   3.176 -0.1684  0.4082 -0.3348
 2353SOL    HW1 7744   4.406   7.193   3.255  0.3043  0.7075 -0.5050
 2353SOL    HW2 7745   4.502   7.108   3.174  0.3500  1.9043 -1.7435
 2354SOL     OW 7746   6.686   5.438   6.468 -0.2223 -0.4813 -0.6267
 2354SOL    HW1 7747   6.670   5.479   6.383  1.4002  0.8737 -0.3247
 2354SOL    HW2 7748   6.745   5.498   6.513 -0.9233 -1.2395  1.4226
 2355SOL     OW 7749   6.129   5.915   7.495  0.4169 -0.8727  0.3352
 2355SOL    HW1 7750   6.198   5.964   7.450  1.6277 -0.0584  2.9044
 2355SOL    HW2 7751   6.166   5.827   7.507 -0.1343 -1.2622 -0.6954
 2356SOL     OW 7752   6.124   2.632   6.816  0.0911  0.1857 -0.0423
 2356SOL    HW1 7753   6.159   2.562   6.872  1.1231  0.0609 -0.8102
 2356SOL    HW2 7754   6.134   2.598   6.727 -0.8169  0.6995 -0.3451
 2357SOL     OW 7755   5.705   5.655   4.871 -0.1687  0.5685 -0.6139
 2357SOL    HW1 7756   5.692   5.565   4.903 -2.6941  0.9722 -0.3530
 2357SOL    HW2 7757   5.739   5.644   4.782  0.1969 -0.6246 -0.3530
 2358SOL     OW 7758   3.469   6.973   0.222 -0.1765 -0.0484 -0.8909
 2358SOL    HW1 7759   3.453   6.991   0.129  2.4831 -0.4056 -1.4744
 2358SOL    HW2 7760   3.521   7.047   0.252 -1.0255  0.0769  0.3702
 2359SOL     OW 7761   5.048   5.369   1.671  0.1681  0.4123 -0.3436
 2359SOL    HW1 7762   5.106   5.346   1.599 -3.2024 -0.8999 -2.9460
 2359SOL    HW2 7763   5.028   5.462   1.658  1.2093  0.7429  0.2794
 2360SOL     OW 7764   1.124   4.619   5.805 -0.0190 -0.4454 -0.4011
 2360SOL    HW1 7765   1.190   4.562   5.767  0.6996 -0.6825  1.0960
 2360SOL    HW2 7766   1.044   4.566   5.807  0.3978 -1.0739  0.0954
 2361SOL     OW 7767   6.914   2.375   1.462  0.3044 -0.3546  0.1152
 2361SOL    HW1 7768   6.884   2.422   1.539  0.2233 -0.9877  0.4779
 2361SOL    HW2 7769   6.870   2.417   1.389 -0.0313 -0.0927  0.4672
 2362SOL     OW 7770   1.689   6.601   5.506  0.0273 -0.5230 -0.1110
 2362SOL    HW1 7771   1.699   6.664   5.435 -0.2303  0.9579  1.1136
 2362SOL    HW2 7772   1.779   6.577   5.530  0.1689  0.2415  0.1359
 2363SOL     OW 7773   2.886   1.658   2.032  0.5879  0.0936 -0.4003
 2363SOL    HW1 7774   2.839   1.602   2.094 -0.8643  0.4949 -1.0897
 2363SOL    HW2 7775   2.818   1.692   1.974  1.9297 -0.4359 -2.3700
 2364SOL     OW 7776   5.309   5.602   3.072  0.4512  0.4257  0.1464
 2364SOL    HW1 7777   5.344   5.514   3.055 -0.5331  0.2968 -1.3483
 2364SOL    HW2 7778   5.275   5.597   3.161 -1.2228 -1.3039 -0.5165
 2365SOL     OW 7779   7.729   6.094   0.611  0.3854 -0.1727 -0.1643
 2365SOL    HW1 7780   7.726   6.188   0.596  0.0324 -0.4484 -2.0778
 2365SOL    HW2 7781   7.821   6.070   0.598  0.5864 -0.0358  0.8966
 2366SOL     OW 7782   3.635   3.997   0.884  0.0861 -0.0748  0.0348
 2366SOL    HW1 7783   3.595   4.007   0.970  0.3455  0.1177  0.1341
 2366SOL    HW2 7784   3.729   4.003   0.900  0.2131 -1.4317 -0.0716
 2367SOL     OW 7785   1.748   6.679   4.045 -0.1417 -0.1201 -0.2716
 2367SOL    HW1 7786   1.762   6.640   3.958 -0.7426 -0.7659 -0.0889
 2367SOL    HW2 7787   1.784   6.615   4.106 -1.6968 -0.7068  0.0678
 2368SOL     OW 7788   6.629   3.886   7.640  0.4611 -0.0673 -0.0268
 2368SOL    HW1 7789   6.575   3.964   7.655 -0.3574 -0.1976 -1.9711
 2368SOL    HW2 7790   6.567   3.814   7.638  0.9571 -0.4978 -0.2419
 2369SOL     OW 7791   0.757   5.357   1.037  0.8302 -0.5814  0.0876
 2369SOL    HW1 7792   0.719   5.286   1.090 -0.3483 -0.9848 -1.2347
 2369SOL    HW2 7793   0.848   5.363   1.067 -0.0694  0.1177  3.0799
 2370SOL     OW 7794   4.869   7.079   2.610 -0.2126  0.2907  0.2472
 2370SOL    HW1 7795   4.777   7.082   2.636 -0.3956 -0.2126 -0.3199
 2370SOL    HW2 7796   4.895   7.170   2.602 -1.5786  0.5223 -2.7624
 2371SOL     OW 7797   1.305   6.714   0.544  0.2729 -0.1694 -0.0787
 2371SOL    HW1 7798   1.338   6.800   0.569 -1.0001 -0.2816  2.2570
 2371SOL    HW2 7799   1.212   6.728   0.525  0.1062 -0.9731  0.0899
 2372SOL     OW 7800   6.175   2.505   6.589 -0.2253 -0.1343 -0.4021
 2372SOL    HW1 7801   6.248   2.444   6.584  1.2007  1.5078 -0.3163
 2372SOL    HW2 7802   6.152   2.523   6.498 -0.3539 -0.4567 -0.4328
 2373SOL     OW 7803   1.135   3.325   1.407  0.4745  0.2007 -0.2656
 2373SOL    HW1 7804   1.146   3.408   1.453 -0.1211  0.9655 -1.4171
 2373SOL    HW2 7805   1.071   3.345   1.338  0.9910 -0.9880 -1.1312
 2374SOL     OW 7806   5.199   5.787   5.282  0.3324 -0.0044 -0.2166
 2374SOL    HW1 7807   5.214   5.881   5.273 -0.1212  0.0387 -0.6129
 2374SOL    HW2 7808   5.209   5.753   5.193  0.3207 -0.3044 -0.1045
 2375SOL     OW 7809   2.838   5.544   6.003 -0.3077 -0.4703 -0.5199
 2375SOL    HW1 7810   2.786   5.602   5.949  0.2489 -0.3369 -0.9219
 2375SOL    HW2 7811   2.922   5.589   6.012  0.4535 -1.6282 -1.6080
 2376SOL     OW 7812   2.016   5.648   5.431 -0.1136  0.5231 -0.9606
 2376SOL    HW1 7813   2.051   5.714   5.372  0.9627  1.3575  0.5545
 2376SOL    HW2 7814   2.091   5.619   5.483 -1.1954  0.6366  0.7509
 2377SOL     OW 7815   4.474   1.847   5.649 -0.0635  0.1591 -0.0292
 2377SOL    HW1 7816   4.466   1.820   5.740 -0.5521  1.3848  0.3114
 2377SOL    HW2 7817   4.509   1.936   5.653 -0.6153  0.4389 -1.0158
 2378SOL     OW 7818   1.098   1.202   1.869  0.6423  0.8604  0.3865
 2378SOL    HW1 7819   1.190   1.229   1.869  0.7078  0.7098  2.3415
 2378SOL    HW2 7820   1.050   1.281   1.893  0.2807  0.8153 -0.1605
 2379SOL     OW 7821   5.897   7.022   3.389  0.0164  0.2031  0.1153
 2379SOL    HW1 7822   5.983   7.037   3.349  0.6771 -2.8762  0.1499
 2379SOL    HW2 7823   5.915   6.960   3.459 -2.3022 -0.7957 -0.1133
 2380SOL     OW 7824   7.292   5.920   3.806 -0.0121 -0.1571  0.4253
 2380SOL    HW1 7825   7.361   5.967   3.851 -0.3923  1.1294 -0.3023
 2380SOL    HW2 7826   7.213   5.938   3.857 -0.4237  1.2113 -0.6249
 2381SOL     OW 7827   7.105   6.008   0.191 -0.1529  0.4717  0.2857
 2381SOL    HW1 7828   7.114   5.934   0.251  0.1079 -0.0573 -0.3986
 2381SOL    HW2 7829   7.123   6.085   0.246 -1.6063  0.1385  1.2860
 2382SOL     OW 7830   2.776   1.570   5.441 -0.0791  0.0849  0.1803
 2382SOL    HW1 7831   2.835   1.636   5.404 -0.3165 -0.4284 -1.1730
 2382SOL    HW2 7832   2.792   1.492   5.389  0.1512 -0.9346  1.7279
 2383SOL     OW 7833   2.874   7.462   3.483  0.1459  0.6614 -0.5387
 2383SOL    HW1 7834   2.944   7.441   3.420  0.7110  1.8795 -0.3353
 2383SOL    HW2 7835   2.902   7.422   3.565  0.0682  0.2171 -0.7280
 2384SOL     OW 7836   1.359   6.718   7.000 -0.2242  0.1315  0.2219
 2384SOL    HW1 7837   1.295   6.736   6.932  1.3597  2.6434 -0.7411
 2384SOL    HW2 7838   1.372   6.802   7.043  0.4589 -0.9225  2.1949
 2385SOL     OW 7839   2.173   4.221   1.788  0.0464 -0.2337 -0.7791
 2385SOL    HW1 7840   2.205   4.138   1.752  0.6317 -0.6065  0.5646
 2385SOL    HW2 7841   2.109   4.196   1.854 -0.7290  0.4313 -1.2659
 2386SOL     OW 7842   4.508   3.170   0.282 -0.4754 -0.1721 -0.6523
 2386SOL    HW1 7843   4.468   3.083   0.281 -0.2626 -0.2752 -1.4544
 2386SOL    HW2 7844   4.521   3.190   0.189  0.8514  0.0738 -0.4262
 2387SOL     OW 7845   7.154   0.818   1.205 -0.1392  0.4210 -0.4737
 2387SOL    HW1 7846   7.139   0.904   1.243 -0.5282  0.7092 -1.2608
 2387SOL    HW2 7847   7.230   0.831   1.147 -0.2439  0.2534 -0.6481
 2388SOL     OW 7848   0.770   0.499   0.872  0.4207  0.3923  0.4932
 2388SOL    HW1 7849   0.786   0.413   0.909 -2.5474 -1.8079 -2.6871
 2388SOL    HW2 7850   0.706   0.539   0.931  2.1522  0.7486  2.2339
 2389SOL     OW 7851   0.712   5.885   5.387  0.6982  0.1607 -0.2676
 2389SOL    HW1 7852   0.786   5.858   5.333  0.3141 -0.8077 -0.3185
 2389SOL    HW2 7853   0.637   5.838   5.350  0.2223  0.4166  0.3619
 2390SOL     OW 7854   0.077   0.995   0.440 -0.0281  0.1205 -0.2731
 2390SOL    HW1 7855   0.115   0.907   0.438  1.4399  0.7068  0.1947
 2390SOL    HW2 7856   0.121   1.042   0.369 -0.1914  0.7015 -0.0012
 2391SOL     OW 7857   5.460   1.551   5.629  0.0348  0.2680  0.2212
 2391SOL    HW1 7858   5.380   1.593   5.663  0.9796  1.9341  0.4883
 2391SOL    HW2 7859   5.458   1.568   5.535 -0.0663  0.0509  0.1833
 2392SOL     OW 7860   4.080   6.656   4.546 -0.0051 -0.7034 -0.0951
 2392SOL    HW1 7861   4.089   6.574   4.499 -0.1235 -1.0769  0.5136
 2392SOL    HW2 7862   4.116   6.723   4.487 -0.6231 -1.0806 -0.9103
 2393SOL     OW 7863   2.538   3.351   5.325 -0.1298 -0.6574 -0.6352
 2393SOL    HW1 7864   2.594   3.275   5.309  0.2462 -0.1381 -1.8731
 2393SOL    HW2 7865   2.466   3.317   5.377  1.8446 -1.1403  1.9971
 2394SOL     OW 7866   0.955   2.020   4.533 -0.1875  0.0259  0.2689
 2394SOL    HW1 7867   0.926   1.929   4.540 -1.8066  0.6029  1.6306
 2394SOL    HW2 7868   0.938   2.043   4.441  0.9203 -1.2118 -0.2874
 2395SOL     OW 7869   7.709   2.896   2.191 -0.4688 -0.1188 -0.1506
 2395SOL    HW1 7870   7.642   2.895   2.123 -0.8197 -0.1816  0.1967
 2395SOL    HW2 7871   7.789   2.869   2.146 -0.4627  0.8915 -0.7873
 2396SOL     OW 7872   1.314   2.541   6.585  0.1437 -0.2718 -0.1942
 2396SOL    HW1 7873   1.242   2.494   6.626 -0.3590  0.0948 -0.6552
 2396SOL    HW2 7874   1.288   2.552   6.494  0.9203 -0.4101 -0.4475
 2397SOL     OW 7875   1.148   5.583   6.272 -0.2770  0.2921 -0.2645
 2397SOL    HW1 7876   1.079   5.647   6.288 -0.2220  0.1192  0.7477
 2397SOL    HW2 7877   1.108   5.519   6.212 -0.3605  1.1961 -1.2023
 2398SOL     OW 7878   6.719   2.388   1.834  0.1813  0.8653  0.6316
 2398SOL    HW1 7879   6.764   2.425   1.757  0.5785 -1.2349 -0.2147
 2398SOL    HW2 7880   6.669   2.314   1.799  1.6985 -1.2094  2.6200
 2399SOL     OW 7881   2.228   7.006   5.473 -0.0336  0.0610  0.1229
 2399SOL    HW1 7882   2.204   7.030   5.563  0.0389  0.8975 -0.0704
 2399SOL    HW2 7883   2.239   6.911   5.476 -1.9961 -0.1981  0.5324
 2400SOL     OW 7884   0.855   0.897   4.661  0.4101  0.2557  0.0827
 2400SOL    HW1 7885   0.811   0.980   4.678 -1.4660 -0.1791 -2.2491
 2400SOL    HW2 7886   0.899   0.910   4.577  1.6580 -0.5361  0.5952
 2401SOL     OW 7887   6.552   7.550   1.809 -0.3937 -1.0900 -0.8819
 2401SOL    HW1 7888   6.524   7.473   1.758 -0.7315 -0.4937 -1.6155
 2401SOL    HW2 7889   6.640   7.528   1.839 -0.2434 -1.5226 -1.6022
 2402SOL     OW 7890   3.911   6.547   2.799 -0.1805 -0.2292 -0.3662
 2402SOL    HW1 7891   3.900   6.480   2.731  0.8963 -0.4925 -0.3040
 2402SOL    HW2 7892   4.005   6.565   2.800 -0.5432  1.9034 -0.9302
 2403SOL     OW 7893   4.707   1.923   2.647  0.9636  0.1432  0.3301
 2403SOL    HW1 7894   4.657   1.891   2.572  0.0328 -0.0992  1.0423
 2403SOL    HW2 7895   4.744   2.006   2.616  1.4369 -0.4385 -0.7303
 2404SOL     OW 7896   4.830   6.554   6.908  0.0969  0.7988  0.2200
 2404SOL    HW1 7897   4.872   6.541   6.993 -0.6793  0.5951  0.5820
 2404SOL    HW2 7898   4.741   6.521   6.920 -1.0039  3.5593  0.2471
 2405SOL     OW 7899   7.215   6.246   5.829  0.0443  0.4426 -0.2354
 2405SOL    HW1 7900   7.247   6.285   5.911 -1.1766  1.6415 -0.2824
 2405SOL    HW2 7901   7.185   6.321   5.778 -3.4482 -0.5551  0.0900
 2406SOL     OW 7902   2.708   7.098   2.638  0.1480 -0.0574  0.6567
 2406SOL    HW1 7903   2.659   7.017   2.622 -0.2550  0.5575 -1.7177
 2406SOL    HW2 7904   2.696   7.116   2.731 -1.5313 -1.6092  0.7912
 2407SOL     OW 7905   4.336   2.656   1.269 -0.1424 -0.2981  0.1228
 2407SOL    HW1 7906   4.297   2.641   1.183  1.0874  0.3903 -0.5809
 2407SOL    HW2 7907   4.261   2.658   1.329 -1.1402  0.3096 -1.0815
 2408SOL     OW 7908   0.304   2.204   6.409  0.5342 -0.2866  0.5996
 2408SOL    HW1 7909   0.357   2.169   6.338  1.1139 -1.0010  1.3647
 2408SOL    HW2 7910   0.230   2.247   6.365  0.0809 -1.9820 -0.4084
 2409SOL     OW 7911   2.278   0.082   1.756 -0.5417  0.0383 -0.0391
 2409SOL    HW1 7912   2.186   0.060   1.742 -0.0272 -0.7720 -2.7555
 2409SOL    HW2 7913   2.280   0.178   1.755 -1.6459  0.1841  2.9322
 2410SOL     OW 7914   7.431   2.639   2.942  0.2293 -0.4547 -0.1533
 2410SOL    HW1 7915   7.432   2.706   3.010 -0.3014 -1.3309  0.7629
 2410SOL    HW2 7916   7.355   2.660   2.888 -0.6153 -0.9423  0.8100
 2411SOL     OW 7917   5.792   7.618   1.054 -0.1969  0.0558  0.3051
 2411SOL    HW1 7918   5.699   7.622   1.034 -0.4388 -0.8280  1.1432
 2411SOL    HW2 7919   5.830   7.694   1.010 -1.1624 -0.0666 -0.7986
 2412SOL     OW 7920   4.112   5.569   7.410 -0.1934 -0.6105  0.3922
 2412SOL    HW1 7921   4.078   5.588   7.498 -1.3172 -0.5029 -0.0534
 2412SOL    HW2 7922   4.050   5.506   7.374 -1.5119  1.6236 -1.4716
 2413SOL     OW 7923   6.205   4.700   0.464 -0.0743  0.1206  0.6672
 2413SOL    HW1 7924   6.201   4.789   0.499 -2.0466  0.2458  0.2342
 2413SOL    HW2 7925   6.130   4.694   0.405  1.0614 -1.2707 -0.7122
 2414SOL     OW 7926   6.580   7.682   6.145 -0.3204  0.2173  0.0229
 2414SOL    HW1 7927   6.573   7.589   6.166  3.3145 -0.2980 -0.3731
 2414SOL    HW2 7928   6.564   7.687   6.051  0.2605 -0.1827 -0.1057
 2415SOL     OW 7929   2.236   0.342   5.171 -0.4598  0.0369 -0.2913
 2415SOL    HW1 7930   2.279   0.286   5.107 -1.9448 -1.3348 -0.1532
 2415SOL    HW2 7931   2.242   0.431   5.134  1.4351 -0.2652 -0.7861
 2416SOL     OW 7932   4.962   1.240   4.197  0.2041 -0.7213 -0.1587
 2416SOL    HW1 7933   4.975   1.253   4.291 -1.9785  1.7439 -0.0926
 2416SOL    HW2 7934   4.953   1.145   4.188 -1.2967 -0.9381  2.4575
 2417SOL     OW 7935   3.854   6.404   6.335  0.4427  0.0727 -0.3225
 2417SOL    HW1 7936   3.937   6.452   6.327  0.1425  0.3680 -1.9141
 2417SOL    HW2 7937   3.878   6.313   6.318  0.6132 -0.0102  0.3292
 2418SOL     OW 7938   5.847   2.281   2.417  0.3684  0.4699 -0.4590
 2418SOL    HW1 7939   5.922   2.230   2.388 -1.7520 -1.5936 -2.7525
 2418SOL    HW2 7940   5.839   2.351   2.353  2.3583  3.0188  1.8384
 2419SOL     OW 7941   0.820   3.969   7.172 -0.2337  0.4733  0.3884
 2419SOL    HW1 7942   0.770   3.977   7.092  0.2247 -0.3640 -0.0016
 2419SOL    HW2 7943   0.831   4.059   7.204 -2.5564  0.6354  0.8777
 2420SOL     OW 7944   1.719   2.931   2.746 -0.1109 -0.5891  0.1635
 2420SOL    HW1 7945   1.796   2.913   2.799  0.8697  1.8388 -0.2956
 2420SOL    HW2 7946   1.751   2.935   2.656 -0.5221  1.3655  0.0513
 2421SOL     OW 7947   6.980   0.336   7.604  0.1141  0.0794 -0.4520
 2421SOL    HW1 7948   7.039   0.396   7.649  0.6158 -1.9024  1.7287
 2421SOL    HW2 7949   7.021   0.250   7.613 -1.0915 -0.8067 -2.5355
 2422SOL     OW 7950   2.198   2.693   2.021 -0.1242  0.1014 -0.1104
 2422SOL    HW1 7951   2.145   2.767   2.052 -1.1279 -0.6435  0.0026
 2422SOL    HW2 7952   2.211   2.638   2.098 -0.1895 -0.3184 -0.3980
 2423SOL     OW 7953   7.017   3.763   6.000  0.0167 -0.1488  0.3743
 2423SOL    HW1 7954   7.091   3.705   6.014  0.2706  0.3249  1.0787
 2423SOL    HW2 7955   6.968   3.760   6.083 -0.0154  0.5591  0.3864
 2424SOL     OW 7956   1.712   4.791   3.022  0.4085  0.5807  0.7647
 2424SOL    HW1 7957   1.620   4.819   3.021 -0.2314 -1.2849  1.8460
 2424SOL    HW2 7958   1.722   4.747   3.107  1.9967 -0.2337  0.1858
 2425SOL     OW 7959   5.555   3.477   2.090 -0.9699  0.0595 -0.0232
 2425SOL    HW1 7960   5.498   3.425   2.034 -1.0164 -0.4586  0.5021
 2425SOL    HW2 7961   5.500   3.500   2.165 -0.7041  0.1676  0.1399
 2426SOL     OW 7962   0.272   6.922   5.428 -0.1656  0.2780 -0.9242
 2426SOL    HW1 7963   0.305   6.834   5.411 -0.1533 -0.6616  2.9847
 2426SOL    HW2 7964   0.343   6.965   5.475 -0.6682  1.9873 -1.6696
 2427SOL     OW 7965   7.514   3.147   2.467 -0.6048 -0.5789 -0.3117
 2427SOL    HW1 7966   7.529   3.061   2.426 -1.1468 -0.8496  0.0546
 2427SOL    HW2 7967   7.441   3.133   2.526 -2.0843  0.6180 -1.7657
 2428SOL     OW 7968   7.006   4.237   1.885  0.1299 -0.3034 -0.0492
 2428SOL    HW1 7969   6.957   4.214   1.806 -0.6897  0.7276  0.1326
 2428SOL    HW2 7970   7.095   4.253   1.854  0.0307 -0.8031 -0.6186
 2429SOL     OW 7971   1.796   3.498   0.014  0.0478 -1.1807  0.6929
 2429SOL    HW1 7972   1.766   3.457  -0.067 -0.4561 -0.5189  0.5393
 2429SOL    HW2 7973   1.846   3.574  -0.014 -0.5299 -0.6780  1.0003
 2430SOL     OW 7974   0.843   7.169   5.098 -0.0740 -0.1891  0.1423
 2430SOL    HW1 7975   0.780   7.101   5.074 -0.1264 -0.1346  0.1234
 2430SOL    HW2 7976   0.884   7.137   5.178  0.2649 -0.4800 -0.1430
 2431SOL     OW 7977   3.955   0.078   3.552  0.2570  0.1581  0.0918
 2431SOL    HW1 7978   3.865   0.089   3.520  0.6851  0.8855 -0.9310
 2431SOL    HW2 7979   4.006   0.057   3.473  0.9930 -0.2503  0.6580
 2432SOL     OW 7980   3.675   6.364   0.359 -0.3700  0.0528  0.0101
 2432SOL    HW1 7981   3.726   6.288   0.333  1.7103  1.0650  0.8694
 2432SOL    HW2 7982   3.681   6.365   0.455 -1.0670  0.8358  0.0581
 2433SOL     OW 7983   7.639   3.944   5.570 -0.7886  0.1310  0.0196
 2433SOL    HW1 7984   7.611   4.036   5.572  0.3406  0.5711 -1.7822
 2433SOL    HW2 7985   7.730   3.947   5.600 -1.0966 -0.5723  1.0416
 2434SOL     OW 7986   4.503   0.342   1.078  0.0660  0.2818 -0.9018
 2434SOL    HW1 7987   4.567   0.401   1.038 -0.7658  2.2968  0.5670
 2434SOL    HW2 7988   4.420   0.390   1.075 -0.0818  0.6293  3.0390
 2435SOL     OW 7989   0.077   6.833   3.824  0.0261  0.2648 -0.5185
 2435SOL    HW1 7990   0.158   6.792   3.856 -0.2292 -1.1921 -1.6077
 2435SOL    HW2 7991   0.039   6.875   3.901  0.9718 -0.4706  0.3815
 2436SOL     OW 7992   5.052   2.973   3.244 -0.1645  0.3856  0.0835
 2436SOL    HW1 7993   5.076   2.889   3.203 -0.5754 -0.0749  0.7791
 2436SOL    HW2 7994   4.960   2.986   3.220 -0.3546  0.2031  0.7028
 2437SOL     OW 7995   6.246   7.756   4.078  0.3619  0.2257 -0.4550
 2437SOL    HW1 7996   6.278   7.844   4.096 -0.1508  0.3003  0.1010
 2437SOL    HW2 7997   6.261   7.744   3.984 -1.2726  1.6351 -0.9441
 2438SOL     OW 7998   5.407   6.982   2.774  0.1719 -0.0837 -0.0392
 2438SOL    HW1 7999   5.484   6.969   2.830 -0.8601 -1.6536  1.1094
 2438SOL    HW2 8000   5.430   7.057   2.719  2.2447 -0.0827  0.7225
 2439SOL     OW 8001   3.467   5.285   6.072  0.3377  0.0535 -0.0817
 2439SOL    HW1 8002   3.543   5.323   6.027 -0.4000  0.3309 -1.1414
 2439SOL    HW2 8003   3.393   5.337   6.041 -0.2734 -0.1207  1.0555
 2440SOL     OW 8004   7.636   2.762   4.094  0.1713 -0.4003 -0.3417
 2440SOL    HW1 8005   7.690   2.766   4.173 -0.4111 -0.8097  0.0847
 2440SOL    HW2 8006   7.691   2.717   4.030  0.3133 -0.8933  0.1162
 2441SOL     OW 8007   2.099   7.054   2.845  0.0793 -0.1031 -0.3723
 2441SOL    HW1 8008   2.176   7.046   2.901 -0.9438  0.0824  1.1288
 2441SOL    HW2 8009   2.034   6.998   2.886 -1.6321  2.2522  0.3532
 2442SOL     OW 8010   7.777   7.308   4.602 -0.4744 -0.1095 -0.1524
 2442SOL    HW1 8011   7.859   7.265   4.626 -0.2659  0.4284  0.1430
 2442SOL    HW2 8012   7.737   7.329   4.687 -0.7217 -0.0196 -0.2934
 2443SOL     OW 8013   5.058   7.024   1.397  0.0582 -0.3707 -0.1377
 2443SOL    HW1 8014   5.101   6.986   1.473 -0.2148 -0.5394 -0.0649
 2443SOL    HW2 8015   5.017   7.104   1.430 -0.4174 -0.6636 -0.0092
 2444SOL     OW 8016   2.228   1.262   7.131 -0.5378 -0.1097 -0.1711
 2444SOL    HW1 8017   2.193   1.194   7.073  0.1074 -1.4905  1.0009
 2444SOL    HW2 8018   2.307   1.294   7.087 -1.4390  0.7189 -1.2608
 2445SOL     OW 8019   5.143   7.129   5.146  0.6032 -0.2345 -0.7186
 2445SOL    HW1 8020   5.120   7.072   5.073 -0.0111 -0.4907 -0.3313
 2445SOL    HW2 8021   5.075   7.113   5.211 -0.8053  2.4156 -1.3774
 2446SOL     OW 8022   5.038   2.664   3.380  0.5057 -0.4974 -0.3923
 2446SOL    HW1 8023   5.090   2.694   3.305  0.4929 -0.7382 -0.4986
 2446SOL    HW2 8024   4.956   2.635   3.341  0.2172  0.0526 -0.2048
 2447SOL     OW 8025   4.532   6.628   2.794 -0.6421 -0.3071  0.0193
 2447SOL    HW1 8026   4.560   6.542   2.762  0.4754 -0.0156  0.1467
 2447SOL    HW2 8027   4.538   6.685   2.716  1.1609  0.1994  0.4871
 2448SOL     OW 8028   2.986   5.345   6.996 -0.2880 -0.1629  0.3501
 2448SOL    HW1 8029   3.050   5.273   6.995  1.0710  0.9977  0.2056
 2448SOL    HW2 8030   2.952   5.345   7.086 -0.4792 -1.1173  0.2884
 2449SOL     OW 8031   3.540   7.733   4.740 -0.4521  0.6578  0.1276
 2449SOL    HW1 8032   3.461   7.702   4.696 -0.5540 -0.3852  1.0259
 2449SOL    HW2 8033   3.514   7.744   4.832  0.4691  0.2005  0.4492
 2450SOL     OW 8034   3.355   3.142   4.382  0.4104 -0.7088  0.3626
 2450SOL    HW1 8035   3.260   3.148   4.375  0.2728 -0.4849  1.9763
 2450SOL    HW2 8036   3.370   3.091   4.462  1.6317 -0.1198  0.5340
 2451SOL     OW 8037   1.254   7.047   7.458  0.4900  0.0743 -0.1222
 2451SOL    HW1 8038   1.302   7.120   7.497 -0.6286  0.6162  0.3024
 2451SOL    HW2 8039   1.210   7.005   7.533  1.0441 -0.9816 -0.3742
 2452SOL     OW 8040   7.583   5.413   4.601 -0.5388 -0.3826 -0.1253
 2452SOL    HW1 8041   7.500   5.415   4.648 -0.2688  0.0212  0.3370
 2452SOL    HW2 8042   7.558   5.411   4.508 -1.0586  0.0055  0.0054
 2453SOL     OW 8043   2.128   3.696   0.707 -0.3998 -0.3958  0.2471
 2453SOL    HW1 8044   2.167   3.738   0.784 -0.5249 -0.4497  0.3399
 2453SOL    HW2 8045   2.098   3.769   0.653  1.4884 -0.2832 -0.7116
 2454SOL     OW 8046   4.458   0.991   3.226 -0.1200  0.4738  0.3331
 2454SOL    HW1 8047   4.382   1.031   3.183 -0.0424  0.2427 -0.0213
 2454SOL    HW2 8048   4.501   1.064   3.272 -1.1215  0.4306  1.3810
 2455SOL     OW 8049   7.434   1.116   5.512  0.1032 -0.1975  0.1161
 2455SOL    HW1 8050   7.372   1.083   5.577  0.5128 -1.0580  0.0842
 2455SOL    HW2 8051   7.519   1.109   5.554  0.3950 -0.9793 -0.5895
 2456SOL     OW 8052   7.222   5.179   7.597  0.5003 -0.5069 -0.3707
 2456SOL    HW1 8053   7.220   5.086   7.619 -0.1289 -0.5151 -0.4461
 2456SOL    HW2 8054   7.208   5.182   7.503 -1.7678 -0.2513 -0.0909
 2457SOL     OW 8055   2.683   0.313   4.158  0.3008 -0.1689 -0.0465
 2457SOL    HW1 8056   2.667   0.221   4.179  0.7674  0.2341  2.2842
 2457SOL    HW2 8057   2.733   0.347   4.232  0.3906  1.9153 -0.9828
 2458SOL     OW 8058   4.087   5.855   4.702  0.2491 -0.1407  0.2592
 2458SOL    HW1 8059   4.023   5.879   4.635 -0.9518 -1.4668  0.8846
 2458SOL    HW2 8060   4.101   5.762   4.690  1.9062  0.0823  0.3017
 2459SOL     OW 8061   0.402   4.942   7.168  0.4499 -0.2510  0.3657
 2459SOL    HW1 8062   0.438   5.022   7.206 -1.5731  1.1094 -0.4532
 2459SOL    HW2 8063   0.340   4.972   7.102 -0.5383 -2.4989  0.1849
 2460SOL     OW 8064   1.173   5.944   5.215 -0.3875  0.5778 -0.6169
 2460SOL    HW1 8065   1.215   5.880   5.272 -1.5242 -2.2823 -2.7543
 2460SOL    HW2 8066   1.233   6.019   5.214  1.1635 -0.5261  1.7635
 2461SOL     OW 8067   1.456   0.982   6.870  0.6155 -0.0300 -0.0144
 2461SOL    HW1 8068   1.502   1.065   6.858  0.5044 -0.0348 -0.5136
 2461SOL    HW2 8069   1.369   0.997   6.831  1.3282 -1.0434 -2.1627
 2462SOL     OW 8070   5.240   3.690   3.787 -0.1608  0.5266 -0.0336
 2462SOL    HW1 8071   5.162   3.657   3.741 -0.3658  1.5167 -0.4272
 2462SOL    HW2 8072   5.217   3.780   3.811  0.6238  0.6116  0.4298
 2463SOL     OW 8073   0.328   7.013   1.352 -0.3013  0.2274 -0.0638
 2463SOL    HW1 8074   0.300   6.987   1.440 -0.1831 -0.5347 -0.2417
 2463SOL    HW2 8075   0.291   6.945   1.295  0.8618 -0.1064 -0.4387
 2464SOL     OW 8076   3.444   6.189   3.411 -0.0941 -0.3281 -0.0625
 2464SOL    HW1 8077   3.454   6.275   3.453 -2.1480 -0.9483  1.8978
 2464SOL    HW2 8078   3.351   6.184   3.388  0.1905 -1.6490 -1.0805
 2465SOL     OW 8079   7.588   4.362   3.370  0.2863 -0.2035  0.0849
 2465SOL    HW1 8080   7.501   4.399   3.355  0.5713 -0.0572 -1.3225
 2465SOL    HW2 8081   7.601   4.369   3.465 -0.6949  0.9699  0.1548
 2466SOL     OW 8082   5.561   5.079   5.697 -0.1310 -0.0982  0.2224
 2466SOL    HW1 8083   5.470   5.055   5.712 -0.9275  2.4917  0.0253
 2466SOL    HW2 8084   5.594   5.101   5.784 -1.5079  4.3773 -0.1173
 2467SOL     OW 8085   3.782   0.396   3.794  0.0563 -0.4703  0.4165
 2467SOL    HW1 8086   3.829   0.320   3.759  0.3508 -0.2881  0.4071
 2467SOL    HW2 8087   3.817   0.407   3.882 -0.0037 -0.3636  0.4275
 2468SOL     OW 8088   6.537   0.745   5.894  0.2623 -0.1305  0.3093
 2468SOL    HW1 8089   6.542   0.817   5.832  0.4308 -0.6400 -0.2826
 2468SOL    HW2 8090   6.454   0.757   5.940  0.8608  1.1365  1.1003
 2469SOL     OW 8091   7.373   6.524   6.651 -0.0144 -0.2694 -0.3207
 2469SOL    HW1 8092   7.383   6.442   6.699 -0.2693  0.1716  0.5122
 2469SOL    HW2 8093   7.446   6.578   6.680 -0.8615  0.4511  0.5383
 2470SOL     OW 8094   1.097   4.222   0.798 -0.0342  0.1714 -0.1390
 2470SOL    HW1 8095   1.176   4.246   0.848  0.8576  0.4165 -1.6129
 2470SOL    HW2 8096   1.056   4.153   0.850  0.5031  0.8423  1.2507
 2471SOL     OW 8097   5.166   3.054   7.083  0.8319  0.0499 -0.0312
 2471SOL    HW1 8098   5.147   2.972   7.038  2.9538 -0.2292 -0.5319
 2471SOL    HW2 8099   5.082   3.084   7.116 -0.6210 -0.4927 -2.9394
 2472SOL     OW 8100   3.109   3.389   4.988  0.1126 -0.4485 -0.4514
 2472SOL    HW1 8101   3.109   3.432   4.902  0.1818 -2.1276 -1.3343
 2472SOL    HW2 8102   3.094   3.297   4.969 -2.1861 -0.5929  1.5280
 2473SOL     OW 8103   2.414   3.673   0.615  0.2254 -0.0178  0.1549
 2473SOL    HW1 8104   2.353   3.699   0.546  1.0365  0.6672 -0.3149
 2473SOL    HW2 8105   2.403   3.739   0.683 -0.9520 -0.9787  0.9446
 2474SOL     OW 8106   4.755   6.175   3.604 -0.4676 -0.2240  0.3514
 2474SOL    HW1 8107   4.766   6.243   3.538  0.8030 -3.3389 -2.9187
 2474SOL    HW2 8108   4.664   6.147   3.595 -0.0338 -1.3345 -0.9403
 2475SOL     OW 8109   4.922   6.138   3.209  0.3005 -0.6247  0.3638
 2475SOL    HW1 8110   4.985   6.200   3.245  0.9935  0.1218 -1.9909
 2475SOL    HW2 8111   4.888   6.091   3.286  2.8167 -0.2154  1.8257
 2476SOL     OW 8112   0.107   7.392   2.728  0.1297  0.0218  0.4116
 2476SOL    HW1 8113   0.187   7.342   2.743  0.4157 -0.3635 -2.0877
 2476SOL    HW2 8114   0.130   7.482   2.749  1.3113 -0.0556 -0.4866
 2477SOL     OW 8115   2.750   5.989   7.531 -0.3849 -0.0549  0.0629
 2477SOL    HW1 8116   2.835   5.985   7.486  0.0157  0.4441  0.7517
 2477SOL    HW2 8117   2.732   5.899   7.556  0.1188 -0.1185  0.2197
 2478SOL     OW 8118   1.712   5.566   6.607  0.3345  0.3812  0.2941
 2478SOL    HW1 8119   1.718   5.661   6.603 -0.0083  0.3790 -0.4012
 2478SOL    HW2 8120   1.745   5.536   6.522 -1.0112 -0.0417 -0.1011
 2479SOL     OW 8121   4.692   4.196   5.947 -0.5591 -0.1052  0.0057
 2479SOL    HW1 8122   4.619   4.251   5.918 -0.7611 -0.3371  0.0689
 2479SOL    HW2 8123   4.752   4.257   5.990 -0.7424  0.0793  0.0047
 2480SOL     OW 8124   3.982   1.966   4.066 -0.1365  0.1856 -0.5615
 2480SOL    HW1 8125   4.017   2.055   4.067 -0.4962  0.3240  0.3122
 2480SOL    HW2 8126   4.050   1.915   4.022  0.1803  0.8445 -0.8613
 2481SOL     OW 8127   1.752   2.999   1.256  0.6540  0.2003 -0.1341
 2481SOL    HW1 8128   1.812   3.073   1.269  1.2664 -0.0752 -1.2371
 2481SOL    HW2 8129   1.677   3.037   1.210  0.0322  0.5113  1.0932
 2482SOL     OW 8130   3.668   0.728   1.507  0.3847 -0.1493  0.3913
 2482SOL    HW1 8131   3.582   0.686   1.517 -0.8733  1.8301 -1.1206
 2482SOL    HW2 8132   3.669   0.757   1.415  2.9154 -0.5519  0.2316
 2483SOL     OW 8133   3.651   4.750   5.190  0.5042 -0.0130 -0.0871
 2483SOL    HW1 8134   3.590   4.690   5.147  0.6770 -0.0128 -0.3302
 2483SOL    HW2 8135   3.606   4.835   5.188 -0.1591 -0.3164  1.1108
 2484SOL     OW 8136   2.792   4.238   1.426 -0.3598  0.3614  0.0328
 2484SOL    HW1 8137   2.865   4.221   1.487  0.2235  2.2840 -0.0820
 2484SOL    HW2 8138   2.736   4.160   1.434  0.7979 -0.3787  1.4252
 2485SOL     OW 8139   4.635   0.279   2.088  0.3496 -0.2380 -0.2702
 2485SOL    HW1 8140   4.706   0.316   2.140  0.8634 -0.9089 -0.4654
 2485SOL    HW2 8141   4.557   0.293   2.140  0.5769  0.7983 -0.1946
 2486SOL     OW 8142   1.362   2.829   5.324 -0.1985 -0.1177  0.2237
 2486SOL    HW1 8143   1.400   2.917   5.331  2.0266 -0.8721 -1.5204
 2486SOL    HW2 8144   1.329   2.825   5.234 -0.6379 -0.9446  0.4170
 2487SOL     OW 8145   6.702   6.642   4.183 -0.6347  0.5112 -0.5234
 2487SOL    HW1 8146   6.778   6.693   4.155  0.2048 -0.4087  0.0149
 2487SOL    HW2 8147   6.632   6.707   4.194  0.4790  1.6036  0.4173
 2488SOL     OW 8148   2.237   5.506   1.272 -0.0797 -0.1853 -0.3976
 2488SOL    HW1 8149   2.254   5.414   1.252 -0.8072 -0.6625  1.0437
 2488SOL    HW2 8150   2.300   5.529   1.340 -1.0673 -0.1797  0.5529
 2489SOL     OW 8151   3.916   3.719   4.321  0.0664 -0.5555  0.5614
 2489SOL    HW1 8152   3.827   3.754   4.321 -0.1719 -1.0348 -1.2845
 2489SOL    HW2 8153   3.926   3.676   4.405 -1.3570 -0.2586  0.8932
 2490SOL     OW 8154   0.144   2.964   4.461  0.2503  0.7653  0.4450
 2490SOL    HW1 8155   0.136   3.042   4.515  0.9332  2.0568 -1.2530
 2490SOL    HW2 8156   0.226   2.924   4.488  0.3502  1.1366  0.6888
 2491SOL     OW 8157   6.826   6.070   4.237 -0.1310  0.0556  0.4531
 2491SOL    HW1 8158   6.760   6.116   4.289 -0.3613 -0.7666  0.9047
 2491SOL    HW2 8159   6.788   6.065   4.149 -0.0576  0.8008  0.3685
 2492SOL     OW 8160   3.572   4.908   4.889 -0.2333 -0.6113  0.6449
 2492SOL    HW1 8161   3.654   4.867   4.862 -1.0042 -2.8466  1.5011
 2492SOL    HW2 8162   3.505   4.845   4.866 -1.9160  1.6417 -1.0809
 2493SOL     OW 8163   3.188   6.132   3.345  0.0016 -0.2953  0.1821
 2493SOL    HW1 8164   3.130   6.090   3.408 -1.3470  0.6478 -0.3822
 2493SOL    HW2 8165   3.136   6.204   3.309  1.7531  1.0186  0.1433
 2494SOL     OW 8166   1.556   1.840   1.150 -0.6865  0.9763 -0.4826
 2494SOL    HW1 8167   1.551   1.780   1.076 -1.2970  0.0885  0.2569
 2494SOL    HW2 8168   1.482   1.900   1.137 -1.5100  0.1024 -0.0071
 2495SOL     OW 8169   2.977   5.002   1.723 -0.2630  0.0791  0.2444
 2495SOL    HW1 8170   2.902   5.024   1.778 -0.8373  0.7921 -0.8036
 2495SOL    HW2 8171   3.043   4.971   1.785 -1.2967 -0.2708  1.2171
 2496SOL     OW 8172   3.677   6.980   3.353 -0.1287 -0.1211  0.5718
 2496SOL    HW1 8173   3.586   6.951   3.358  0.3091 -2.2527 -1.7498
 2496SOL    HW2 8174   3.726   6.914   3.403  0.4331 -1.0164 -1.0787
 2497SOL     OW 8175   5.832   3.507   4.262  0.0304  0.0658  0.2730
 2497SOL    HW1 8176   5.799   3.482   4.175  0.2279 -1.2445  0.5530
 2497SOL    HW2 8177   5.887   3.583   4.246 -0.4276  0.2148 -0.6650
 2498SOL     OW 8178   5.579   3.922   3.324  0.7721  0.0273  0.4089
 2498SOL    HW1 8179   5.621   4.007   3.336  0.0096  0.4697  0.0269
 2498SOL    HW2 8180   5.650   3.864   3.295  0.9737  0.9567 -1.0660
 2499SOL     OW 8181   1.237   7.232   4.908 -0.5675 -0.2772 -0.2636
 2499SOL    HW1 8182   1.260   7.238   5.001 -0.4231 -1.9828 -0.1493
 2499SOL    HW2 8183   1.312   7.270   4.863  0.1517 -1.0014  0.2847
 2500SOL     OW 8184   1.141   2.672   0.166 -0.1803  0.1781  0.3034
 2500SOL    HW1 8185   1.063   2.704   0.210  0.1271 -0.7552  1.5986
 2500SOL    HW2 8186   1.187   2.621   0.233  0.9306 -0.2904 -0.7732
 2501SOL     OW 8187   1.254   4.646   5.509  0.2046  0.1261 -0.0263
 2501SOL    HW1 8188   1.264   4.568   5.563  0.0244 -0.3146 -0.6081
 2501SOL    HW2 8189   1.219   4.712   5.568  0.6162 -0.1499  0.5414
 2502SOL     OW 8190   2.879   0.127   6.825  0.0404  0.2277  0.1352
 2502SOL    HW1 8191   2.884   0.034   6.849  1.3496  0.7749  2.2540
 2502SOL    HW2 8192   2.786   0.148   6.827 -0.3415 -1.1907 -1.1410
 2503SOL     OW 8193   4.805   1.698   2.104  0.7720 -0.0156  0.3164
 2503SOL    HW1 8194   4.795   1.609   2.139 -0.9568 -0.0299 -0.1221
 2503SOL    HW2 8195   4.833   1.684   2.013 -0.2996 -0.1481 -0.0010
 2504SOL     OW 8196   4.572   7.630   2.025  0.1836  0.1716 -0.4969
 2504SOL    HW1 8197   4.614   7.571   1.962  1.7462 -0.7730  1.3297
 2504SOL    HW2 8198   4.481   7.600   2.030  0.3502 -0.5133 -1.3797
 2505SOL     OW 8199   4.618   0.227   5.568 -0.0135 -0.2089  0.3192
 2505SOL    HW1 8200   4.583   0.290   5.506  0.7806  0.0679  0.1432
 2505SOL    HW2 8201   4.673   0.278   5.626 -0.4432 -0.5293  1.0256
 2506SOL     OW 8202   2.844   1.920   5.281  0.2461  0.1166  0.0562
 2506SOL    HW1 8203   2.891   1.850   5.326  0.3824 -0.4617 -0.9561
 2506SOL    HW2 8204   2.820   1.882   5.196 -0.9232  0.8210  0.0431
 2507SOL     OW 8205   4.937   3.974   7.703  0.0213 -0.6529  0.4130
 2507SOL    HW1 8206   4.926   4.022   7.785  0.8651  0.0514  0.1252
 2507SOL    HW2 8207   4.921   3.882   7.728 -1.9091 -0.2311  0.8907
 2508SOL     OW 8208   1.631   6.360   6.848  0.0857 -0.8946  0.0313
 2508SOL    HW1 8209   1.706   6.405   6.808 -1.8265  0.8660 -1.8178
 2508SOL    HW2 8210   1.589   6.314   6.775 -1.4234 -0.6388  0.7054
 2509SOL     OW 8211   6.699   0.001   3.172 -0.1428  0.3908  0.0757
 2509SOL    HW1 8212   6.743   0.028   3.091  1.0380 -0.9044  0.2548
 2509SOL    HW2 8213   6.639   0.073   3.192  0.4841  1.3134 -1.2455
 2510SOL     OW 8214   2.395   0.177   3.482  0.5550  0.1081 -0.0202
 2510SOL    HW1 8215   2.406   0.094   3.528 -1.6565  0.6836  1.7605
 2510SOL    HW2 8216   2.311   0.211   3.515  0.7661  2.4298 -1.6589
 2511SOL     OW 8217   0.407   1.281   5.962  0.9396  0.0259 -0.0362
 2511SOL    HW1 8218   0.480   1.337   5.935  0.8135 -0.3920 -1.3389
 2511SOL    HW2 8219   0.449   1.202   5.997  1.1133  0.7257  1.3806
 2512SOL     OW 8220   1.285   2.296   5.588 -0.1835  0.4517  0.6097
 2512SOL    HW1 8221   1.334   2.220   5.620  0.1452 -0.0621 -1.0555
 2512SOL    HW2 8222   1.279   2.353   5.665 -0.7367 -1.3657  2.0075
 2513SOL     OW 8223   2.496   0.238   2.221 -0.3335  0.1506  0.3286
 2513SOL    HW1 8224   2.473   0.220   2.130  1.7574 -2.0518  0.1225
 2513SOL    HW2 8225   2.578   0.288   2.216  1.4760 -2.5344  0.8566
 2514SOL     OW 8226   3.663   2.902   6.726 -0.6900  0.0657  0.1938
 2514SOL    HW1 8227   3.647   2.929   6.816  0.7199 -1.8792  1.1011
 2514SOL    HW2 8228   3.709   2.818   6.734  0.2372  0.2531 -2.3223
 2515SOL     OW 8229   0.917   2.373   4.838  0.2961  0.3426 -0.5972
 2515SOL    HW1 8230   0.994   2.415   4.876  0.2502  0.8358 -1.0411
 2515SOL    HW2 8231   0.915   2.286   4.878  0.6367  0.6088  0.0012
 2516SOL     OW 8232   2.145   2.931   3.357 -0.1305 -0.0691  0.4464
 2516SOL    HW1 8233   2.168   2.958   3.268 -1.8291  2.1118  0.5656
 2516SOL    HW2 8234   2.074   2.868   3.346 -1.2963  1.2367  0.2154
 2517SOL     OW 8235   1.981   7.099   3.222 -0.7041 -0.0201 -0.2500
 2517SOL    HW1 8236   2.033   7.067   3.296  2.4935  2.2750 -1.2771
 2517SOL    HW2 8237   1.986   7.030   3.157  0.1018 -0.3106  0.1111
 2518SOL     OW 8238   7.356   3.804   7.765  0.7704  0.2468  0.7380
 2518SOL    HW1 8239   7.315   3.771   7.846 -0.8285 -0.6787 -0.3803
 2518SOL    HW2 8240   7.326   3.894   7.758 -0.1476 -0.0617  0.5432
 2519SOL     OW 8241   2.857   4.712   7.418 -1.0025 -0.3723  0.1422
 2519SOL    HW1 8242   2.859   4.787   7.359 -0.9629 -0.8389 -0.4550
 2519SOL    HW2 8243   2.804   4.741   7.492 -0.0058  0.6563  0.4859
 2520SOL     OW 8244   4.229   2.111   0.163 -1.0167 -0.3441  0.6115
 2520SOL    HW1 8245   4.165   2.040   0.166 -0.8760 -0.4641  0.7510
 2520SOL    HW2 8246   4.309   2.070   0.131 -1.6580  0.2908 -2.0860
 2521SOL     OW 8247   2.727   5.633   1.837  0.0582  0.2940 -0.0800
 2521SOL    HW1 8248   2.742   5.587   1.754  1.6631  0.3327  0.1641
 2521SOL    HW2 8249   2.814   5.662   1.865 -0.4823  0.4787  1.5094
 2522SOL     OW 8250   3.899   0.563   0.178 -0.4056  0.0592  0.5162
 2522SOL    HW1 8251   3.828   0.500   0.170 -0.3042 -0.3385  2.3974
 2522SOL    HW2 8252   3.889   0.601   0.265  2.1163 -0.5764  1.1716
 2523SOL     OW 8253   2.444   1.723   5.057  0.5518 -0.0026  0.6157
 2523SOL    HW1 8254   2.421   1.718   5.150  0.0329 -2.2285  0.4236
 2523SOL    HW2 8255   2.448   1.632   5.028  3.7875  0.4460 -0.8365
 2524SOL     OW 8256   0.873   4.998   5.955 -0.4235  0.5833 -0.0049
 2524SOL    HW1 8257   0.921   5.016   6.037 -0.3878 -0.3149  0.1766
 2524SOL    HW2 8258   0.925   5.042   5.888 -0.0791  0.7563  0.3648
 2525SOL     OW 8259   6.975   6.030   1.503  0.4116  0.0877  0.0875
 2525SOL    HW1 8260   7.046   6.065   1.557 -1.1447  0.2321  2.1339
 2525SOL    HW2 8261   6.994   5.937   1.496  1.5913  0.3539 -0.7077
 2526SOL     OW 8262   3.115   3.906   0.138 -0.1804 -0.3027 -0.1196
 2526SOL    HW1 8263   3.129   3.973   0.070  2.1635  0.8655  1.3758
 2526SOL    HW2 8264   3.114   3.955   0.220  1.2929 -2.0209  1.0086
 2527SOL     OW 8265   4.141   4.754   7.113 -0.0523  0.7515 -0.1597
 2527SOL    HW1 8266   4.212   4.767   7.049 -0.4918  1.5697 -0.4955
 2527SOL    HW2 8267   4.149   4.662   7.138  2.6876  1.3733  1.6822
 2528SOL     OW 8268   1.434   1.971   3.144 -0.0489 -0.1076  0.0062
 2528SOL    HW1 8269   1.447   1.888   3.189  0.1315  0.3270  0.7779
 2528SOL    HW2 8270   1.523   2.003   3.127 -0.1096 -0.5808 -1.2653
 2529SOL     OW 8271   4.143   1.357   0.600  0.0477  0.2216  0.0422
 2529SOL    HW1 8272   4.190   1.297   0.657 -0.5180 -0.5905 -0.3403
 2529SOL    HW2 8273   4.208   1.385   0.536  0.3248  0.0622  0.2546
 2530SOL     OW 8274   4.699   4.411   4.796 -0.3429  0.0566  0.5462
 2530SOL    HW1 8275   4.669   4.362   4.873  0.5240 -1.7815 -0.2154
 2530SOL    HW2 8276   4.779   4.454   4.826 -0.5267  0.1199  0.9478
 2531SOL     OW 8277   5.742   4.700   5.844  0.4710  0.4226  0.0952
 2531SOL    HW1 8278   5.717   4.748   5.923  0.1414  1.9605 -0.9041
 2531SOL    HW2 8279   5.659   4.686   5.798  0.4035 -2.0777  0.8365
 2532SOL     OW 8280   7.309   7.770   0.065 -0.1283  0.0982 -0.0450
 2532SOL    HW1 8281   7.318   7.862   0.040 -0.3014  0.2546  0.4628
 2532SOL    HW2 8282   7.287   7.772   0.158 -1.2820 -0.4278 -0.2924
 2533SOL     OW 8283   3.938   0.034   6.249  0.0780 -0.0098  0.9701
 2533SOL    HW1 8284   3.929   0.099   6.179 -0.6550 -0.5824  0.5183
 2533SOL    HW2 8285   3.891   0.071   6.323 -0.5297 -0.1185  0.6433
 2534SOL     OW 8286   0.139   1.261   4.697 -0.5517 -0.0435  0.3407
 2534SOL    HW1 8287   0.208   1.225   4.641 -0.0249 -0.0766  1.0030
 2534SOL    HW2 8288   0.066   1.276   4.638 -0.6651 -1.8649 -0.0293
 2535SOL     OW 8289   0.788   6.835   1.299  0.2237  0.5431  0.3842
 2535SOL    HW1 8290   0.806   6.805   1.210 -0.7578  2.3377 -0.4708
 2535SOL    HW2 8291   0.698   6.807   1.315  0.9320 -1.2536  1.5075
 2536SOL     OW 8292   0.877   5.346   6.384  0.1444  0.1506 -0.3237
 2536SOL    HW1 8293   0.952   5.357   6.442 -0.7707  0.6813  0.8078
 2536SOL    HW2 8294   0.808   5.311   6.441 -1.1914  1.9152 -0.7539
 2537SOL     OW 8295   6.371   5.404   7.025 -0.2501  0.0377 -0.2246
 2537SOL    HW1 8296   6.443   5.356   7.065 -0.2255 -0.1782 -0.5235
 2537SOL    HW2 8297   6.304   5.408   7.093 -0.3846 -0.7127 -0.3029
 2538SOL     OW 8298   5.986   0.467   4.065 -0.0793 -0.4402 -0.2607
 2538SOL    HW1 8299   5.977   0.372   4.069 -0.1939 -0.4366 -0.4405
 2538SOL    HW2 8300   6.027   0.483   3.980  1.2093 -0.4273  0.3350
 2539SOL     OW 8301   5.644   6.088   5.393  0.3935 -0.5511  0.5212
 2539SOL    HW1 8302   5.696   6.148   5.339 -0.4548  0.4309  0.7762
 2539SOL    HW2 8303   5.594   6.145   5.451 -4.2553 -1.0903 -2.4779
 2540SOL     OW 8304   5.861   1.126   3.266 -0.1393  0.3590 -0.4155
 2540SOL    HW1 8305   5.818   1.163   3.344  0.7863 -1.1786  0.8814
 2540SOL    HW2 8306   5.795   1.068   3.229 -0.5536  1.0301 -0.7567
 2541SOL     OW 8307   5.356   6.939   6.287 -0.7078  0.0354 -0.2417
 2541SOL    HW1 8308   5.321   6.980   6.366 -0.3955 -0.4320  0.1399
 2541SOL    HW2 8309   5.378   6.850   6.313  2.8562  0.9100  0.1806
 2542SOL     OW 8310   2.105   7.719   0.015 -0.4263 -0.3994 -0.1717
 2542SOL    HW1 8311   2.178   7.755  -0.036  0.2764  1.3632  1.9205
 2542SOL    HW2 8312   2.043   7.688  -0.051  1.8364 -1.2455 -2.0452
 2543SOL     OW 8313   6.996   2.594   0.994 -0.4192  0.2876 -0.2697
 2543SOL    HW1 8314   7.021   2.610   0.903 -1.4367  2.2640 -0.2598
 2543SOL    HW2 8315   6.916   2.542   0.987  1.0687 -2.1297 -0.3826
 2544SOL     OW 8316   0.618   1.974   2.623  0.1090 -0.2179  0.1650
 2544SOL    HW1 8317   0.581   2.022   2.698 -1.0964  0.4083 -0.7990
 2544SOL    HW2 8318   0.705   2.012   2.611 -0.7390  1.6468 -0.4552
 2545SOL     OW 8319   0.213   4.399   4.819  0.4322  0.8451  0.3704
 2545SOL    HW1 8320   0.206   4.393   4.915 -0.8876  0.0581  0.2420
 2545SOL    HW2 8321   0.207   4.308   4.789  1.1976  1.0507 -0.4596
 2546SOL     OW 8322   4.218   5.156   3.585 -0.1523 -0.0209  0.1640
 2546SOL    HW1 8323   4.281   5.101   3.538  1.8479  0.4420  2.1055
 2546SOL    HW2 8324   4.190   5.221   3.521  0.9217 -0.6031 -0.9396
 2547SOL     OW 8325   5.682   7.051   5.650 -0.5171 -0.8012  0.4266
 2547SOL    HW1 8326   5.627   7.034   5.574  0.0035  1.1718 -0.4543
 2547SOL    HW2 8327   5.664   6.979   5.710 -0.8630 -2.4763 -1.6009
 2548SOL     OW 8328   3.497   4.873   6.364 -0.1094  0.5279  0.3550
 2548SOL    HW1 8329   3.448   4.809   6.415  0.4925  0.4482  0.8378
 2548SOL    HW2 8330   3.494   4.840   6.274 -0.4603  0.2368  0.4699
 2549SOL     OW 8331   0.464   0.460   0.900  0.1663  0.2442 -0.0614
 2549SOL    HW1 8332   0.444   0.454   0.993  0.3948 -2.1269 -0.1222
 2549SOL    HW2 8333   0.406   0.396   0.858  0.0483  1.2775 -1.5755
 2550SOL     OW 8334   6.856   3.896   0.874  0.2984  0.2722 -0.5881
 2550SOL    HW1 8335   6.867   3.842   0.795  1.4493  1.3171 -1.1750
 2550SOL    HW2 8336   6.775   3.944   0.859 -0.2014 -0.5213 -0.5130
 2551SOL     OW 8337   2.897   3.259   0.297  0.4036 -0.1691 -0.2096
 2551SOL    HW1 8338   2.833   3.268   0.226 -1.1577 -1.2343  0.9853
 2551SOL    HW2 8339   2.878   3.332   0.356 -0.0545 -0.7498  0.3797
 2552SOL     OW 8340   6.091   3.115   5.070 -0.7913  0.1184 -0.0932
 2552SOL    HW1 8341   6.064   3.067   4.992 -0.1303 -1.2101  0.4549
 2552SOL    HW2 8342   6.172   3.072   5.097 -0.2550  1.4700  0.5221
 2553SOL     OW 8343   2.018   2.268   0.836 -0.7020 -0.0622  0.2499
 2553SOL    HW1 8344   1.927   2.263   0.808 -0.6450  0.8157 -0.1191
 2553SOL    HW2 8345   2.025   2.205   0.907 -1.4663 -0.5180 -0.0726
 2554SOL     OW 8346   2.355   3.102   4.765 -0.5180 -0.4247 -0.3485
 2554SOL    HW1 8347   2.395   3.174   4.717 -1.6094  0.2043 -0.3387
 2554SOL    HW2 8348   2.411   3.091   4.843 -2.1282  2.6791  1.4317
 2555SOL     OW 8349   3.544   3.345   2.185 -0.2625  0.1917 -0.2339
 2555SOL    HW1 8350   3.598   3.414   2.223  0.8570 -0.9551  0.3099
 2555SOL    HW2 8351   3.524   3.376   2.097 -0.8287  1.7638  0.4031
 2556SOL     OW 8352   7.512   7.395   7.068 -0.1715 -0.2968 -0.2056
 2556SOL    HW1 8353   7.460   7.448   7.007 -0.1673  0.1414  0.1695
 2556SOL    HW2 8354   7.454   7.378   7.142  0.2676  0.3397  0.2937
 2557SOL     OW 8355   3.269   4.434   6.872 -0.2978  0.1158  0.1160
 2557SOL    HW1 8356   3.259   4.339   6.868  0.2258  0.0458  0.4329
 2557SOL    HW2 8357   3.229   4.459   6.956  0.9918 -0.0167  0.7881
 2558SOL     OW 8358   7.762   4.042   2.490 -0.1321 -0.3464 -0.1396
 2558SOL    HW1 8359   7.836   4.076   2.440 -1.8851  2.4226 -1.1048
 2558SOL    HW2 8360   7.775   4.077   2.578 -0.4176  0.4292 -0.3938
 2559SOL     OW 8361   1.956   7.098   1.014  0.1486  0.0485  0.2975
 2559SOL    HW1 8362   1.893   7.029   0.993 -0.9842  0.5108  1.9990
 2559SOL    HW2 8363   2.000   7.067   1.093  0.7494  0.5577  0.1661
 2560SOL     OW 8364   6.948   7.206   3.229 -0.0029 -0.1172 -0.7000
 2560SOL    HW1 8365   7.015   7.275   3.230 -0.1671  0.0537 -1.1338
 2560SOL    HW2 8366   6.896   7.225   3.151  0.8272 -1.5564 -1.6577
 2561SOL     OW 8367   4.219   6.155   5.311 -0.5210  0.5433  0.0186
 2561SOL    HW1 8368   4.168   6.236   5.317  0.0809  0.8431  1.5934
 2561SOL    HW2 8369   4.179   6.097   5.376 -1.3600 -0.6942 -1.5437
 2562SOL     OW 8370   6.100   4.223   2.064  0.3480  0.0794 -0.4251
 2562SOL    HW1 8371   6.028   4.244   2.124  0.9756  1.3399 -0.0818
 2562SOL    HW2 8372   6.126   4.135   2.090 -1.1691 -0.4802 -0.6735
 2563SOL     OW 8373   5.085   7.270   4.674 -0.4946  0.4272  0.2385
 2563SOL    HW1 8374   5.100   7.233   4.587  0.1501 -0.5596  0.7609
 2563SOL    HW2 8375   5.126   7.209   4.734 -1.4540  0.7939  1.2975
 2564SOL     OW 8376   4.261   7.246   1.714  0.0154 -0.2889  0.2055
 2564SOL    HW1 8377   4.222   7.168   1.753  1.4531 -1.0994  0.0761
 2564SOL    HW2 8378   4.297   7.215   1.630 -2.3918  1.2542 -1.5444
 2565SOL     OW 8379   1.659   2.783   4.831  0.1483  0.4639 -0.3844
 2565SOL    HW1 8380   1.651   2.769   4.925 -0.1916  0.9896 -0.3285
 2565SOL    HW2 8381   1.570   2.775   4.798  0.3028  0.0268 -0.7002
 2566SOL     OW 8382   6.979   0.670   1.329 -0.1527 -0.3229 -0.0024
 2566SOL    HW1 8383   7.041   0.721   1.276 -0.1916 -0.2819 -0.0084
 2566SOL    HW2 8384   6.982   0.583   1.290 -0.5253 -0.1779 -0.3661
 2567SOL     OW 8385   2.403   4.117   3.149 -0.0922  0.5420 -0.2226
 2567SOL    HW1 8386   2.380   4.190   3.206 -0.8435  0.5889 -0.5724
 2567SOL    HW2 8387   2.320   4.071   3.134  0.4636 -0.7802  0.5342
 2568SOL     OW 8388   7.699   6.598   0.778  0.5726  0.2231  0.1181
 2568SOL    HW1 8389   7.684   6.677   0.725 -0.4735  0.1215  0.2254
 2568SOL    HW2 8390   7.627   6.599   0.842  0.0334 -1.2545 -0.4302
 2569SOL     OW 8391   2.362   1.082   7.305  0.2051  0.3351  0.1237
 2569SOL    HW1 8392   2.310   1.154   7.270 -1.8163  0.4913  3.1061
 2569SOL    HW2 8393   2.304   1.007   7.303  1.5457 -0.7318 -0.8563
 2570SOL     OW 8394   0.150   6.610   7.640  0.6402 -0.0451 -0.1898
 2570SOL    HW1 8395   0.216   6.560   7.594  1.2641  1.4202 -0.9342
 2570SOL    HW2 8396   0.090   6.640   7.572 -0.9072 -1.4247  0.4729
 2571SOL     OW 8397   7.528   3.445   4.580  0.2033 -0.0918 -0.6281
 2571SOL    HW1 8398   7.471   3.426   4.506 -0.1650  0.2179 -0.4195
 2571SOL    HW2 8399   7.569   3.529   4.559  0.3313 -0.1501 -0.6183
 2572SOL     OW 8400   0.761   0.408   7.441 -0.2966 -0.9507  0.1755
 2572SOL    HW1 8401   0.754   0.456   7.359  2.4886 -2.1375 -0.8748
 2572SOL    HW2 8402   0.782   0.475   7.507 -1.0372 -0.1868 -0.3460
 2573SOL     OW 8403   5.696   5.668   6.409 -0.2379 -0.3053  0.0528
 2573SOL    HW1 8404   5.720   5.682   6.500  0.0015  1.0360 -0.2002
 2573SOL    HW2 8405   5.762   5.608   6.375  0.3117  0.0588  0.4729
 2574SOL     OW 8406   1.323   5.736   3.475 -0.1765 -0.6118 -0.0246
 2574SOL    HW1 8407   1.356   5.819   3.439  0.2637 -0.4575  0.7223
 2574SOL    HW2 8408   1.357   5.733   3.564  0.8358 -2.1932 -0.4248
 2575SOL     OW 8409   5.024   4.994   4.078  0.2801 -0.5884  0.1005
 2575SOL    HW1 8410   4.963   5.016   4.149  0.5906 -0.3479  0.2963
 2575SOL    HW2 8411   4.969   4.951   4.012 -0.5917  1.5995 -0.7291
 2576SOL     OW 8412   4.039   6.722   0.956 -0.0936 -0.0763 -0.4571
 2576SOL    HW1 8413   4.097   6.797   0.952  1.3758 -1.1205  0.2968
 2576SOL    HW2 8414   4.090   6.649   0.921 -0.1038 -1.4721  2.1575
 2577SOL     OW 8415   2.104   4.100   1.253 -0.3581  0.5387  0.4091
 2577SOL    HW1 8416   2.105   4.166   1.184  1.4090  0.0591 -0.0672
 2577SOL    HW2 8417   2.092   4.150   1.334 -1.3641  1.1951 -0.1208
 2578SOL     OW 8418   4.327   3.475   2.832  0.5060 -0.5996  0.4057
 2578SOL    HW1 8419   4.402   3.535   2.828  0.8893 -1.0325  0.9337
 2578SOL    HW2 8420   4.300   3.465   2.741 -0.6565  1.6984  0.4079
 2579SOL     OW 8421   2.992   5.100   2.207  0.4078  0.4606  1.0430
 2579SOL    HW1 8422   3.047   5.037   2.160  2.0256  0.3591  2.9188
 2579SOL    HW2 8423   2.930   5.046   2.255  0.9502  0.3349  1.6244
 2580SOL     OW 8424   3.471   6.253   5.807  0.3224 -0.4091  0.1148
 2580SOL    HW1 8425   3.502   6.281   5.721 -0.7895  1.1946  0.1929
 2580SOL    HW2 8426   3.503   6.319   5.868 -0.7361 -0.3155  0.5986
 2581SOL     OW 8427   4.136   5.630   4.531 -0.6076  0.3292  0.5248
 2581SOL    HW1 8428   4.162   5.701   4.472 -0.1127 -0.8745 -0.7752
 2581SOL    HW2 8429   4.048   5.605   4.501 -0.0953 -0.7161 -0.1769
 2582SOL     OW 8430   5.514   1.140   0.158 -0.5215  0.3561 -0.3329
 2582SOL    HW1 8431   5.603   1.105   0.162  0.7082  3.2348 -0.4613
 2582SOL    HW2 8432   5.465   1.073   0.111  1.1175 -2.0871  1.1800
 2583SOL     OW 8433   2.055   7.023   3.489  0.7932  0.1101  0.1127
 2583SOL    HW1 8434   2.087   6.933   3.489  0.7928  0.0368  2.5679
 2583SOL    HW2 8435   2.104   7.065   3.560 -0.1144  1.7011 -0.1683
 2584SOL     OW 8436   4.255   7.717   6.999 -0.1227 -0.2071 -0.0017
 2584SOL    HW1 8437   4.350   7.716   6.987  0.3229 -1.9489  2.7485
 2584SOL    HW2 8438   4.236   7.805   7.032  0.4640  0.2757 -0.9177
 2585SOL     OW 8439   4.784   1.545   5.533  0.5636  0.3064  0.2068
 2585SOL    HW1 8440   4.746   1.631   5.515  0.5021  0.5572  1.4632
 2585SOL    HW2 8441   4.709   1.489   5.552  0.4495 -0.5005 -2.3022
 2586SOL     OW 8442   5.567   0.171   2.851 -0.1738  0.2314  0.0871
 2586SOL    HW1 8443   5.524   0.111   2.912 -1.7054 -0.0021 -1.1470
 2586SOL    HW2 8444   5.504   0.243   2.840  0.7909  1.0837  0.0497
 2587SOL     OW 8445   1.630   4.302   0.872 -0.3386  0.2489  0.0750
 2587SOL    HW1 8446   1.629   4.365   0.945 -1.6691  0.4064 -0.0454
 2587SOL    HW2 8447   1.638   4.356   0.794  1.0407  0.0815  0.0724
 2588SOL     OW 8448   6.266   2.568   4.613  0.2183 -0.4884 -0.2187
 2588SOL    HW1 8449   6.180   2.592   4.646 -0.1881 -3.0194  0.7677
 2588SOL    HW2 8450   6.249   2.505   4.543  1.2595 -0.4270 -0.5489
 2589SOL     OW 8451   4.497   2.546   5.702  0.3778 -0.5292  0.1148
 2589SOL    HW1 8452   4.440   2.479   5.664 -1.5633  0.6927  0.7416
 2589SOL    HW2 8453   4.496   2.617   5.638  2.3365 -0.9812 -0.4926
 2590SOL     OW 8454   3.351   5.230   1.540 -0.6634  0.2789  0.1123
 2590SOL    HW1 8455   3.439   5.245   1.575 -0.4313  1.7996 -1.0223
 2590SOL    HW2 8456   3.313   5.318   1.532 -1.0927 -0.0729 -2.3697
 2591SOL     OW 8457   2.962   0.520   1.191 -0.1904  0.3950  0.1472
 2591SOL    HW1 8458   2.876   0.517   1.232 -0.2536  0.2835  0.0055
 2591SOL    HW2 8459   2.950   0.480   1.105 -0.0739  0.7074 -0.0131
 2592SOL     OW 8460   5.707   1.819   5.922  0.2552 -0.1046 -0.0422
 2592SOL    HW1 8461   5.764   1.867   5.981 -0.6056 -1.2954  1.8364
 2592SOL    HW2 8462   5.767   1.764   5.871  0.9288  0.2219  0.3856
 2593SOL     OW 8463   3.407   4.423   7.742  0.5444 -0.5549  0.1982
 2593SOL    HW1 8464   3.485   4.439   7.796  0.9657  1.7587 -0.9615
 2593SOL    HW2 8465   3.339   4.479   7.780  1.0838  1.8122 -2.0092
 2594SOL     OW 8466   0.065   1.050   1.758 -0.0006 -0.4988 -0.2863
 2594SOL    HW1 8467   0.093   1.140   1.742  1.0005 -0.9104 -0.8839
 2594SOL    HW2 8468   0.145   1.004   1.782 -0.3409 -1.4539 -0.9491
 2595SOL     OW 8469   1.156   6.469   7.040 -0.3838  0.3480 -0.2106
 2595SOL    HW1 8470   1.101   6.541   7.008  1.0071  1.0363 -1.1039
 2595SOL    HW2 8471   1.244   6.491   7.012  0.3573 -0.8151  1.0820
 2596SOL     OW 8472   4.192   6.702   3.848  0.4729 -0.6415  0.6278
 2596SOL    HW1 8473   4.098   6.690   3.858  0.2495  0.3350 -0.1518
 2596SOL    HW2 8474   4.211   6.782   3.895  0.5612  0.2335 -0.8231
 2597SOL     OW 8475   6.715   2.501   0.973 -0.3176  0.3528  0.2071
 2597SOL    HW1 8476   6.685   2.500   0.882 -0.9891 -2.1658  0.3675
 2597SOL    HW2 8477   6.655   2.560   1.018 -1.1818  0.1570 -0.6556
 2598SOL     OW 8478   4.852   7.612   2.760 -0.0049  0.0239 -0.5137
 2598SOL    HW1 8479   4.761   7.631   2.738 -0.4537 -0.5719  0.7314
 2598SOL    HW2 8480   4.853   7.603   2.856  1.1283 -1.1493 -0.5954
 2599SOL     OW 8481   3.016   3.505   4.452  0.5251 -0.0968 -0.6777
 2599SOL    HW1 8482   2.983   3.415   4.456 -0.1773  0.1896  0.7009
 2599SOL    HW2 8483   3.110   3.496   4.438  0.4221 -1.0372 -0.8145
 2600SOL     OW 8484   0.055   7.280   6.123 -0.4987 -0.0659 -0.2762
 2600SOL    HW1 8485   0.118   7.269   6.194 -1.4385 -0.8822  0.4613
 2600SOL    HW2 8486  -0.021   7.229   6.150 -1.5920  1.1080 -1.0022
 2601SOL     OW 8487   4.167   1.574   6.616 -0.2853  0.5085 -0.1235
 2601SOL    HW1 8488   4.156   1.482   6.640  4.4836  0.0607  1.4022
 2601SOL    HW2 8489   4.146   1.623   6.695 -0.7888  0.6043 -0.3076
 2602SOL     OW 8490   6.025   4.361   5.169  0.3564  0.0753  0.3521
 2602SOL    HW1 8491   6.039   4.380   5.077 -0.0024  0.9842  0.4763
 2602SOL    HW2 8492   6.027   4.446   5.212  0.5525 -0.3414  1.1889
 2603SOL     OW 8493   1.381   2.588   1.629  0.4357  0.1006  0.0650
 2603SOL    HW1 8494   1.365   2.682   1.625  0.4400  0.1284  0.6610
 2603SOL    HW2 8495   1.325   2.556   1.700  1.3836 -0.1386  0.7240
 2604SOL     OW 8496   1.886   0.893   2.643 -0.0513  0.0603 -0.0983
 2604SOL    HW1 8497   1.888   0.986   2.665  0.1158 -0.0267  0.2609
 2604SOL    HW2 8498   1.975   0.873   2.614 -0.5714  0.4586 -2.0751
 2605SOL     OW 8499   7.136   7.289   5.979  0.1695 -0.3163  0.5040
 2605SOL    HW1 8500   7.159   7.224   5.913 -0.3552  1.1135 -1.1439
 2605SOL    HW2 8501   7.050   7.322   5.952 -1.0418 -1.1176  3.0517
 2606SOL     OW 8502   3.467   4.699   1.236  0.0940  0.2218 -0.2471
 2606SOL    HW1 8503   3.520   4.717   1.314 -1.3895  1.2385  0.5958
 2606SOL    HW2 8504   3.529   4.664   1.172  2.0879  2.6885  0.1651
 2607SOL     OW 8505   2.109   4.988   3.492 -0.2850  0.2968 -0.3714
 2607SOL    HW1 8506   2.184   4.963   3.437  0.2361  0.8749  0.0547
 2607SOL    HW2 8507   2.142   4.981   3.582 -1.7374 -2.6880  0.0517
 2608SOL     OW 8508   6.414   0.912   5.631  0.3670 -0.0380  0.0342
 2608SOL    HW1 8509   6.336   0.870   5.594  0.8385  0.7449 -2.0239
 2608SOL    HW2 8510   6.380   0.985   5.682 -0.3000 -0.7673  0.6562
 2609SOL     OW 8511   3.523   0.451   4.595  0.3436 -0.0398  0.6228
 2609SOL    HW1 8512   3.436   0.437   4.632 -0.0285 -0.5066 -0.3930
 2609SOL    HW2 8513   3.525   0.397   4.516  1.2913  0.5249  0.2373
 2610SOL     OW 8514   1.766   5.963   4.081 -0.1692 -0.6468  0.5879
 2610SOL    HW1 8515   1.719   6.015   4.147 -0.6675 -2.0236  1.3564
 2610SOL    HW2 8516   1.782   6.025   4.010 -2.1202  0.1935  0.7926
 2611SOL     OW 8517   3.016   5.377   5.587 -0.1838  0.0614 -0.0934
 2611SOL    HW1 8518   2.993   5.413   5.501  0.1341  0.4870 -0.0060
 2611SOL    HW2 8519   2.932   5.369   5.632 -0.5789 -1.9399 -1.0989
 2612SOL     OW 8520   4.599   0.460   1.884 -0.2230  0.1092  0.7994
 2612SOL    HW1 8521   4.690   0.486   1.873 -0.1466 -0.3556  0.2466
 2612SOL    HW2 8522   4.599   0.401   1.959  0.1388 -0.8085  0.1045
 2613SOL     OW 8523   0.077   5.865   2.738  0.5906  0.7108 -0.2303
 2613SOL    HW1 8524   0.073   5.957   2.711  2.1066  0.4577 -1.4164
 2613SOL    HW2 8525   0.170   5.846   2.748  0.4158 -1.0919 -1.4937
 2614SOL     OW 8526   4.550   7.074   0.052  0.2819 -0.4318  0.4507
 2614SOL    HW1 8527   4.460   7.071   0.020  0.2865 -0.6739  0.4611
 2614SOL    HW2 8528   4.565   7.166   0.073 -0.0256 -0.4211  0.6272
 2615SOL     OW 8529   0.874   4.903   2.236  0.3465 -0.2347 -0.2970
 2615SOL    HW1 8530   0.842   4.815   2.219 -1.3602  0.5372 -1.3722
 2615SOL    HW2 8531   0.797   4.959   2.229  1.3193  1.3323  0.6703
 2616SOL     OW 8532   4.308   6.758   1.586  0.0954 -0.2318 -0.1253
 2616SOL    HW1 8533   4.347   6.834   1.542  1.8347 -1.0186 -0.0288
 2616SOL    HW2 8534   4.330   6.684   1.530  0.2385 -0.9246  0.8124
 2617SOL     OW 8535   7.663   4.970   6.210  0.0498 -0.4899 -0.3951
 2617SOL    HW1 8536   7.702   4.891   6.172 -1.5994 -1.8543  0.5624
 2617SOL    HW2 8537   7.713   4.985   6.291  1.8910  0.9047 -1.7107
 2618SOL     OW 8538   2.006   5.238   3.473  0.2728  0.0396  0.1990
 2618SOL    HW1 8539   1.914   5.213   3.478 -0.0636  1.2953  0.4617
 2618SOL    HW2 8540   2.053   5.155   3.477 -0.7948 -0.5356  1.4922
 2619SOL     OW 8541   2.690   6.982   6.335  0.0392  0.1421  0.1261
 2619SOL    HW1 8542   2.639   6.977   6.254  2.3369 -1.1960 -1.3450
 2619SOL    HW2 8543   2.647   7.051   6.386 -2.7098 -0.3803 -1.3020
 2620SOL     OW 8544   0.389   6.580   0.161  0.6711 -0.2156 -0.3201
 2620SOL    HW1 8545   0.340   6.629   0.095  1.6741  0.6218 -0.4660
 2620SOL    HW2 8546   0.481   6.599   0.142  1.0065  1.8321  2.5611
 2621SOL     OW 8547   5.584   6.972   5.410 -0.4205 -0.1569 -0.3074
 2621SOL    HW1 8548   5.516   6.975   5.343 -0.1830 -2.3427 -0.7335
 2621SOL    HW2 8549   5.603   6.878   5.421  2.0954  0.3317  0.2272
 2622SOL     OW 8550   3.202   0.834   4.617  0.4804  0.4136 -0.3966
 2622SOL    HW1 8551   3.294   0.862   4.616  0.8200 -0.6590 -1.3845
 2622SOL    HW2 8552   3.205   0.743   4.587 -0.4273 -1.1210  3.5118
 2623SOL     OW 8553   1.194   4.923   0.047  0.3719 -0.4212 -0.0788
 2623SOL    HW1 8554   1.130   4.854   0.065 -0.1761  0.2224  0.5191
 2623SOL    HW2 8555   1.156   4.974  -0.023  0.9611 -0.9379 -0.7970
 2624SOL     OW 8556   5.166   3.037   7.706  0.1601 -0.1026  0.1245
 2624SOL    HW1 8557   5.133   3.075   7.625 -0.0594 -0.1265  0.2010
 2624SOL    HW2 8558   5.170   3.111   7.768 -0.5602 -0.2547  0.3634
 2625SOL     OW 8559   0.325   1.020   5.408  0.4287 -0.0862  1.2012
 2625SOL    HW1 8560   0.244   0.977   5.380  0.7685 -0.7005  1.1240
 2625SOL    HW2 8561   0.302   1.064   5.490 -0.1341  0.2580  0.8587
 2626SOL     OW 8562   5.032   7.734   0.433 -0.0028 -0.3354  0.1461
 2626SOL    HW1 8563   5.101   7.706   0.492  2.2326  0.3360 -2.0023
 2626SOL    HW2 8564   5.059   7.703   0.347 -2.5644 -0.2984 -0.7637
 2627SOL     OW 8565   5.281   0.677   4.584  0.0234 -0.6421  0.1167
 2627SOL    HW1 8566   5.352   0.665   4.647  0.3389 -1.0497 -0.3097
 2627SOL    HW2 8567   5.215   0.726   4.632  0.8642  0.3166  0.3240
 2628SOL     OW 8568   6.433   7.691   1.501 -0.3581  0.1537  0.2612
 2628SOL    HW1 8569   6.505   7.635   1.471 -0.4401  0.3018 -0.2150
 2628SOL    HW2 8570   6.373   7.630   1.545 -0.7430 -0.2452 -0.7857
 2629SOL     OW 8571   3.336   7.767   2.807  0.4012  0.9297  0.0933
 2629SOL    HW1 8572   3.247   7.802   2.812 -0.0466  0.4601 -2.7318
 2629SOL    HW2 8573   3.392   7.844   2.799  0.5273  1.3175  3.2455
 2630SOL     OW 8574   6.845   2.025   1.786 -0.1190 -0.1556 -0.6769
 2630SOL    HW1 8575   6.795   2.079   1.724  0.6724 -0.5336 -1.6694
 2630SOL    HW2 8576   6.934   2.026   1.752  0.0856 -1.3798 -0.2220
 2631SOL     OW 8577   7.347   2.588   5.616 -0.0040 -0.0598 -0.0179
 2631SOL    HW1 8578   7.262   2.545   5.609 -0.1594 -0.1426  1.8303
 2631SOL    HW2 8579   7.408   2.518   5.639 -0.2042  0.5283  2.6960
 2632SOL     OW 8580   0.427   7.535   6.624 -0.3211  0.1344  0.4435
 2632SOL    HW1 8581   0.352   7.545   6.566  1.5683  0.3698 -2.1047
 2632SOL    HW2 8582   0.503   7.542   6.567  1.7673  2.0124  3.1916
 2633SOL     OW 8583   2.014   4.982   5.188  0.1166  0.4843 -0.0438
 2633SOL    HW1 8584   1.971   5.025   5.114 -1.9480  0.5218  1.0983
 2633SOL    HW2 8585   2.007   4.889   5.169 -0.6578  0.4834  0.2055
 2634SOL     OW 8586   1.394   7.386   6.997 -0.5139 -0.3091 -1.1484
 2634SOL    HW1 8587   1.421   7.311   6.944  2.0318 -0.7685  0.5953
 2634SOL    HW2 8588   1.455   7.456   6.972 -1.1106  0.3446 -0.8155
 2635SOL     OW 8589   2.614   4.577   0.639  0.0201 -0.3537 -0.3528
 2635SOL    HW1 8590   2.619   4.643   0.570  2.3279 -0.7099 -0.5714
 2635SOL    HW2 8591   2.700   4.536   0.640 -1.0391 -2.7042  0.4653
 2636SOL     OW 8592   0.926   1.929   2.779  0.6724  0.0605 -0.4775
 2636SOL    HW1 8593   0.904   1.906   2.869  1.0319 -1.1853 -0.6895
 2636SOL    HW2 8594   1.022   1.931   2.778  0.6757 -0.2289 -0.8995
 2637SOL     OW 8595   4.781   0.173   6.113 -0.4689 -0.2651 -0.4791
 2637SOL    HW1 8596   4.753   0.259   6.081  0.8497  0.2476 -0.3250
 2637SOL    HW2 8597   4.805   0.189   6.205  0.2987 -0.6596 -0.6024
 2638SOL     OW 8598   0.069   1.297   6.936 -0.0613 -0.2347 -0.1220
 2638SOL    HW1 8599   0.082   1.358   6.863 -0.4553 -1.5914 -1.3925
 2638SOL    HW2 8600   0.035   1.217   6.894  1.5148 -1.7346  1.3135
 2639SOL     OW 8601   5.329   4.101   0.622 -0.0193  0.0486 -0.0718
 2639SOL    HW1 8602   5.325   4.007   0.644  1.3550  0.0410  0.2028
 2639SOL    HW2 8603   5.318   4.145   0.706 -1.1160  0.1550 -0.2614
 2640SOL     OW 8604   4.749   4.624   1.501  0.7703  0.3110 -0.4855
 2640SOL    HW1 8605   4.663   4.582   1.501  1.3475 -0.9316 -0.8493
 2640SOL    HW2 8606   4.732   4.715   1.476 -0.2744 -0.2936 -2.1337
 2641SOL     OW 8607   0.025   5.926   6.869 -0.1352 -0.1293  0.1720
 2641SOL    HW1 8608   0.057   5.931   6.779 -2.5134 -1.3296 -0.8238
 2641SOL    HW2 8609   0.070   5.998   6.915  0.9372  0.6708 -2.0074
 2642SOL     OW 8610   3.366   3.093   1.165  0.4069  0.2570 -0.4470
 2642SOL    HW1 8611   3.461   3.106   1.166  0.6240 -0.5385 -2.9894
 2642SOL    HW2 8612   3.350   3.042   1.085 -2.0379 -0.7210  0.5710
 2643SOL     OW 8613   6.315   1.562   2.323  0.0702 -0.2840 -0.0745
 2643SOL    HW1 8614   6.345   1.560   2.232 -2.1580  0.6903 -0.9116
 2643SOL    HW2 8615   6.356   1.640   2.360  0.2139 -0.1316 -0.5452
 2644SOL     OW 8616   2.802   7.242   4.054 -0.0121  0.0487  0.1915
 2644SOL    HW1 8617   2.815   7.192   3.974  0.5126  0.1657  0.1945
 2644SOL    HW2 8618   2.877   7.302   4.056 -1.4875  2.0293 -0.7033
 2645SOL     OW 8619   1.145   6.717   1.781  0.0853  0.0922  0.6662
 2645SOL    HW1 8620   1.139   6.622   1.782  2.2155 -0.1363 -0.8337
 2645SOL    HW2 8621   1.054   6.747   1.779 -0.6309 -1.9363  0.0491
 2646SOL     OW 8622   6.053   4.967   7.433 -0.3040 -1.0057 -0.3382
 2646SOL    HW1 8623   5.989   5.036   7.415  0.1038 -0.6825 -0.5807
 2646SOL    HW2 8624   6.092   4.948   7.348  0.6519 -0.4639 -0.0381
 2647SOL     OW 8625   5.048   2.615   7.651  0.3892 -0.5187  0.3916
 2647SOL    HW1 8626   4.988   2.623   7.577  2.4241 -0.9468 -1.3990
 2647SOL    HW2 8627   5.081   2.526   7.646  3.4231  0.5607 -0.5635
 2648SOL     OW 8628   6.009   0.088   7.430  0.0201  0.1424 -0.4718
 2648SOL    HW1 8629   5.962   0.100   7.513  1.1603  5.9340 -0.2604
 2648SOL    HW2 8630   5.940   0.074   7.365 -1.4671  1.4482  0.7410
 2649SOL     OW 8631   2.495   2.419   6.060 -0.1495  0.8451 -0.1572
 2649SOL    HW1 8632   2.512   2.374   5.977  0.9520  0.8217  0.0685
 2649SOL    HW2 8633   2.449   2.498   6.034 -1.3191  0.0301 -0.6353
 2650SOL     OW 8634   3.586   4.437   1.345 -0.2154  0.0012  0.8140
 2650SOL    HW1 8635   3.677   4.418   1.321 -0.4472 -0.9849  0.6785
 2650SOL    HW2 8636   3.592   4.509   1.407  0.5309  1.3215 -0.7056
 2651SOL     OW 8637   2.833   2.589   4.961  0.3507  0.3530  0.8975
 2651SOL    HW1 8638   2.837   2.657   4.893 -1.3433  1.8042  2.1468
 2651SOL    HW2 8639   2.869   2.631   5.039 -0.4462 -0.2612  1.6222
 2652SOL     OW 8640   5.593   6.511   6.484  0.1764  0.2376  0.2533
 2652SOL    HW1 8641   5.504   6.522   6.451  0.0568  0.4884  0.6443
 2652SOL    HW2 8642   5.591   6.430   6.534  0.6135 -0.6811 -1.1712
 2653SOL     OW 8643   5.858   4.715   7.233  0.2711  0.2939  0.0884
 2653SOL    HW1 8644   5.948   4.704   7.266  0.0604  2.3552  1.5325
 2653SOL    HW2 8645   5.855   4.806   7.202 -1.6349  0.6954  1.2671
 2654SOL     OW 8646   3.061   6.753   5.170  0.6709  0.2217  0.7523
 2654SOL    HW1 8647   3.152   6.724   5.181  0.5437  0.0169  1.3198
 2654SOL    HW2 8648   3.065   6.819   5.101  1.0195 -0.8617 -0.3028
 2655SOL     OW 8649   1.931   1.741   4.891 -0.1850 -0.1836 -0.5405
 2655SOL    HW1 8650   1.991   1.686   4.941 -0.0414 -0.3695 -0.9154
 2655SOL    HW2 8651   1.861   1.681   4.864 -0.4359 -0.0122 -0.2831
 2656SOL     OW 8652   0.064   4.327   5.201  0.2322  0.1617  0.1239
 2656SOL    HW1 8653   0.015   4.397   5.158 -1.1267 -1.6575 -1.4875
 2656SOL    HW2 8654   0.120   4.292   5.132  3.3791  1.6614  1.7204
 2657SOL     OW 8655   5.177   5.928   4.966 -0.1576 -0.0567  0.5154
 2657SOL    HW1 8656   5.264   5.890   4.975 -0.3643 -1.1410 -1.5192
 2657SOL    HW2 8657   5.117   5.853   4.974 -0.7132  0.1696 -1.2080
 2658SOL     OW 8658   3.803   1.126   5.554 -0.1345  0.1433  0.0638
 2658SOL    HW1 8659   3.837   1.094   5.638  0.2779 -1.2590 -0.5980
 2658SOL    HW2 8660   3.807   1.221   5.561  0.7949  0.0407  1.2715
 2659SOL     OW 8661   0.187   2.235   0.710 -0.2016  0.1348 -0.1667
 2659SOL    HW1 8662   0.149   2.238   0.622 -0.2640  0.3532 -0.1325
 2659SOL    HW2 8663   0.115   2.205   0.765  0.0214 -0.6322 -0.2899
 2660SOL     OW 8664   2.486   5.839   5.333  0.4638 -0.0501  0.2718
 2660SOL    HW1 8665   2.506   5.776   5.402 -2.2564 -1.8430 -0.4176
 2660SOL    HW2 8666   2.416   5.798   5.283  1.1098  1.9620 -2.5126
 2661SOL     OW 8667   1.257   2.834   5.013  0.4691 -0.1399  0.6527
 2661SOL    HW1 8668   1.273   2.752   4.965 -1.1500 -0.9584  1.4471
 2661SOL    HW2 8669   1.197   2.883   4.958  3.6377  1.9597 -1.2717
 2662SOL     OW 8670   3.668   5.631   3.946 -0.4357  0.2609  0.3495
 2662SOL    HW1 8671   3.742   5.573   3.930  1.9888  3.4293 -1.1852
 2662SOL    HW2 8672   3.604   5.607   3.879  1.1182  0.2195 -1.2117
 2663SOL     OW 8673   7.095   3.038   6.362  0.1486  0.1135 -0.1093
 2663SOL    HW1 8674   7.131   3.093   6.432  0.7418 -0.1221 -0.2283
 2663SOL    HW2 8675   7.158   2.967   6.353 -0.2431 -0.1860 -0.4656
 2664SOL     OW 8676   2.632   5.517   6.815 -0.1095 -0.0263  0.4819
 2664SOL    HW1 8677   2.722   5.505   6.784  0.1354 -1.9618  1.7414
 2664SOL    HW2 8678   2.629   5.607   6.846  1.4739  0.0007  0.6290
 2665SOL     OW 8679   2.312   3.284   2.587 -0.0340 -0.2432 -0.1519
 2665SOL    HW1 8680   2.331   3.191   2.579  0.3388 -0.0206 -2.3060
 2665SOL    HW2 8681   2.218   3.288   2.606 -0.0094 -1.0421  0.1746
 2666SOL     OW 8682   5.277   0.425   0.865  0.6664  0.1553 -0.5280
 2666SOL    HW1 8683   5.371   0.435   0.848  0.7328 -1.1682 -1.0577
 2666SOL    HW2 8684   5.271   0.350   0.924 -0.0496  0.3793 -0.3082
 2667SOL     OW 8685   0.343   6.957   2.608  0.5059 -0.6064 -0.6192
 2667SOL    HW1 8686   0.334   7.045   2.571  4.2487 -0.1981 -1.0017
 2667SOL    HW2 8687   0.349   6.899   2.532 -0.3178 -1.0038 -0.3956
 2668SOL     OW 8688   4.203   6.594   5.618 -0.1665 -0.7192  0.6259
 2668SOL    HW1 8689   4.227   6.686   5.609 -2.7565  0.0041  0.3001
 2668SOL    HW2 8690   4.210   6.559   5.529  2.0986 -1.2307  0.9678
 2669SOL     OW 8691   3.922   4.886   7.138  0.9229 -0.2130 -0.1896
 2669SOL    HW1 8692   3.997   4.828   7.122 -0.4677 -1.9472 -0.8534
 2669SOL    HW2 8693   3.845   4.829   7.125 -0.5112  1.1166  1.8813
 2670SOL     OW 8694   2.792   4.819   1.532  0.0244 -0.3551 -0.3759
 2670SOL    HW1 8695   2.867   4.772   1.496 -0.0308 -0.4391 -0.3825
 2670SOL    HW2 8696   2.805   4.817   1.627 -0.3090 -0.9476 -0.3394
 2671SOL     OW 8697   0.283   2.614   0.426  0.4608  0.0327  0.0529
 2671SOL    HW1 8698   0.211   2.617   0.363 -0.1349 -0.2797  0.7014
 2671SOL    HW2 8699   0.359   2.643   0.377  0.1035 -0.6425 -0.9302
 2672SOL     OW 8700   5.326   3.791   2.022 -0.1463 -0.4073  0.2984
 2672SOL    HW1 8701   5.247   3.746   1.994 -0.5385  0.7581 -0.5373
 2672SOL    HW2 8702   5.295   3.868   2.069  0.5130 -0.6291  1.1293
 2673SOL     OW 8703   7.395   6.957   2.285  0.4059 -0.1423 -0.3308
 2673SOL    HW1 8704   7.383   6.875   2.332 -0.4676  0.2425  0.1501
 2673SOL    HW2 8705   7.307   6.981   2.255  0.4572  1.1263  0.4227
 2674SOL     OW 8706   0.379   1.094   5.143  0.5141 -0.1607  0.4142
 2674SOL    HW1 8707   0.428   1.176   5.131 -3.3375  2.1870 -1.3160
 2674SOL    HW2 8708   0.368   1.086   5.238 -1.0380  2.7794  0.5798
 2675SOL     OW 8709   0.947   6.451   5.091 -0.2722 -0.1280 -0.4759
 2675SOL    HW1 8710   1.007   6.523   5.113 -1.3956  0.3544  1.2210
 2675SOL    HW2 8711   1.000   6.372   5.099 -0.0444  0.1982  2.0295
 2676SOL     OW 8712   1.193   5.153   1.115  0.3524  0.5356 -0.1665
 2676SOL    HW1 8713   1.246   5.173   1.038  0.8574 -0.3503 -0.0692
 2676SOL    HW2 8714   1.128   5.089   1.084 -0.9335  1.8925 -0.3733
 2677SOL     OW 8715   3.334   6.591   6.840  0.7053  0.5057 -0.6557
 2677SOL    HW1 8716   3.316   6.681   6.866  0.3673  0.0417  0.7685
 2677SOL    HW2 8717   3.414   6.567   6.887 -0.6417 -0.7793  1.1383
 2678SOL     OW 8718   6.930   1.025   1.433  0.5857  0.3458  0.1915
 2678SOL    HW1 8719   6.977   1.067   1.361 -0.4400  0.1061 -0.6487
 2678SOL    HW2 8720   6.998   0.986   1.488  1.4782  1.8269  0.1839
 2679SOL     OW 8721   0.425   0.921   5.703  0.2471 -0.3160 -0.2478
 2679SOL    HW1 8722   0.503   0.921   5.758  0.5645  1.3928 -0.6591
 2679SOL    HW2 8723   0.367   0.987   5.742  0.1893  0.4287 -1.5253
 2680SOL     OW 8724   4.403   3.053   4.614  0.2789 -0.2214  0.1595
 2680SOL    HW1 8725   4.433   3.057   4.705 -0.1431 -0.8438  0.3355
 2680SOL    HW2 8726   4.422   2.964   4.586 -0.3251 -0.2783 -0.0960
 2681SOL     OW 8727   0.054   3.323   1.395 -0.4344  0.1231 -0.5751
 2681SOL    HW1 8728   0.093   3.402   1.357 -0.6429  1.1758  1.2809
 2681SOL    HW2 8729   0.048   3.342   1.488 -0.6246 -2.0605 -0.0954
 2682SOL     OW 8730   0.216   4.240   5.744  0.5310  0.2090  0.1454
 2682SOL    HW1 8731   0.208   4.315   5.802  0.3468 -0.5494  1.1342
 2682SOL    HW2 8732   0.131   4.232   5.701  0.1453 -0.1643  0.9666
 2683SOL     OW 8733   1.731   7.071   5.470 -0.1357 -0.1056 -0.2407
 2683SOL    HW1 8734   1.787   7.041   5.541 -1.0796 -1.3513  0.0128
 2683SOL    HW2 8735   1.671   7.134   5.511 -0.2440 -0.3119 -0.0854
 2684SOL     OW 8736   4.060   3.882   4.805  0.3638 -0.6205  0.3242
 2684SOL    HW1 8737   4.114   3.922   4.737  1.1546 -0.2548  1.1405
 2684SOL    HW2 8738   3.972   3.916   4.789  0.3897 -1.0866 -0.9193
 2685SOL     OW 8739   2.126   1.939   5.546  0.0177 -0.0748 -0.3677
 2685SOL    HW1 8740   2.184   1.883   5.495 -0.5633 -1.0874  0.0707
 2685SOL    HW2 8741   2.129   1.904   5.634  1.2061  1.8170  0.4042
 2686SOL     OW 8742   4.071   5.160   7.707 -0.1525 -0.1143 -0.0039
 2686SOL    HW1 8743   3.995   5.112   7.674  0.4665 -1.7086  0.7949
 2686SOL    HW2 8744   4.147   5.115   7.668  0.4319  1.1332 -0.3833
 2687SOL     OW 8745   2.701   7.615   6.663  0.9412  0.1430 -0.1044
 2687SOL    HW1 8746   2.751   7.654   6.734  1.1134  0.8006 -0.5781
 2687SOL    HW2 8747   2.666   7.534   6.700  0.8776  0.5644  0.7865
 2688SOL     OW 8748   0.344   6.885   6.762  0.2459  0.6595 -0.2939
 2688SOL    HW1 8749   0.279   6.935   6.810  0.1521  1.7465 -1.4898
 2688SOL    HW2 8750   0.414   6.948   6.745 -1.0925  1.3253 -4.2897
 2689SOL     OW 8751   5.812   0.889   5.338 -0.4056  0.0229 -0.6272
 2689SOL    HW1 8752   5.769   0.899   5.423  1.5405  0.4186  0.3658
 2689SOL    HW2 8753   5.764   0.819   5.295 -2.0928  0.5260  0.3578
 2690SOL     OW 8754   5.779   0.321   2.615 -0.0368  0.8076  0.1001
 2690SOL    HW1 8755   5.701   0.333   2.561 -0.3006  1.2614  0.5781
 2690SOL    HW2 8756   5.783   0.399   2.670 -0.9077 -0.5232  2.1547
 2691SOL     OW 8757   4.525   1.811   5.102 -0.6298  0.0239 -0.0888
 2691SOL    HW1 8758   4.603   1.769   5.066 -0.1302  1.0523 -0.2518
 2691SOL    HW2 8759   4.494   1.869   5.032 -0.8440  0.5153  0.4023
 2692SOL     OW 8760   6.587   0.036   3.561  0.3920  0.1017 -0.0293
 2692SOL    HW1 8761   6.533   0.061   3.636  1.9553  1.8041  0.6298
 2692SOL    HW2 8762   6.664   0.092   3.568  1.8415 -1.5772 -1.4099
 2693SOL     OW 8763   6.103   1.691   3.264 -0.1277  0.1092  0.3787
 2693SOL    HW1 8764   6.015   1.727   3.255 -0.9988 -1.6970  1.0877
 2693SOL    HW2 8765   6.154   1.733   3.195 -1.8782  0.2224 -0.9051
 2694SOL     OW 8766   7.278   5.342   5.735  0.4288 -0.1496 -0.1541
 2694SOL    HW1 8767   7.257   5.309   5.822  0.9219  0.9145  0.3868
 2694SOL    HW2 8768   7.333   5.274   5.696  0.2208 -0.6228  0.3694
 2695SOL     OW 8769   4.645   3.537   0.614  0.1150  0.0865 -0.5920
 2695SOL    HW1 8770   4.590   3.471   0.572  0.8765 -0.1709 -1.2146
 2695SOL    HW2 8771   4.595   3.618   0.607 -1.7674 -0.7165  1.9947
 2696SOL     OW 8772   5.433   2.774   6.847 -0.3520 -0.1558 -0.1122
 2696SOL    HW1 8773   5.381   2.785   6.926 -0.2700 -0.2531 -0.0429
 2696SOL    HW2 8774   5.381   2.813   6.777 -0.5245 -0.2676 -0.0459
 2697SOL     OW 8775   2.790   7.542   7.596 -0.1230  0.4365 -0.3100
 2697SOL    HW1 8776   2.729   7.611   7.568  0.4195  0.5781 -1.1651
 2697SOL    HW2 8777   2.867   7.589   7.626 -0.3034  0.2421  0.4911
 2698SOL     OW 8778   5.247   2.759   2.825  0.0412  0.3213 -0.0741
 2698SOL    HW1 8779   5.215   2.792   2.741  0.5505  2.0779  0.3967
 2698SOL    HW2 8780   5.278   2.836   2.872  0.3280 -0.7039  1.5042
 2699SOL     OW 8781   5.395   5.413   1.270 -0.2195 -0.1937  0.0448
 2699SOL    HW1 8782   5.454   5.340   1.253 -0.1767 -0.0446 -0.4576
 2699SOL    HW2 8783   5.323   5.401   1.208 -0.6199 -0.2577  0.5121
 2700SOL     OW 8784   2.887   6.840   0.023 -0.9241  0.0996  0.2190
 2700SOL    HW1 8785   2.964   6.802   0.067 -1.2090 -0.6383  0.0885
 2700SOL    HW2 8786   2.924   6.909  -0.032 -0.3698 -0.1264  0.2916
 2701SOL     OW 8787   7.528   5.916   0.663  0.1372 -0.3076 -0.0375
 2701SOL    HW1 8788   7.594   5.986   0.659 -0.2724  0.1216  0.6095
 2701SOL    HW2 8789   7.509   5.905   0.756 -3.2228  2.0162 -0.2516
 2702SOL     OW 8790   7.697   4.552   1.376 -0.1380  0.0557 -0.1516
 2702SOL    HW1 8791   7.630   4.505   1.426 -0.3761  1.3189  0.7566
 2702SOL    HW2 8792   7.778   4.537   1.424  0.0835 -0.7189 -0.7472
 2703SOL     OW 8793   4.021   5.516   4.196  0.1504  0.0902  0.4492
 2703SOL    HW1 8794   4.052   5.511   4.105 -0.0544  1.2000  0.3009
 2703SOL    HW2 8795   4.100   5.508   4.249  0.3755  0.2397  0.1416
 2704SOL     OW 8796   3.823   1.165   2.398  0.0155 -0.2186 -0.0156
 2704SOL    HW1 8797   3.790   1.110   2.327 -1.2682 -2.1344  1.9619
 2704SOL    HW2 8798   3.872   1.106   2.454 -2.6591  0.1278  3.0131
 2705SOL     OW 8799   7.113   3.940   4.124 -0.0438 -0.4077 -0.0775
 2705SOL    HW1 8800   7.027   3.981   4.128  0.3172  0.3850 -0.2968
 2705SOL    HW2 8801   7.095   3.850   4.099 -0.8046 -0.2369 -0.1708
 2706SOL     OW 8802   4.137   7.500   1.292 -0.5426  0.0966 -0.1008
 2706SOL    HW1 8803   4.072   7.536   1.353  0.9628 -1.1593  2.3727
 2706SOL    HW2 8804   4.221   7.513   1.335  0.7836  0.3639 -2.5716
 2707SOL     OW 8805   6.803   6.785   7.127  0.1228 -0.8986 -0.1202
 2707SOL    HW1 8806   6.805   6.720   7.197 -1.1443  0.1179  0.9348
 2707SOL    HW2 8807   6.793   6.734   7.047 -1.0689 -2.0126  0.6933
 2708SOL     OW 8808   3.548   1.338   2.478 -0.3106  0.0950 -0.4872
 2708SOL    HW1 8809   3.553   1.420   2.429  1.8758  1.7463  2.1823
 2708SOL    HW2 8810   3.603   1.277   2.429  2.1185  1.7934 -0.0389
 2709SOL     OW 8811   5.048   1.830   6.143 -0.6330 -0.2601 -0.4226
 2709SOL    HW1 8812   5.058   1.835   6.238 -1.2826 -1.5930 -0.2553
 2709SOL    HW2 8813   5.061   1.920   6.112  0.4269  0.0345  0.8302
 2710SOL     OW 8814   5.117   4.533   4.003  0.5334 -0.2512 -0.2007
 2710SOL    HW1 8815   5.050   4.483   3.955 -0.0935 -0.0031  0.3942
 2710SOL    HW2 8816   5.127   4.614   3.953  0.9715 -0.6259 -0.7283
 2711SOL     OW 8817   1.189   6.141   3.200  0.1105 -0.0977 -0.3611
 2711SOL    HW1 8818   1.157   6.230   3.190  0.5817  0.0359 -0.7236
 2711SOL    HW2 8819   1.111   6.089   3.218 -0.0855  0.4875  0.5199
 2712SOL     OW 8820   3.104   2.448   4.906  0.8557 -0.0389  0.2190
 2712SOL    HW1 8821   3.021   2.490   4.884  1.0459  0.3404  0.2214
 2712SOL    HW2 8822   3.079   2.362   4.939  0.5650 -0.6167 -1.4228
 2713SOL     OW 8823   2.015   0.308   1.436  0.5156 -0.0060 -0.5478
 2713SOL    HW1 8824   1.993   0.238   1.374  0.0094  0.6727 -1.1422
 2713SOL    HW2 8825   2.109   0.323   1.422  0.5156 -0.2111 -0.7752
 2714SOL     OW 8826   3.100   5.065   0.995 -0.3481  0.3560 -0.1085
 2714SOL    HW1 8827   3.175   5.007   0.989  0.3161  1.0860  0.9299
 2714SOL    HW2 8828   3.073   5.061   1.087 -0.9821  0.8379 -0.2641
 2715SOL     OW 8829   6.471   4.672   4.141 -0.2429  0.0733  0.0367
 2715SOL    HW1 8830   6.410   4.599   4.140 -2.6765  1.9958 -1.8182
 2715SOL    HW2 8831   6.416   4.751   4.143  2.1914  1.9204 -0.1849
 2716SOL     OW 8832   0.554   6.732   1.334 -0.0684  0.0596  0.0593
 2716SOL    HW1 8833   0.517   6.734   1.245  1.2181 -0.4087 -0.5076
 2716SOL    HW2 8834   0.566   6.639   1.352  0.4133  0.1855  0.4054
 2717SOL     OW 8835   2.003   4.804   3.949  0.3306  0.5002  0.8478
 2717SOL    HW1 8836   2.060   4.728   3.960  0.6460  0.8854  2.1063
 2717SOL    HW2 8837   2.057   4.878   3.977  0.0396  1.1964 -0.3967
 2718SOL     OW 8838   7.255   4.157   0.832  0.1575 -0.0809 -0.1753
 2718SOL    HW1 8839   7.201   4.078   0.826  1.3729 -0.8844 -0.7263
 2718SOL    HW2 8840   7.345   4.125   0.838  0.8167  1.2668 -2.0063
 2719SOL     OW 8841   2.863   2.330   5.186 -0.0689  0.0509 -0.5544
 2719SOL    HW1 8842   2.797   2.262   5.174 -1.0268  1.1050 -1.5430
 2719SOL    HW2 8843   2.939   2.284   5.220 -1.2954 -1.2115  0.6349
 2720SOL     OW 8844   5.325   2.799   1.708  0.4680  0.5534  0.2241
 2720SOL    HW1 8845   5.323   2.827   1.617 -1.1102 -2.5763 -0.8210
 2720SOL    HW2 8846   5.418   2.804   1.733  1.1291  0.2132 -1.9714
 2721SOL     OW 8847   2.921   0.883   1.881 -0.3196  0.0210  0.1291
 2721SOL    HW1 8848   2.935   0.947   1.811 -0.1108  0.0918  0.2327
 2721SOL    HW2 8849   2.985   0.908   1.948  0.6478 -1.0845 -0.3650
 2722SOL     OW 8850   0.772   4.925   4.719  0.0505 -0.2957  0.3387
 2722SOL    HW1 8851   0.863   4.894   4.729  0.0315 -0.2055  0.8305
 2722SOL    HW2 8852   0.777   4.992   4.652  0.3744 -0.1914  0.4637
 2723SOL     OW 8853   2.267   1.406   5.297  0.1872 -0.1726 -0.0443
 2723SOL    HW1 8854   2.272   1.373   5.207  1.2389  0.8399 -0.3863
 2723SOL    HW2 8855   2.345   1.461   5.307 -0.2701  0.2861  1.2689
 2724SOL     OW 8856   7.632   4.643   5.367  0.4375  0.2425  0.6582
 2724SOL    HW1 8857   7.717   4.617   5.330  0.7147  1.9561 -0.0265
 2724SOL    HW2 8858   7.611   4.725   5.322  0.1065  1.7258  3.2929
 2725SOL     OW 8859   0.906   0.677   7.284  0.0920  0.1504  0.0910
 2725SOL    HW1 8860   0.838   0.723   7.234 -1.2994 -1.3930  0.4944
 2725SOL    HW2 8861   0.984   0.683   7.229 -0.1671  2.4381 -0.1358
 2726SOL     OW 8862   4.073   1.048   4.520  0.7817 -0.1932  0.3264
 2726SOL    HW1 8863   4.058   1.133   4.562  1.1204  0.1012 -0.1391
 2726SOL    HW2 8864   4.015   0.987   4.567 -0.1958  0.4815  0.0304
 2727SOL     OW 8865   4.320   1.279   3.152 -0.1637 -0.2158 -0.1581
 2727SOL    HW1 8866   4.332   1.336   3.076 -0.3895 -0.5088 -0.4161
 2727SOL    HW2 8867   4.228   1.289   3.175  0.0078  0.2148  0.3562
 2728SOL     OW 8868   7.577   7.155   4.150  0.6657  0.3158 -0.0355
 2728SOL    HW1 8869   7.547   7.240   4.183 -3.4023 -0.9983  0.1947
 2728SOL    HW2 8870   7.597   7.105   4.230  0.1010  0.1581  0.0168
 2729SOL     OW 8871   6.780   4.639   2.880 -0.0646  0.5533 -0.2555
 2729SOL    HW1 8872   6.704   4.648   2.938  1.4138  3.6223  1.4666
 2729SOL    HW2 8873   6.771   4.713   2.819  0.3658 -0.4510 -1.5736
 2730SOL     OW 8874   7.042   5.155   2.081 -0.3294  0.3394 -0.2078
 2730SOL    HW1 8875   7.110   5.206   2.038  0.6407 -0.3629  0.4356
 2730SOL    HW2 8876   7.007   5.097   2.013 -0.0057  0.4261 -0.4463
 2731SOL     OW 8877   4.813   3.552   7.117 -0.4232 -0.0712 -0.1638
 2731SOL    HW1 8878   4.845   3.604   7.042  0.1876 -2.1551 -1.4269
 2731SOL    HW2 8879   4.741   3.500   7.081 -1.8824  0.7656  1.4014
 2732SOL     OW 8880   6.467   0.329   0.973  0.1322  0.4314 -0.3617
 2732SOL    HW1 8881   6.373   0.323   0.952  0.6814 -0.6526 -2.9515
 2732SOL    HW2 8882   6.469   0.354   1.066 -2.7301 -1.3641  0.3404
 2733SOL     OW 8883   3.005   3.763   5.624 -0.4691  0.8476 -0.5640
 2733SOL    HW1 8884   3.004   3.670   5.646  0.0770  1.4100  2.2509
 2733SOL    HW2 8885   2.945   3.771   5.550  0.2880 -1.8625 -1.5731
 2734SOL     OW 8886   0.517   1.027   2.683  0.0434 -0.4426  0.1955
 2734SOL    HW1 8887   0.593   1.027   2.625 -0.2184  0.8767 -0.1751
 2734SOL    HW2 8888   0.455   1.088   2.642 -0.7824 -0.6866  1.0455
 2735SOL     OW 8889   6.870   3.153   7.206 -0.6412  0.5089  0.6262
 2735SOL    HW1 8890   6.863   3.071   7.158  1.1884  0.1120  0.9430
 2735SOL    HW2 8891   6.833   3.134   7.292 -0.8895  0.2214  0.4551
 2736SOL     OW 8892   1.730   7.654   3.343  0.1234  0.1760  0.1143
 2736SOL    HW1 8893   1.782   7.630   3.267  0.2503 -0.9286  0.5256
 2736SOL    HW2 8894   1.736   7.578   3.401 -1.6914  0.1311  0.2999
 2737SOL     OW 8895   3.121   5.267   0.204  0.0195 -0.3523  0.3596
 2737SOL    HW1 8896   3.114   5.209   0.129  0.6390 -0.8810  0.7055
 2737SOL    HW2 8897   3.054   5.335   0.188  1.9144  1.1149 -2.0330
 2738SOL     OW 8898   3.936   2.309   5.692 -0.2571 -0.3645  0.1087
 2738SOL    HW1 8899   3.999   2.254   5.644 -0.5042 -0.8154  0.2985
 2738SOL    HW2 8900   3.873   2.247   5.728  0.9921 -0.2566  2.6849
 2739SOL     OW 8901   7.702   7.568   4.092 -0.4431  0.0748  0.3546
 2739SOL    HW1 8902   7.751   7.635   4.141  2.3196 -0.7708 -1.0528
 2739SOL    HW2 8903   7.768   7.526   4.038 -2.9189 -0.7557 -2.2091
 2740SOL     OW 8904   0.097   1.826   2.795  0.4698  0.2159  0.5717
 2740SOL    HW1 8905   0.116   1.919   2.807 -0.7104  0.5637 -0.0163
 2740SOL    HW2 8906   0.046   1.823   2.714  0.9813 -1.0207  0.2717
 2741SOL     OW 8907   2.085   5.674   2.191  0.0304  0.5276 -0.1385
 2741SOL    HW1 8908   2.046   5.752   2.151 -1.4993 -0.0225  0.1917
 2741SOL    HW2 8909   2.114   5.703   2.277 -0.3490  0.7805 -0.0916
 2742SOL     OW 8910   5.917   0.653   1.964  0.1500 -0.2071  0.1126
 2742SOL    HW1 8911   5.972   0.624   2.037  0.0276 -1.1029 -0.1422
 2742SOL    HW2 8912   5.979   0.690   1.901  0.2026  1.1092  0.9057
 2743SOL     OW 8913   4.786   3.681   3.423  0.3391 -0.9181 -0.4557
 2743SOL    HW1 8914   4.725   3.754   3.435  1.3237 -0.1873  0.2538
 2743SOL    HW2 8915   4.811   3.656   3.512  2.8833  0.3900 -0.7121
 2744SOL     OW 8916   7.473   4.026   5.054  0.0585  0.4967 -0.0902
 2744SOL    HW1 8917   7.502   4.042   4.964  1.0885  0.8950  0.3045
 2744SOL    HW2 8918   7.477   3.930   5.063  0.1424  0.4683 -0.4095
 2745SOL     OW 8919   6.890   7.708   2.563  0.4113  0.4644 -0.0054
 2745SOL    HW1 8920   6.949   7.777   2.593  0.7067  1.2548 -2.2557
 2745SOL    HW2 8921   6.935   7.669   2.488 -1.4257  0.3240 -1.0761
 2746SOL     OW 8922   7.360   4.758   5.505 -0.0140  0.2446 -0.2342
 2746SOL    HW1 8923   7.430   4.713   5.552  1.4736 -0.0380 -2.5596
 2746SOL    HW2 8924   7.280   4.730   5.549  1.1743 -1.1256  1.1758
 2747SOL     OW 8925   0.949   5.084   3.839  0.0392 -0.5145  0.0225
 2747SOL    HW1 8926   0.887   5.127   3.898  0.7829 -0.5538  0.8502
 2747SOL    HW2 8927   0.991   5.017   3.892 -0.4178 -1.6481 -0.9981
 2748SOL     OW 8928   4.949   5.657   1.565 -0.0637  0.5496  0.1481
 2748SOL    HW1 8929   4.890   5.730   1.547  0.9895  1.3915  0.0093
 2748SOL    HW2 8930   5.010   5.691   1.630 -0.0915 -0.5017  0.7479
 2749SOL     OW 8931   5.581   1.158   2.879  0.4983 -0.5463  0.0840
 2749SOL    HW1 8932   5.633   1.226   2.836  0.4064 -0.9995 -0.7793
 2749SOL    HW2 8933   5.517   1.206   2.932  0.9245  0.0249  0.0917
 2750SOL     OW 8934   0.885   3.151   6.104  0.4635 -0.4717  0.0686
 2750SOL    HW1 8935   0.959   3.125   6.159  0.7824 -1.5861 -0.8489
 2750SOL    HW2 8936   0.808   3.132   6.157  0.7528 -1.8868  0.0137
 2751SOL     OW 8937   0.045   5.279   4.528 -0.0594  0.0809 -0.4496
 2751SOL    HW1 8938  -0.036   5.329   4.521  0.7369  1.2542 -1.6309
 2751SOL    HW2 8939   0.045   5.246   4.618 -1.0303  1.4871  0.0934
 2752SOL     OW 8940   3.322   5.623   6.909  0.0007 -0.2338 -0.3790
 2752SOL    HW1 8941   3.326   5.655   6.999  0.5643 -0.1089 -0.4469
 2752SOL    HW2 8942   3.397   5.564   6.901 -1.3699 -2.1193 -0.0576
 2753SOL     OW 8943   1.723   2.978   1.585  0.6587 -0.3013  0.4254
 2753SOL    HW1 8944   1.703   3.068   1.558 -0.1223 -0.5737  0.0858
 2753SOL    HW2 8945   1.736   2.930   1.504 -1.8991 -1.1655  0.4248
 2754SOL     OW 8946   0.638   6.642   7.403  0.0838  0.5294 -0.0519
 2754SOL    HW1 8947   0.668   6.610   7.488  0.0677  1.1697  0.2014
 2754SOL    HW2 8948   0.690   6.721   7.388 -1.0686  1.3340  0.1250
 2755SOL     OW 8949   4.779   4.920   3.965  0.4587  0.0216 -0.4422
 2755SOL    HW1 8950   4.693   4.902   4.005  0.3701 -0.2661 -0.7551
 2755SOL    HW2 8951   4.780   5.015   3.953  0.0304 -0.0137 -0.7738
 2756SOL     OW 8952   0.934   7.182   4.841 -0.3123 -0.7659  0.5324
 2756SOL    HW1 8953   0.929   7.197   4.935  2.5660 -0.1586  0.6839
 2756SOL    HW2 8954   1.000   7.244   4.810  1.4905 -3.3251 -1.2325
 2757SOL     OW 8955   5.442   1.628   0.182 -0.4587  1.0859  0.1640
 2757SOL    HW1 8956   5.501   1.554   0.168 -1.5292  0.5983 -2.3940
 2757SOL    HW2 8957   5.468   1.664   0.266 -0.2945 -2.5871  1.8885
 2758SOL     OW 8958   2.651   2.773   0.766 -0.6306 -0.3380 -0.6550
 2758SOL    HW1 8959   2.654   2.864   0.737 -0.5854 -0.3721 -0.7588
 2758SOL    HW2 8960   2.741   2.750   0.786 -0.8258  0.0987  0.8171
 2759SOL     OW 8961   0.283   5.053   2.024  0.1152  0.5017 -0.5439
 2759SOL    HW1 8962   0.371   5.034   1.994 -0.0887  0.1049 -0.8923
 2759SOL    HW2 8963   0.238   5.090   1.947  0.2565  1.6233 -0.1136
 2760SOL     OW 8964   4.327   5.859   7.429 -0.5781  0.3168 -0.2397
 2760SOL    HW1 8965   4.385   5.859   7.505 -0.1120  1.2636 -0.5756
 2760SOL    HW2 8966   4.243   5.827   7.463  0.1624 -1.2473  0.2137
 2761SOL     OW 8967   6.658   6.950   3.454 -0.2215 -0.3343  0.4178
 2761SOL    HW1 8968   6.735   7.006   3.460 -0.9374  0.7896 -0.5385
 2761SOL    HW2 8969   6.589   7.008   3.422 -0.8713 -1.8849 -1.0969
 2762SOL     OW 8970   4.676   3.072   6.453  0.8977 -0.4239  0.0501
 2762SOL    HW1 8971   4.597   3.093   6.403  1.0756 -0.7209 -0.3705
 2762SOL    HW2 8972   4.725   3.013   6.395  0.6863 -1.5060  0.9366
 2763SOL     OW 8973   7.072   3.056   2.436 -0.5851 -0.4628  0.4748
 2763SOL    HW1 8974   6.990   3.025   2.474 -0.6045  1.6626  2.3629
 2763SOL    HW2 8975   7.120   3.094   2.509  0.6818  1.2292 -1.1471
 2764SOL     OW 8976   4.209   4.903   2.119 -0.0714 -0.8006 -0.3152
 2764SOL    HW1 8977   4.221   4.918   2.212 -0.4730  0.4487 -0.4396
 2764SOL    HW2 8978   4.114   4.905   2.106 -0.0828  3.2725 -1.2816
 2765SOL     OW 8979   6.528   6.069   5.573  0.1808 -0.4307 -0.0755
 2765SOL    HW1 8980   6.593   6.101   5.510 -0.1576 -1.3552 -0.9080
 2765SOL    HW2 8981   6.544   6.121   5.652  0.2208  1.1828 -1.1035
 2766SOL     OW 8982   0.548   7.019   3.068 -0.4108  0.3247 -0.2720
 2766SOL    HW1 8983   0.577   6.948   3.125  0.3330  0.7430 -0.1230
 2766SOL    HW2 8984   0.602   7.011   2.990  0.0404  1.0370 -0.0379
 2767SOL     OW 8985   2.378   4.791   2.869 -0.0365  0.1627 -0.1966
 2767SOL    HW1 8986   2.368   4.829   2.782 -0.3991  1.5807  0.4425
 2767SOL    HW2 8987   2.300   4.735   2.879 -0.1075  0.1666 -0.6839
 2768SOL     OW 8988   6.702   4.861   2.744 -0.2435 -0.2574 -0.5066
 2768SOL    HW1 8989   6.768   4.927   2.726 -0.2385  0.4158  1.6794
 2768SOL    HW2 8990   6.627   4.886   2.690  0.7415 -0.1894 -1.9017
 2769SOL     OW 8991   5.638   6.555   3.621  0.0985  0.5821  0.1527
 2769SOL    HW1 8992   5.729   6.542   3.594 -0.3425  0.8680 -1.6033
 2769SOL    HW2 8993   5.617   6.645   3.594 -0.2378  1.1158  2.0310
 2770SOL     OW 8994   4.367   6.759   5.997  0.1726 -0.1402  0.1340
 2770SOL    HW1 8995   4.426   6.831   6.018 -0.9779  0.6904  0.6258
 2770SOL    HW2 8996   4.290   6.801   5.958 -1.0599 -0.9454  1.5646
 2771SOL     OW 8997   4.767   6.476   6.651 -0.0618  0.3782  0.4217
 2771SOL    HW1 8998   4.795   6.512   6.735  0.0654  1.8907 -0.2434
 2771SOL    HW2 8999   4.847   6.445   6.610 -0.1653 -0.6838  0.9723
 2772SOL     OW 9000   4.256   0.223   5.992  0.1251 -0.5082  0.0709
 2772SOL    HW1 9001   4.239   0.215   6.086 -0.6887  0.2077 -0.0021
 2772SOL    HW2 9002   4.321   0.293   5.985  0.0620 -0.4459  0.0986
 2773SOL     OW 9003   2.518   7.166   4.120 -0.1825  0.3602 -0.1920
 2773SOL    HW1 9004   2.601   7.214   4.129 -0.8092  1.5141 -0.3487
 2773SOL    HW2 9005   2.525   7.095   4.183  0.7211  0.7437  0.1665
 2774SOL     OW 9006   0.570   0.907   4.445  0.9899 -0.0829  0.5741
 2774SOL    HW1 9007   0.586   0.826   4.493  0.7933 -0.5365 -0.1001
 2774SOL    HW2 9008   0.654   0.929   4.406  1.1444  0.2738  1.0960
 2775SOL     OW 9009   3.089   6.747   0.128 -0.5054  0.4891 -0.1660
 2775SOL    HW1 9010   3.177   6.758   0.094 -0.9739  0.0940 -1.5718
 2775SOL    HW2 9011   3.090   6.661   0.171 -0.7010 -0.4538 -1.9417
 2776SOL     OW 9012   7.627   6.620   5.833 -0.3862 -0.1530  0.1462
 2776SOL    HW1 9013   7.706   6.670   5.810 -0.3160 -0.0812  0.5480
 2776SOL    HW2 9014   7.638   6.537   5.785  0.0689 -0.2538  0.4190
 2777SOL     OW 9015   6.562   4.851   5.145  0.2532 -0.5365 -0.7203
 2777SOL    HW1 9016   6.485   4.897   5.178  1.3950  0.0454  1.2984
 2777SOL    HW2 9017   6.608   4.820   5.223  1.2782 -2.2403 -1.9129
 2778SOL     OW 9018   2.487   2.585   2.422 -0.3056  0.3416  0.2700
 2778SOL    HW1 9019   2.506   2.503   2.468  1.9917  1.1500  0.9059
 2778SOL    HW2 9020   2.480   2.651   2.491 -1.1676  0.8593 -0.2879
 2779SOL     OW 9021   7.153   1.553   6.166 -0.0017  0.0976 -0.6688
 2779SOL    HW1 9022   7.236   1.538   6.121 -1.4140 -1.9355 -2.8476
 2779SOL    HW2 9023   7.127   1.641   6.139  0.6876  0.1263 -1.2889
 2780SOL     OW 9024   1.612   7.468   3.537 -0.0033 -0.0043  0.1132
 2780SOL    HW1 9025   1.617   7.404   3.608 -1.2922 -0.8137 -0.5011
 2780SOL    HW2 9026   1.558   7.427   3.470  0.5436  1.0552 -1.0334
 2781SOL     OW 9027   1.899   5.008   4.579  0.3503  0.5787  0.3001
 2781SOL    HW1 9028   1.919   5.100   4.567  0.0453  0.4710 -1.2090
 2781SOL    HW2 9029   1.805   5.001   4.565  0.5694 -0.1477 -0.9525
 2782SOL     OW 9030   6.323   5.504   4.374 -0.3009 -0.2644  0.2660
 2782SOL    HW1 9031   6.412   5.533   4.355 -0.1751 -0.7843  0.0322
 2782SOL    HW2 9032   6.276   5.517   4.292 -0.6727  0.8263  0.6324
 2783SOL     OW 9033   5.966   5.099   5.413 -0.3311  0.3145  0.3483
 2783SOL    HW1 9034   5.958   5.027   5.350  0.1082 -0.1841  0.8496
 2783SOL    HW2 9035   5.890   5.087   5.471 -0.2932  0.2929  0.3935
 2784SOL     OW 9036   4.367   4.143   6.474 -0.0162  0.0504 -0.3295
 2784SOL    HW1 9037   4.458   4.153   6.446  0.7132 -3.9626 -0.0506
 2784SOL    HW2 9038   4.317   4.146   6.393  0.6945 -0.1114 -0.7844
 2785SOL     OW 9039   2.423   1.650   1.113 -0.1852  0.1871  0.5506
 2785SOL    HW1 9040   2.368   1.577   1.142  0.5272 -1.0255 -0.9614
 2785SOL    HW2 9041   2.457   1.621   1.028  2.3479  1.0902  1.1586
 2786SOL     OW 9042   4.004   7.632   5.383  0.2307  0.0757  0.2365
 2786SOL    HW1 9043   4.053   7.637   5.465 -1.3460  0.1956  1.2057
 2786SOL    HW2 9044   4.023   7.714   5.338 -1.2751  1.4151  1.9089
 2787SOL     OW 9045   2.619   1.941   7.195  0.6579 -0.0370  0.2913
 2787SOL    HW1 9046   2.564   1.960   7.271 -0.6977 -0.4349 -0.5528
 2787SOL    HW2 9047   2.658   1.856   7.214 -0.4671 -0.6089  0.1368
 2788SOL     OW 9048   2.458   6.619   2.135  0.0939  0.0124 -0.1473
 2788SOL    HW1 9049   2.525   6.687   2.144 -0.5729  0.6258  0.3431
 2788SOL    HW2 9050   2.473   6.559   2.207  0.6355 -0.3189 -0.5332
 2789SOL     OW 9051   0.506   5.366   5.481  0.3610  0.1103 -0.4439
 2789SOL    HW1 9052   0.542   5.278   5.469  2.6814  0.9440 -0.1667
 2789SOL    HW2 9053   0.483   5.394   5.392  1.0036 -0.2462 -0.7333
 2790SOL     OW 9054   3.303   6.888   2.140  0.2652 -0.2272  0.0144
 2790SOL    HW1 9055   3.268   6.971   2.109  1.0234 -0.3411 -1.2021
 2790SOL    HW2 9056   3.358   6.912   2.215 -0.8145  0.1578  0.7131
 2791SOL     OW 9057   3.535   4.947   7.052 -0.1734 -0.5729  0.3772
 2791SOL    HW1 9058   3.506   4.992   6.972 -0.6896 -0.7854  0.4474
 2791SOL    HW2 9059   3.574   4.865   7.020  1.1179  0.0668  0.2151
 2792SOL     OW 9060   6.788   6.705   6.298  0.2689 -0.0747 -0.1692
 2792SOL    HW1 9061   6.730   6.644   6.252  1.3015  0.0834 -1.7351
 2792SOL    HW2 9062   6.788   6.784   6.245 -0.6345  1.1647  1.5666
 2793SOL     OW 9063   7.610   1.173   7.246  0.1852 -0.9070  0.4689
 2793SOL    HW1 9064   7.568   1.234   7.185 -0.0722 -0.6210  0.9287
 2793SOL    HW2 9065   7.566   1.188   7.329  0.3485 -1.4891  0.6653
 2794SOL     OW 9066   1.661   1.694   6.020  0.0022 -0.4923 -0.2219
 2794SOL    HW1 9067   1.655   1.644   5.938  2.6394  0.0171 -0.8331
 2794SOL    HW2 9068   1.695   1.632   6.084  1.1754 -0.0952 -0.4252
 2795SOL     OW 9069   6.230   5.207   2.454  0.1036  0.1573  0.5103
 2795SOL    HW1 9070   6.292   5.231   2.522  0.3169 -2.1316  1.2025
 2795SOL    HW2 9071   6.146   5.201   2.500  0.1887 -1.0626  0.5271
 2796SOL     OW 9072   1.164   0.601   2.408 -0.1574 -0.2561  0.2113
 2796SOL    HW1 9073   1.217   0.533   2.366  1.8727  1.3847  0.0062
 2796SOL    HW2 9074   1.147   0.567   2.496 -0.0842 -1.4595 -0.2198
 2797SOL     OW 9075   1.973   0.978   5.602 -0.3734 -0.1024  0.2485
 2797SOL    HW1 9076   1.975   1.009   5.512 -0.5717 -0.4020  0.1360
 2797SOL    HW2 9077   1.941   0.888   5.595 -0.2572 -0.1737  0.6054
 2798SOL     OW 9078   2.605   1.709   0.180  0.2870 -0.2156 -0.0083
 2798SOL    HW1 9079   2.623   1.630   0.130  0.4290  0.0917 -0.4574
 2798SOL    HW2 9080   2.570   1.771   0.115 -0.0938 -0.0057  0.3893
 2799SOL     OW 9081   3.118   2.080   2.934  0.2196  0.4533 -0.1163
 2799SOL    HW1 9082   3.178   2.072   3.007  1.9456  2.3675 -1.2249
 2799SOL    HW2 9083   3.116   2.174   2.914 -1.0168  0.1194 -1.8411
 2800SOL     OW 9084   3.498   1.392   5.105  0.6190 -0.1975 -0.3087
 2800SOL    HW1 9085   3.557   1.436   5.167 -1.4676  1.4314  0.6524
 2800SOL    HW2 9086   3.539   1.406   5.020  1.1268  1.8547  0.2031
 2801SOL     OW 9087   7.083   0.356   0.672 -0.3484  0.5827  0.3604
 2801SOL    HW1 9088   7.008   0.338   0.615 -0.1582  1.5343 -0.2102
 2801SOL    HW2 9089   7.158   0.360   0.613 -0.1702  1.7564  0.6370
 2802SOL     OW 9090   0.386   2.481   5.366  0.2230  0.2126  0.6058
 2802SOL    HW1 9091   0.451   2.425   5.323  1.7337  2.2162  0.1131
 2802SOL    HW2 9092   0.398   2.465   5.460 -0.7916 -1.7487  0.4295
 2803SOL     OW 9093   4.367   4.425   7.287 -0.6341  0.1129 -0.4435
 2803SOL    HW1 9094   4.313   4.410   7.210 -1.3497 -0.9097  0.2280
 2803SOL    HW2 9095   4.377   4.338   7.327  1.7680  0.2040 -0.6916
 2804SOL     OW 9096   1.397   1.687   5.403  0.3189 -0.4233 -0.2520
 2804SOL    HW1 9097   1.415   1.779   5.382  0.0624 -0.2018  0.4751
 2804SOL    HW2 9098   1.335   1.659   5.336  1.5762 -0.5310 -1.4190
 2805SOL     OW 9099   7.329   0.598   1.001  0.0452 -0.2767  0.0205
 2805SOL    HW1 9100   7.345   0.572   1.092  1.1427  0.8817  0.1806
 2805SOL    HW2 9101   7.322   0.693   1.004  0.3924 -0.2014 -1.1592
 2806SOL     OW 9102   4.031   5.094   6.452 -0.3714  0.6859  0.3203
 2806SOL    HW1 9103   3.978   5.158   6.405 -0.6142  0.5613  0.4277
 2806SOL    HW2 9104   4.012   5.010   6.410 -0.5436  0.5836  0.6012
 2807SOL     OW 9105   4.577   4.734   1.247 -0.0650  0.1506  0.0443
 2807SOL    HW1 9106   4.523   4.724   1.168  0.6701  1.0007 -0.5873
 2807SOL    HW2 9107   4.553   4.660   1.302 -0.8618 -0.2548 -0.8245
 2808SOL     OW 9108   4.204   5.451   7.028  0.2853  0.1336 -0.6594
 2808SOL    HW1 9109   4.163   5.513   6.967 -2.0023 -1.8228 -1.2420
 2808SOL    HW2 9110   4.245   5.386   6.971 -0.3060 -0.7343 -0.1043
 2809SOL     OW 9111   0.165   0.711   6.778 -0.0645  0.4870  0.1272
 2809SOL    HW1 9112   0.144   0.725   6.685  0.4595 -1.3293 -0.2912
 2809SOL    HW2 9113   0.187   0.799   6.810 -0.6142  1.2168 -1.3543
 2810SOL     OW 9114   4.514   4.568   0.445 -0.3742  0.5210 -0.7410
 2810SOL    HW1 9115   4.482   4.492   0.397  0.5551 -0.3517 -0.0441
 2810SOL    HW2 9116   4.592   4.596   0.397 -0.1668  0.4342 -0.4579
 2811SOL     OW 9117   6.125   2.462   0.414 -0.4418 -0.6781  0.2353
 2811SOL    HW1 9118   6.134   2.395   0.347 -1.9691 -0.8209  0.1239
 2811SOL    HW2 9119   6.147   2.544   0.370 -2.5070 -0.6249 -0.8052
 2812SOL     OW 9120   1.146   0.807   1.783  0.1329 -0.0469  0.1365
 2812SOL    HW1 9121   1.104   0.731   1.742 -0.9505 -0.4118  1.8068
 2812SOL    HW2 9122   1.078   0.875   1.782  0.2350  0.0744  0.8804
 2813SOL     OW 9123   3.379   3.536   7.574 -0.2081  0.0062 -0.0516
 2813SOL    HW1 9124   3.303   3.505   7.623 -0.3842  0.7960  0.1895
 2813SOL    HW2 9125   3.415   3.606   7.628  0.8338 -0.5111 -0.0542
 2814SOL     OW 9126   7.633   2.183   3.385 -0.1038  0.6272  0.0427
 2814SOL    HW1 9127   7.543   2.154   3.393 -0.4763  1.5768 -0.5309
 2814SOL    HW2 9128   7.667   2.184   3.475  0.3646 -2.7614  0.0508
 2815SOL     OW 9129   5.151   1.114   0.961  0.1101  0.0045  0.1465
 2815SOL    HW1 9130   5.077   1.057   0.943  0.7012 -0.6907 -0.1433
 2815SOL    HW2 9131   5.134   1.194   0.910 -0.0991 -0.4296 -0.4752
 2816SOL     OW 9132   7.218   6.114   6.528 -0.0673 -0.6279 -0.0243
 2816SOL    HW1 9133   7.282   6.049   6.557 -0.1537  0.3818  2.7230
 2816SOL    HW2 9134   7.265   6.167   6.464  0.8123 -1.8304 -0.4103
 2817SOL     OW 9135   3.821   3.132   7.562 -0.8038 -0.7183  0.0330
 2817SOL    HW1 9136   3.826   3.063   7.495 -0.9240 -0.7684  0.0753
 2817SOL    HW2 9137   3.749   3.188   7.534 -0.3290 -0.2758 -0.3138
 2818SOL     OW 9138   7.745   2.136   2.350  1.0933  0.0279 -0.2658
 2818SOL    HW1 9139   7.827   2.086   2.350  1.5993  0.8391 -0.5457
 2818SOL    HW2 9140   7.721   2.142   2.442  2.1006  0.9809 -0.0496
 2819SOL     OW 9141   6.264   0.963   5.224  0.1196  0.1698  0.6448
 2819SOL    HW1 9142   6.170   0.971   5.205 -0.0352  0.5663  1.5055
 2819SOL    HW2 9143   6.295   0.895   5.164 -0.2611  1.5164 -1.1719
 2820SOL     OW 9144   3.059   6.122   2.355  0.8325  0.0922 -0.0748
 2820SOL    HW1 9145   3.097   6.035   2.369 -1.1140 -0.9385 -0.8795
 2820SOL    HW2 9146   3.097   6.152   2.273 -0.0431 -0.9382 -0.8855
 2821SOL     OW 9147   6.224   7.394   6.561 -0.1713  0.4604  0.3010
 2821SOL    HW1 9148   6.316   7.420   6.566 -0.3271  1.0432  0.1711
 2821SOL    HW2 9149   6.201   7.403   6.468 -1.0721  2.8308  0.6995
 2822SOL     OW 9150   5.954   0.934   4.836  0.0267 -0.0044  0.1374
 2822SOL    HW1 9151   5.870   0.889   4.840  0.1170 -0.2394 -0.4924
 2822SOL    HW2 9152   6.015   0.867   4.805 -0.0536  0.8393 -1.9496
 2823SOL     OW 9153   3.531   1.628   2.659  0.2469 -0.3257  0.1493
 2823SOL    HW1 9154   3.550   1.714   2.622 -1.1048  0.2504  0.7434
 2823SOL    HW2 9155   3.458   1.594   2.607 -0.6469 -0.1711  1.2722
 2824SOL     OW 9156   3.408   4.399   1.138  0.2629 -0.3194 -0.0481
 2824SOL    HW1 9157   3.469   4.419   1.209 -0.0401  0.1415  0.0804
 2824SOL    HW2 9158   3.385   4.484   1.101 -1.7961 -0.3070  1.1427
 2825SOL     OW 9159   6.240   6.561   4.553 -0.2708  0.0693 -0.1388
 2825SOL    HW1 9160   6.236   6.630   4.619 -1.0895  0.4225 -0.5296
 2825SOL    HW2 9161   6.152   6.561   4.513 -0.6141 -1.8732  0.5131
 2826SOL     OW 9162   0.626   5.556   3.899  0.4937 -0.1376  0.4794
 2826SOL    HW1 9163   0.663   5.621   3.839 -1.9125  1.2791  0.3978
 2826SOL    HW2 9164   0.692   5.546   3.967  2.1252  0.2526 -0.9676
 2827SOL     OW 9165   6.068   0.671   5.206 -0.5111  0.0739 -0.0781
 2827SOL    HW1 9166   5.988   0.633   5.170 -1.0787  0.8680  0.3246
 2827SOL    HW2 9167   6.086   0.620   5.285  0.0184 -0.8311 -0.7627
 2828SOL     OW 9168   4.715   4.966   2.271  0.7603 -0.0483  0.2764
 2828SOL    HW1 9169   4.753   4.908   2.205 -2.6958 -2.2318 -0.1089
 2828SOL    HW2 9170   4.666   5.031   2.220 -1.1356 -1.1689  0.5562
 2829SOL     OW 9171   2.936   1.937   1.366  0.1515  0.1587  0.4702
 2829SOL    HW1 9172   2.909   1.977   1.449  2.0868  0.8229  0.8294
 2829SOL    HW2 9173   2.898   1.849   1.368 -0.5565  0.4675  1.6596
 2830SOL     OW 9174   1.590   0.324   4.947 -0.3533 -0.4069  0.0797
 2830SOL    HW1 9175   1.509   0.348   4.900 -0.6738  1.0207  1.2606
 2830SOL    HW2 9176   1.591   0.383   5.023  2.2103  0.1779 -0.3234
 2831SOL     OW 9177   5.479   3.411   2.413 -0.1141  0.1338  0.3997
 2831SOL    HW1 9178   5.453   3.500   2.438  0.5543 -0.0529  1.8377
 2831SOL    HW2 9179   5.513   3.372   2.493 -0.6410 -1.5263 -0.1311
 2832SOL     OW 9180   7.177   7.535   6.670 -0.0001  0.2511  0.5627
 2832SOL    HW1 9181   7.160   7.464   6.608  0.2414  0.2513  0.4949
 2832SOL    HW2 9182   7.197   7.610   6.615  3.5734 -0.5181  0.5700
 2833SOL     OW 9183   2.695   3.973   1.974 -0.0271  0.2507  0.3361
 2833SOL    HW1 9184   2.678   3.919   2.051 -0.0939 -0.0254  0.1289
 2833SOL    HW2 9185   2.618   3.960   1.918 -0.5982  1.4668  0.7888
 2834SOL     OW 9186   7.496   7.564   1.457 -0.1075 -0.1674 -0.0849
 2834SOL    HW1 9187   7.475   7.488   1.403  2.0617 -1.5587  0.8893
 2834SOL    HW2 9188   7.584   7.546   1.491  0.4871  2.7786  0.2270
 2835SOL     OW 9189   7.172   2.923   5.496  0.1604 -0.1793 -0.6230
 2835SOL    HW1 9190   7.086   2.895   5.527  0.6868  0.4467  1.6051
 2835SOL    HW2 9191   7.179   2.885   5.409 -3.4241  1.9382 -2.0471
 2836SOL     OW 9192   5.699   3.220   0.520 -0.2187 -0.8508 -0.4782
 2836SOL    HW1 9193   5.765   3.270   0.566 -1.7297  0.5839  0.2375
 2836SOL    HW2 9194   5.681   3.146   0.578 -0.6259 -0.1796  0.2672
 2837SOL     OW 9195   4.002   4.078   4.335  0.3869  0.0455  0.2648
 2837SOL    HW1 9196   3.919   4.051   4.295  1.0113  0.9976 -1.8471
 2837SOL    HW2 9197   3.996   4.173   4.340  1.6735  0.2191 -0.8194
 2838SOL     OW 9198   3.311   7.531   7.606  0.3169  0.4982  0.0608
 2838SOL    HW1 9199   3.249   7.493   7.669  1.5307 -0.1735  0.9031
 2838SOL    HW2 9200   3.381   7.466   7.600  1.9398  2.0969  0.7118
 2839SOL     OW 9201   5.707   3.979   6.187 -0.4489 -0.2150 -0.6266
 2839SOL    HW1 9202   5.735   4.025   6.108 -0.0497 -0.7174 -0.7856
 2839SOL    HW2 9203   5.708   4.045   6.256 -1.2607  0.3391 -1.1313
 2840SOL     OW 9204   7.347   2.909   4.948 -0.1799  0.1245  0.0315
 2840SOL    HW1 9205   7.379   2.996   4.925 -0.3563  0.1190 -0.2365
 2840SOL    HW2 9206   7.273   2.893   4.889 -1.6323  0.7389  1.5852
 2841SOL     OW 9207   7.665   6.971   4.794  0.5352  0.0414  0.0891
 2841SOL    HW1 9208   7.725   6.962   4.720 -0.6955 -0.5421 -0.8759
 2841SOL    HW2 9209   7.722   6.980   4.870  1.8337  0.3955 -0.8912
 2842SOL     OW 9210   3.873   1.076   6.814 -0.5736  0.6168  0.5085
 2842SOL    HW1 9211   3.794   1.069   6.867 -0.4716 -1.3418  0.4822
 2842SOL    HW2 9212   3.929   1.138   6.861 -2.1823  2.1865  0.4113
 2843SOL     OW 9213   2.592   3.957   5.660 -0.0828 -0.6171  1.1325
 2843SOL    HW1 9214   2.660   3.932   5.723 -1.0900 -2.4730  1.5474
 2843SOL    HW2 9215   2.587   3.883   5.600  0.2506  0.7485 -0.6584
 2844SOL     OW 9216   4.338   2.600   2.064 -1.1311  1.2714  0.5160
 2844SOL    HW1 9217   4.337   2.687   2.023  1.4161  1.0593 -0.1585
 2844SOL    HW2 9218   4.295   2.543   2.000  0.7953  1.3533 -0.9283
 2845SOL     OW 9219   3.828   6.726   5.672 -0.3639 -0.7931  0.1176
 2845SOL    HW1 9220   3.921   6.728   5.653  0.0099 -1.2554  1.7860
 2845SOL    HW2 9221   3.813   6.799   5.732 -1.0713 -0.8035 -0.0278
 2846SOL     OW 9222   0.320   0.224   5.629  0.8572 -0.1534 -0.2053
 2846SOL    HW1 9223   0.302   0.310   5.667  0.9241 -0.3752  0.3273
 2846SOL    HW2 9224   0.404   0.235   5.585 -0.0059  0.5776 -1.7614
 2847SOL     OW 9225   7.688   4.658   3.576  0.1953  0.8949 -0.0659
 2847SOL    HW1 9226   7.669   4.675   3.669 -1.7851  1.3590 -0.5088
 2847SOL    HW2 9227   7.608   4.685   3.530  1.2678  1.0039 -1.9572
 2848SOL     OW 9228   4.248   5.450   4.361 -0.2077  0.5041 -0.0479
 2848SOL    HW1 9229   4.221   5.518   4.423 -0.7256  0.8594 -0.6397
 2848SOL    HW2 9230   4.216   5.368   4.399 -1.4620  0.8373 -0.3508
 2849SOL     OW 9231   6.480   3.981   2.922  0.9729 -0.1408  0.2962
 2849SOL    HW1 9232   6.568   4.018   2.937 -0.2454  2.8839  0.6756
 2849SOL    HW2 9233   6.466   3.991   2.828  1.0344 -0.7141  0.2205
 2850SOL     OW 9234   5.460   6.222   7.043  0.4915  0.1891  0.1363
 2850SOL    HW1 9235   5.429   6.166   7.114  1.4749 -1.0682 -0.3911
 2850SOL    HW2 9236   5.552   6.239   7.066  1.2262 -1.3322 -1.4648
 2851SOL     OW 9237   2.832   5.561   3.388 -0.1883 -0.5047 -0.5125
 2851SOL    HW1 9238   2.927   5.569   3.382  0.0238 -2.1510  0.1451
 2851SOL    HW2 9239   2.798   5.628   3.328  1.3132  1.5152  0.7682
 2852SOL     OW 9240   5.142   0.209   5.596 -0.0239  0.2652  0.0853
 2852SOL    HW1 9241   5.128   0.194   5.502  0.6750  0.4522 -0.0515
 2852SOL    HW2 9242   5.179   0.127   5.627 -0.9184 -0.0538  0.3513
 2853SOL     OW 9243   7.473   5.015   3.677 -0.6194 -0.4194 -0.6070
 2853SOL    HW1 9244   7.471   5.062   3.593 -0.5835 -1.0688 -0.9838
 2853SOL    HW2 9245   7.563   5.023   3.707 -0.7008  0.0650 -0.4809
 2854SOL     OW 9246   3.387   3.170   3.966 -0.3751 -0.1893  0.2958
 2854SOL    HW1 9247   3.457   3.118   4.004  0.8262  1.2497  0.1410
 2854SOL    HW2 9248   3.415   3.261   3.978 -1.7993  0.4009 -0.5536
 2855SOL     OW 9249   6.439   5.585   3.464  0.3416 -0.8066  0.0086
 2855SOL    HW1 9250   6.516   5.620   3.420  0.6042  0.6643  1.5143
 2855SOL    HW2 9251   6.449   5.614   3.555 -1.9413 -0.6318  0.2551
 2856SOL     OW 9252   3.889   6.794   4.276 -0.4393  0.1852  0.5652
 2856SOL    HW1 9253   3.834   6.870   4.296  0.1901  1.5343 -2.3016
 2856SOL    HW2 9254   3.978   6.823   4.295 -0.4040 -0.9047  2.2142
 2857SOL     OW 9255   5.202   4.303   0.475  0.3130  0.4000 -0.0031
 2857SOL    HW1 9256   5.229   4.248   0.549 -0.9896  0.4094  0.5125
 2857SOL    HW2 9257   5.192   4.390   0.513  0.3839  0.5632 -0.3625
 2858SOL     OW 9258   3.720   2.678   7.097  0.0758 -0.2296  0.1451
 2858SOL    HW1 9259   3.760   2.739   7.158 -2.5936  1.7804  0.0779
 2858SOL    HW2 9260   3.757   2.702   7.012  1.0826 -0.5884  0.4679
 2859SOL     OW 9261   2.769   5.727   7.614  0.1518 -0.7145 -0.2363
 2859SOL    HW1 9262   2.720   5.761   7.689  0.3741 -1.3153  0.1936
 2859SOL    HW2 9263   2.841   5.677   7.653 -0.1771 -1.6902 -0.8341
 2860SOL     OW 9264   5.025   2.794   5.864  0.3495 -0.6333 -0.1379
 2860SOL    HW1 9265   5.114   2.775   5.893  0.4154 -1.0775 -0.6032
 2860SOL    HW2 9266   5.002   2.877   5.907  0.5495 -1.1036  0.9106
 2861SOL     OW 9267   4.753   2.829   7.411 -0.2557 -0.1743  0.0651
 2861SOL    HW1 9268   4.708   2.771   7.472 -0.0965 -0.4857 -0.1135
 2861SOL    HW2 9269   4.757   2.780   7.329  2.5679 -1.1941  0.6911
 2862SOL     OW 9270   7.521   6.202   0.406  0.1991  0.3946  0.0648
 2862SOL    HW1 9271   7.590   6.137   0.421  0.6074  0.8911  0.3655
 2862SOL    HW2 9272   7.518   6.212   0.311  1.7344  1.6189  0.1082
 2863SOL     OW 9273   0.820   5.185   0.462 -0.0038  0.4652  0.2900
 2863SOL    HW1 9274   0.729   5.169   0.436  0.9508 -5.4326 -0.8896
 2863SOL    HW2 9275   0.857   5.233   0.388 -1.5101  0.3231 -0.6101
 2864SOL     OW 9276   4.765   4.455   4.360  0.2676 -0.4611  0.1904
 2864SOL    HW1 9277   4.845   4.486   4.317  0.4023  0.0233  0.7842
 2864SOL    HW2 9278   4.740   4.377   4.310  0.2973  0.2094 -0.9082
 2865SOL     OW 9279   1.052   3.972   0.923 -0.4444 -0.2163 -0.4374
 2865SOL    HW1 9280   1.079   3.913   0.993  0.0521 -0.4752 -0.8417
 2865SOL    HW2 9281   0.972   3.933   0.887 -1.1320  0.3208  0.4775
 2866SOL     OW 9282   5.963   6.499   5.343  0.1711  0.2483 -0.1697
 2866SOL    HW1 9283   6.036   6.443   5.316 -0.1443  0.8162 -2.4069
 2866SOL    HW2 9284   5.998   6.588   5.337 -0.7323  0.5444 -1.5437
 2867SOL     OW 9285   7.164   2.986   4.699  0.1726 -0.1391  0.2589
 2867SOL    HW1 9286   7.191   3.075   4.678  0.7880  0.1311  2.0245
 2867SOL    HW2 9287   7.094   2.996   4.763  0.6872 -0.9212  0.9627
 2868SOL     OW 9288   1.576   0.488   5.877 -0.2048  0.4343 -0.0946
 2868SOL    HW1 9289   1.485   0.459   5.888  0.4852 -1.5366  1.0156
 2868SOL    HW2 9290   1.607   0.503   5.967  0.6736  0.6797 -0.4315
 2869SOL     OW 9291   7.500   0.318   4.440  0.1567 -0.0319 -0.3554
 2869SOL    HW1 9292   7.525   0.403   4.477 -0.2345 -0.0474 -0.0530
 2869SOL    HW2 9293   7.445   0.277   4.507 -0.4048 -0.1410 -0.8710
 2870SOL     OW 9294   0.277   6.320   3.390  0.3109 -0.3760  0.0294
 2870SOL    HW1 9295   0.221   6.371   3.332  0.6461 -1.0602 -0.9277
 2870SOL    HW2 9296   0.270   6.231   3.356  1.3541 -0.6002  0.3832
 2871SOL     OW 9297   6.522   0.464   6.215  0.0575  0.6582  0.3939
 2871SOL    HW1 9298   6.571   0.524   6.159  1.5024  0.3480  1.2678
 2871SOL    HW2 9299   6.545   0.490   6.304 -0.1168 -0.5251  0.7976
 2872SOL     OW 9300   6.238   7.449   0.098  0.6387 -0.2263 -0.0166
 2872SOL    HW1 9301   6.240   7.507   0.174  0.6577  1.5696 -1.3409
 2872SOL    HW2 9302   6.303   7.381   0.119  0.3033 -0.0568  1.7584
 2873SOL     OW 9303   2.646   2.322   5.817 -0.4239  0.3537  0.1044
 2873SOL    HW1 9304   2.575   2.294   5.759 -0.4494  0.1583  0.2277
 2873SOL    HW2 9305   2.725   2.285   5.777 -0.2993  1.1371 -0.4063
 2874SOL     OW 9306   0.595   2.778   1.220 -0.1794  0.4901 -0.2348
 2874SOL    HW1 9307   0.680   2.814   1.244 -0.0060  0.8306 -1.2944
 2874SOL    HW2 9308   0.536   2.854   1.220 -0.2190  0.4622 -0.6554
 2875SOL     OW 9309   1.483   5.758   7.431  0.3765  0.4028  0.5223
 2875SOL    HW1 9310   1.421   5.816   7.387  0.7083  1.0815  0.9196
 2875SOL    HW2 9311   1.458   5.670   7.403  0.0363  0.7524 -0.3175
 2876SOL     OW 9312   2.089   3.114   7.364  0.6801  0.4140 -0.7889
 2876SOL    HW1 9313   2.143   3.044   7.402 -0.6777  0.2142  0.8630
 2876SOL    HW2 9314   2.107   3.190   7.419 -0.5341  0.3953 -0.3368
 2877SOL     OW 9315   0.198   7.272   0.587 -0.2092 -0.2240  0.2531
 2877SOL    HW1 9316   0.190   7.257   0.493 -0.7371 -0.0292  0.2609
 2877SOL    HW2 9317   0.244   7.195   0.620 -0.3477 -0.4665 -0.1123
 2878SOL     OW 9318   6.215   5.743   5.200  0.1518  0.5685 -0.2620
 2878SOL    HW1 9319   6.223   5.765   5.107  2.1186 -1.8854 -0.7923
 2878SOL    HW2 9320   6.151   5.672   5.202  2.8523 -2.1076 -0.4440
 2879SOL     OW 9321   3.740   4.364   5.044 -0.0998  0.0770  0.4583
 2879SOL    HW1 9322   3.669   4.412   5.088 -1.4697  0.0296 -1.5461
 2879SOL    HW2 9323   3.814   4.369   5.105 -1.7112  0.3993  2.5038
 2880SOL     OW 9324   4.557   6.683   2.107 -0.4968 -0.0943  0.1772
 2880SOL    HW1 9325   4.491   6.666   2.175  0.0195 -0.4320  0.6069
 2880SOL    HW2 9326   4.515   6.745   2.048 -0.4104  1.4202  1.6530
 2881SOL     OW 9327   6.441   6.703   5.431  0.2601 -0.4921 -0.2654
 2881SOL    HW1 9328   6.529   6.736   5.451  0.9282 -0.8834 -2.3727
 2881SOL    HW2 9329   6.386   6.782   5.433  0.2914 -0.4242  2.5019
 2882SOL     OW 9330   5.845   1.977   6.111 -0.0989 -0.5831  0.0433
 2882SOL    HW1 9331   5.917   1.977   6.173  1.5373  2.2062 -1.6664
 2882SOL    HW2 9332   5.780   2.037   6.149 -1.2704 -2.4629  1.1825
 2883SOL     OW 9333   2.637   0.121   6.615 -0.1974 -0.4537  0.0001
 2883SOL    HW1 9334   2.726   0.114   6.580  0.1559  1.3326  0.4319
 2883SOL    HW2 9335   2.594   0.185   6.557 -0.9270 -0.6496  0.3153
 2884SOL     OW 9336   1.994   1.970   7.778 -0.3256  0.3621 -0.0481
 2884SOL    HW1 9337   1.989   1.900   7.713 -1.2279 -1.0334  1.4518
 2884SOL    HW2 9338   2.078   2.014   7.760  0.7842 -1.7740 -0.3949
 2885SOL     OW 9339   3.185   3.503   1.050  0.1399 -0.6113  0.4980
 2885SOL    HW1 9340   3.180   3.439   1.121 -1.0039 -2.2103 -0.9375
 2885SOL    HW2 9341   3.260   3.474   0.998  1.4576  1.0081  1.4091
 2886SOL     OW 9342   2.041   5.843   0.845 -0.1430  0.4640  0.1040
 2886SOL    HW1 9343   1.961   5.896   0.841  0.1823  1.1061  1.3787
 2886SOL    HW2 9344   2.054   5.812   0.756 -0.9696  1.6365 -0.4517
 2887SOL     OW 9345   6.596   2.568   1.987  0.6915  0.1537 -0.4612
 2887SOL    HW1 9346   6.539   2.519   2.047  0.9292 -0.3473 -0.6345
 2887SOL    HW2 9347   6.625   2.502   1.923  1.0784  0.5081 -0.6534
 2888SOL     OW 9348   7.773   2.277   1.576  0.1958  0.0150 -0.1223
 2888SOL    HW1 9349   7.801   2.284   1.667  1.6851  1.4862 -0.6492
 2888SOL    HW2 9350   7.761   2.183   1.561 -0.5376 -0.2207  1.6974
 2889SOL     OW 9351   3.234   0.091   1.670  0.0875 -0.6831 -0.5798
 2889SOL    HW1 9352   3.189   0.100   1.755 -0.0592  0.3445 -0.7481
 2889SOL    HW2 9353   3.264   0.000   1.668  0.1024 -0.7241  0.5847
 2890SOL     OW 9354   0.078   0.940   3.364 -0.1533 -0.5327 -0.0194
 2890SOL    HW1 9355   0.009   0.978   3.309  0.4273 -1.9827 -1.8465
 2890SOL    HW2 9356   0.101   0.859   3.320  2.9381  0.0231  0.3929
 2891SOL     OW 9357   3.466   6.504   0.684  0.3408 -0.5540 -0.6687
 2891SOL    HW1 9358   3.525   6.430   0.669  1.2234  0.1025 -0.5377
 2891SOL    HW2 9359   3.503   6.550   0.759  0.0213  0.2262 -0.9663
 2892SOL     OW 9360   2.589   3.248   5.886  0.0451 -0.1636 -0.1883
 2892SOL    HW1 9361   2.605   3.302   5.809  0.4161  0.5955  0.4045
 2892SOL    HW2 9362   2.638   3.291   5.956 -2.3743  0.7169  1.0967
 2893SOL     OW 9363   6.359   0.491   0.689  0.1496 -0.2907 -0.3324
 2893SOL    HW1 9364   6.365   0.395   0.698 -1.6683 -0.3584  0.4679
 2893SOL    HW2 9365   6.283   0.505   0.633  0.5047  0.7028 -0.5830
 2894SOL     OW 9366   3.625   6.041   3.772  0.1631 -0.3986  0.2947
 2894SOL    HW1 9367   3.597   6.129   3.745  0.4205 -0.5512 -0.5065
 2894SOL    HW2 9368   3.611   6.039   3.866 -0.1862  0.3809  0.2669
 2895SOL     OW 9369   5.920   1.937   4.931 -0.0407 -0.1457  0.0279
 2895SOL    HW1 9370   5.984   2.004   4.904 -0.9225  0.3481 -0.8665
 2895SOL    HW2 9371   5.954   1.906   5.015  0.9770  0.6476 -0.0609
 2896SOL     OW 9372   1.648   4.393   4.497 -0.4276 -0.5189 -0.0032
 2896SOL    HW1 9373   1.610   4.360   4.416  0.6344 -0.0628 -0.7141
 2896SOL    HW2 9374   1.741   4.372   4.491 -0.1762  0.2908  0.6954
 2897SOL     OW 9375   7.181   4.257   7.263 -0.4768 -0.4478  0.2550
 2897SOL    HW1 9376   7.111   4.197   7.290  0.7136 -1.0126  2.3236
 2897SOL    HW2 9377   7.236   4.206   7.204 -1.1974 -0.3393 -0.5285
 2898SOL     OW 9378   1.280   3.797   4.255  0.3103 -0.2019  0.5764
 2898SOL    HW1 9379   1.208   3.821   4.197 -0.2076  0.5788  1.5145
 2898SOL    HW2 9380   1.293   3.704   4.240 -2.0084 -0.7378  1.5948
 2899SOL     OW 9381   2.460   2.370   0.933 -0.0595 -0.2644  0.8259
 2899SOL    HW1 9382   2.467   2.284   0.974 -1.6740 -0.3092  1.1117
 2899SOL    HW2 9383   2.458   2.353   0.839 -0.0502 -0.5147  0.8717
 2900SOL     OW 9384   7.666   4.951   0.963 -0.1314 -0.5469 -0.4346
 2900SOL    HW1 9385   7.659   5.020   0.897 -0.4064 -0.2858 -0.1328
 2900SOL    HW2 9386   7.647   4.995   1.046  3.9835  0.0798  0.3964
 2901SOL     OW 9387   2.736   4.068   2.234 -0.8773  0.0067 -0.1946
 2901SOL    HW1 9388   2.740   4.087   2.140 -2.1856 -2.7704 -0.9183
 2901SOL    HW2 9389   2.827   4.063   2.262 -0.4644  0.6170 -1.3649
 2902SOL     OW 9390   1.345   3.486   3.117 -0.4005 -0.8731  0.1792
 2902SOL    HW1 9391   1.338   3.425   3.044  2.4355  0.0015 -0.9778
 2902SOL    HW2 9392   1.359   3.431   3.194 -2.1560 -1.7723 -0.1151
 2903SOL     OW 9393   3.640   1.432   6.799  0.1053  0.2240 -0.0957
 2903SOL    HW1 9394   3.586   1.356   6.820  1.1649 -1.0740 -1.7683
 2903SOL    HW2 9395   3.577   1.503   6.788 -1.0641 -0.7453  0.0692
 2904SOL     OW 9396   4.124   4.042   5.059 -0.0538 -0.0113 -0.5094
 2904SOL    HW1 9397   4.081   4.042   5.144 -1.6730 -2.7904 -1.1885
 2904SOL    HW2 9398   4.052   4.041   4.996  1.0865  0.2030 -1.8768
 2905SOL     OW 9399   7.577   0.780   7.055  0.2211  0.4582 -0.1696
 2905SOL    HW1 9400   7.498   0.827   7.080  0.0790  0.3017 -0.3228
 2905SOL    HW2 9401   7.550   0.725   6.980 -0.0325 -1.1279  1.0328
 2906SOL     OW 9402   1.611   2.097   1.352 -0.6771 -0.3244 -0.5363
 2906SOL    HW1 9403   1.549   2.161   1.388 -0.1249 -0.4417  0.6927
 2906SOL    HW2 9404   1.601   2.020   1.408 -0.2065 -0.7468 -1.0174
 2907SOL     OW 9405   7.562   0.790   3.582 -0.0084 -0.0344  0.1910
 2907SOL    HW1 9406   7.657   0.794   3.595 -0.0014 -0.2414  0.1977
 2907SOL    HW2 9407   7.532   0.722   3.642 -0.3373  0.9308  1.1739
 2908SOL     OW 9408   4.124   4.281   1.391 -0.1588 -0.2351 -0.1270
 2908SOL    HW1 9409   4.096   4.203   1.342 -1.2804  0.6855 -1.0192
 2908SOL    HW2 9410   4.043   4.331   1.404  0.8731  2.2920 -2.3609
 2909SOL     OW 9411   2.494   5.814   6.663 -0.1112  0.1150 -0.0207
 2909SOL    HW1 9412   2.560   5.745   6.658 -0.5714 -0.5098  1.9080
 2909SOL    HW2 9413   2.543   5.895   6.648  0.1683 -0.5931 -4.1504
 2910SOL     OW 9414   6.746   5.736   2.876 -0.4623  0.2688  0.5193
 2910SOL    HW1 9415   6.756   5.730   2.971 -0.4923 -0.4371  0.4822
 2910SOL    HW2 9416   6.654   5.715   2.860 -0.2294 -0.5525  0.2567
 2911SOL     OW 9417   2.759   3.972   1.042  0.0563 -0.3354 -0.0392
 2911SOL    HW1 9418   2.819   4.046   1.028 -1.1454  0.3009 -2.2241
 2911SOL    HW2 9419   2.816   3.895   1.038  0.8814  0.2994 -1.2149
 2912SOL     OW 9420   3.386   0.978   3.667  0.1349  0.3362  0.3588
 2912SOL    HW1 9421   3.426   0.968   3.580  1.1484  0.7683  0.7580
 2912SOL    HW2 9422   3.364   1.071   3.674 -1.1523  0.0700  0.0720
 2913SOL     OW 9423   0.136   5.663   4.308 -0.4001  0.3937 -0.1041
 2913SOL    HW1 9424   0.169   5.696   4.392  0.1206  0.3598 -0.2890
 2913SOL    HW2 9425   0.169   5.725   4.244  2.7541 -1.7004 -0.7745
 2914SOL     OW 9426   3.679   6.746   2.713  0.5509  0.1123 -0.2116
 2914SOL    HW1 9427   3.763   6.702   2.724  0.7011  0.7574  1.4889
 2914SOL    HW2 9428   3.690   6.831   2.755 -1.3511 -0.3204  1.3360
 2915SOL     OW 9429   5.805   4.242   0.498 -0.2779  0.0652 -0.0168
 2915SOL    HW1 9430   5.718   4.274   0.523 -1.1896  0.3688 -3.1299
 2915SOL    HW2 9431   5.864   4.314   0.518 -1.1326  0.7696  0.0153
 2916SOL     OW 9432   2.245   2.736   5.983 -0.6091 -0.4966  0.1142
 2916SOL    HW1 9433   2.225   2.828   5.966  1.0318  0.1983  1.5337
 2916SOL    HW2 9434   2.336   2.726   5.955 -0.9380 -1.8546 -0.5422
 2917SOL     OW 9435   6.215   2.791   1.277  0.1656  0.1183  0.4147
 2917SOL    HW1 9436   6.201   2.852   1.205  0.9680 -1.6596 -1.3277
 2917SOL    HW2 9437   6.310   2.794   1.292  0.1906 -0.6137  0.3961
 2918SOL     OW 9438   1.282   2.837   0.834  0.2084  0.2307 -0.0178
 2918SOL    HW1 9439   1.205   2.893   0.831 -1.7482 -2.2856 -0.5864
 2918SOL    HW2 9440   1.256   2.757   0.787  2.4104 -1.6166  1.6354
 2919SOL     OW 9441   5.089   5.572   1.978 -0.3236  0.4118 -0.4799
 2919SOL    HW1 9442   5.065   5.480   1.961 -1.3407  0.6130 -0.1950
 2919SOL    HW2 9443   5.020   5.605   2.035  1.6714  0.5043  2.0106
 2920SOL     OW 9444   5.495   3.284   2.886  0.0706 -0.5017  0.1671
 2920SOL    HW1 9445   5.519   3.346   2.955  0.7759  0.2541 -0.7320
 2920SOL    HW2 9446   5.400   3.289   2.881  0.1020  0.3710  0.2569
 2921SOL     OW 9447   4.353   2.676   6.886  0.1997  0.1298  0.1788
 2921SOL    HW1 9448   4.291   2.619   6.840  1.1738 -1.6921  1.0091
 2921SOL    HW2 9449   4.298   2.732   6.941 -0.7802 -2.3793  1.9645
 2922SOL     OW 9450   6.182   3.246   7.158 -0.6609 -0.1921 -0.4213
 2922SOL    HW1 9451   6.114   3.295   7.205 -0.6352  1.1513 -1.7205
 2922SOL    HW2 9452   6.146   3.234   7.070  0.8133  0.6472 -1.1741
 2923SOL     OW 9453   7.679   5.314   7.625 -0.3545 -0.0648  0.4958
 2923SOL    HW1 9454   7.742   5.358   7.568 -0.0386  0.4018  1.1905
 2923SOL    HW2 9455   7.603   5.372   7.628 -0.9738 -0.7816 -0.6035
 2924SOL     OW 9456   3.214   4.780   3.637 -0.5472  0.2048  0.0060
 2924SOL    HW1 9457   3.302   4.790   3.673 -0.7971  0.3572  0.5945
 2924SOL    HW2 9458   3.186   4.693   3.664  0.3816 -0.9096 -2.3592
 2925SOL     OW 9459   6.820   3.217   1.218 -0.3472  0.1294 -0.2188
 2925SOL    HW1 9460   6.902   3.205   1.171  0.2415 -0.8573  1.0042
 2925SOL    HW2 9461   6.801   3.310   1.210  0.7816  0.3304 -0.6933
 2926SOL     OW 9462   7.086   5.074   3.264 -0.0083  0.0205  0.3634
 2926SOL    HW1 9463   7.030   5.063   3.187  0.6102 -0.5563 -0.0291
 2926SOL    HW2 9464   7.155   5.134   3.234 -0.7484  1.2276  1.0348
 2927SOL     OW 9465   4.320   7.712   2.598  0.1961 -0.3144  0.0262
 2927SOL    HW1 9466   4.343   7.800   2.570 -1.1234  0.1484  0.3064
 2927SOL    HW2 9467   4.268   7.677   2.525  0.7740 -0.8875 -0.1145
 2928SOL     OW 9468   5.142   3.346   3.781  0.4210  0.1546 -0.0970
 2928SOL    HW1 9469   5.067   3.377   3.833  1.0491  0.2120  0.7941
 2928SOL    HW2 9470   5.154   3.255   3.809  0.4901  0.0402 -0.4861
 2929SOL     OW 9471   1.792   7.431   0.047  0.0612  0.1778 -0.8056
 2929SOL    HW1 9472   1.779   7.337   0.056  0.7293  0.0726 -0.8478
 2929SOL    HW2 9473   1.705   7.466   0.030 -0.2643 -0.3721 -0.3015
 2930SOL     OW 9474   6.769   3.042   7.728  0.5846 -0.2950  0.8232
 2930SOL    HW1 9475   6.730   3.097   7.795 -0.4123 -0.0509  0.0760
 2930SOL    HW2 9476   6.816   2.974   7.776 -1.1181 -0.8354  1.7760
 2931SOL     OW 9477   1.669   0.814   6.038  0.0880  0.4254 -0.0159
 2931SOL    HW1 9478   1.655   0.738   6.094 -0.1330  0.7324  0.3410
 2931SOL    HW2 9479   1.765   0.821   6.031  0.1206 -0.4768 -0.8597
 2932SOL     OW 9480   4.576   2.097   4.999  0.2006 -0.1778 -0.5841
 2932SOL    HW1 9481   4.531   2.173   5.037 -0.4147 -0.7480 -0.1472
 2932SOL    HW2 9482   4.665   2.101   5.034 -0.4727 -0.9533  1.3351
 2933SOL     OW 9483   0.233   6.071   0.526 -0.6217  0.0187  0.5238
 2933SOL    HW1 9484   0.257   5.993   0.576 -2.0909 -0.2820  0.7863
 2933SOL    HW2 9485   0.200   6.037   0.443 -0.0090  0.4362  0.0948
 2934SOL     OW 9486   3.117   0.584   5.759  0.3398 -0.5533 -0.5889
 2934SOL    HW1 9487   3.136   0.675   5.783  1.0757 -1.1338  1.1640
 2934SOL    HW2 9488   3.189   0.534   5.798 -1.0276 -2.0724  0.0782
 2935SOL     OW 9489   3.419   0.695   3.310  0.1155 -0.1203 -0.3232
 2935SOL    HW1 9490   3.447   0.611   3.272 -3.0410 -1.7801  0.6217
 2935SOL    HW2 9491   3.356   0.729   3.246  1.9064  2.0031 -1.0517
 2936SOL     OW 9492   4.571   7.584   0.203  0.2404 -0.0241 -0.4175
 2936SOL    HW1 9493   4.485   7.591   0.163  0.4333 -1.0117 -1.0412
 2936SOL    HW2 9494   4.633   7.586   0.130  0.5876 -2.0095 -0.2495
 2937SOL     OW 9495   6.749   0.348   4.976 -0.2862 -0.4826 -0.6777
 2937SOL    HW1 9496   6.706   0.434   4.985 -0.5860 -0.6910 -0.0716
 2937SOL    HW2 9497   6.815   0.348   5.046 -0.9852 -1.1494  0.0024
 2938SOL     OW 9498   0.264   7.617   4.204 -0.3069  0.1627  0.3903
 2938SOL    HW1 9499   0.229   7.530   4.222  2.1060 -0.6653  1.5476
 2938SOL    HW2 9500   0.190   7.677   4.219 -1.4460 -1.5043  1.7985
 2939SOL     OW 9501   7.036   5.255   6.850  0.1234 -0.2164 -0.1482
 2939SOL    HW1 9502   7.119   5.219   6.881  0.7858  1.8628  0.6331
 2939SOL    HW2 9503   7.060   5.331   6.799 -1.2697 -0.3370 -1.0409
 2940SOL     OW 9504   4.892   5.115   7.306  0.1669 -0.1611  0.3903
 2940SOL    HW1 9505   4.879   5.138   7.398  1.9214 -1.6372  1.0544
 2940SOL    HW2 9506   4.986   5.104   7.296 -0.1675 -2.5448 -0.9323
 2941SOL     OW 9507   4.364   3.533   7.045 -0.6462  0.2936 -0.2225
 2941SOL    HW1 9508   4.339   3.474   7.115  1.4885  0.3218  0.6166
 2941SOL    HW2 9509   4.284   3.584   7.028 -1.3638 -0.0400  1.8293
 2942SOL     OW 9510   0.903   0.486   1.330 -0.1022  0.3811 -0.4994
 2942SOL    HW1 9511   0.887   0.581   1.332  0.2211  0.4723 -1.6829
 2942SOL    HW2 9512   0.851   0.454   1.257 -0.2281 -0.3724 -0.0888
 2943SOL     OW 9513   7.411   3.073   7.700 -0.0507  0.3844 -0.2266
 2943SOL    HW1 9514   7.467   3.150   7.713 -0.3240  0.5178  0.1763
 2943SOL    HW2 9515   7.391   3.074   7.606  1.0243  0.0488 -0.4744
 2944SOL     OW 9516   3.265   2.000   3.570 -0.2530 -0.1606 -0.7297
 2944SOL    HW1 9517   3.313   1.918   3.583 -0.2900  0.0418  0.9003
 2944SOL    HW2 9518   3.266   2.042   3.656 -0.0963  1.6415 -1.5749
 2945SOL     OW 9519   1.410   2.204   0.413  0.3576  0.5786 -0.4986
 2945SOL    HW1 9520   1.472   2.165   0.475  1.2832  1.1345 -1.0556
 2945SOL    HW2 9521   1.326   2.199   0.458  0.8598  0.1571  0.4328
 2946SOL     OW 9522   4.778   7.730   1.777  0.1737  0.1245 -0.4409
 2946SOL    HW1 9523   4.821   7.741   1.861 -0.9694  2.5803 -0.1106
 2946SOL    HW2 9524   4.698   7.782   1.783 -0.5168 -0.5551 -2.6469
 2947SOL     OW 9525   6.813   6.151   0.044 -0.5365 -0.6522  0.4513
 2947SOL    HW1 9526   6.842   6.141  -0.047  0.9503 -1.7335  0.9935
 2947SOL    HW2 9527   6.852   6.234   0.073 -1.7145  0.1206 -0.1258
 2948SOL     OW 9528   4.908   0.998   0.890  0.2054  0.3145 -0.4843
 2948SOL    HW1 9529   4.831   1.033   0.844 -1.9604 -3.7504 -0.4923
 2948SOL    HW2 9530   4.871   0.940   0.957  3.3386  2.0411  3.1270
 2949SOL     OW 9531   3.129   3.847   4.746 -0.2234  0.3259 -0.2795
 2949SOL    HW1 9532   3.055   3.866   4.803 -2.1821 -3.1867 -1.3279
 2949SOL    HW2 9533   3.194   3.805   4.803 -2.1673 -3.1829 -0.3185
 2950SOL     OW 9534   0.958   0.058   1.463 -0.1159  0.0323 -0.0415
 2950SOL    HW1 9535   0.959  -0.017   1.404  2.1432  0.8894 -1.2243
 2950SOL    HW2 9536   0.866   0.068   1.487 -0.8119 -1.6861 -1.7044
 2951SOL     OW 9537   0.036   4.307   2.246 -0.3732 -0.1915  0.0522
 2951SOL    HW1 9538   0.031   4.367   2.320  1.2322  1.1884 -0.8870
 2951SOL    HW2 9539   0.078   4.229   2.281  1.5495  0.9303  0.3596
 2952SOL     OW 9540   2.347   7.063   7.762 -0.3990 -0.2097  0.1068
 2952SOL    HW1 9541   2.352   6.989   7.823 -1.6737 -0.5556 -0.1893
 2952SOL    HW2 9542   2.279   7.039   7.700 -1.5903  1.6505  0.6110
 2953SOL     OW 9543   6.543   2.754   5.551  0.7773  0.9668  0.1090
 2953SOL    HW1 9544   6.532   2.847   5.569 -1.7261  0.9440 -0.8897
 2953SOL    HW2 9545   6.504   2.711   5.628 -3.1721  0.8743 -1.6830
 2954SOL     OW 9546   5.804   0.558   1.715  0.3418 -0.4663  0.3716
 2954SOL    HW1 9547   5.855   0.574   1.795  1.0939  1.7220 -0.4676
 2954SOL    HW2 9548   5.737   0.626   1.717 -0.0345 -0.8078 -0.5366
 2955SOL     OW 9549   5.383   6.431   7.607  0.2346  0.4385 -0.5642
 2955SOL    HW1 9550   5.330   6.497   7.561 -0.1946  2.5614  2.6434
 2955SOL    HW2 9551   5.473   6.452   7.582 -0.0028  1.2716 -0.7736
 2956SOL     OW 9552   2.547   2.009   7.449 -0.7590  0.0172  0.1694
 2956SOL    HW1 9553   2.477   2.074   7.439  0.7009  1.3718 -2.3480
 2956SOL    HW2 9554   2.601   2.043   7.520 -0.3745  1.2587 -0.6886
 2957SOL     OW 9555   0.182   4.620   5.741  0.1782  0.0208  0.8642
 2957SOL    HW1 9556   0.106   4.659   5.784  0.2434  2.6137 -1.1212
 2957SOL    HW2 9557   0.250   4.688   5.746  1.1688 -0.8141 -0.5263
 2958SOL     OW 9558   5.155   5.872   1.304 -0.1016  0.3169 -0.4317
 2958SOL    HW1 9559   5.186   5.788   1.339 -1.2939  0.6346  1.5324
 2958SOL    HW2 9560   5.060   5.865   1.305 -0.2014  1.2969 -1.3234
 2959SOL     OW 9561   5.174   0.137   4.227  0.0689  0.0380  0.7024
 2959SOL    HW1 9562   5.187   0.048   4.196 -1.0483  0.3615 -0.8083
 2959SOL    HW2 9563   5.250   0.186   4.194 -0.7628  0.2297 -1.0324
 2960SOL     OW 9564   2.052   5.270   5.917  0.3492  0.1766  0.3334
 2960SOL    HW1 9565   2.136   5.281   5.962 -0.2272 -2.6457  2.4361
 2960SOL    HW2 9566   2.003   5.349   5.937  1.4796  0.5935  1.5874
 2961SOL     OW 9567   5.206   4.879   6.090  0.4282 -0.6726 -0.0663
 2961SOL    HW1 9568   5.135   4.869   6.154  0.3724 -0.4881 -0.0989
 2961SOL    HW2 9569   5.259   4.800   6.100  1.0402 -0.1553  0.9644
 2962SOL     OW 9570   0.714   0.127   0.060 -0.5137  0.4603  0.0594
 2962SOL    HW1 9571   0.794   0.146   0.110 -1.0792  1.8841  0.4774
 2962SOL    HW2 9572   0.741   0.132  -0.032  0.1714 -0.5218  0.1854
 2963SOL     OW 9573   5.795   2.417   2.650  0.6711  0.4368  0.2361
 2963SOL    HW1 9574   5.775   2.349   2.713 -1.5939  0.5198 -0.2992
 2963SOL    HW2 9575   5.836   2.371   2.576 -0.1216 -0.2270  0.2029
 2964SOL     OW 9576   6.337   3.894   1.036 -0.4893 -0.2564  0.1985
 2964SOL    HW1 9577   6.317   3.814   1.084 -0.4740  0.2177  1.0140
 2964SOL    HW2 9578   6.290   3.884   0.953 -2.6601  0.0124  1.3238
 2965SOL     OW 9579   0.178   5.562   0.075  0.6889 -0.1679  0.1188
 2965SOL    HW1 9580   0.202   5.642   0.029 -0.0170  0.3614  0.6383
 2965SOL    HW2 9581   0.083   5.555   0.063  0.7586 -0.9884 -0.0160
 2966SOL     OW 9582   2.466   1.866   0.043  0.3148 -0.1621 -0.0294
 2966SOL    HW1 9583   2.436   1.850  -0.047  1.9424  1.8139 -1.0139
 2966SOL    HW2 9584   2.420   1.945   0.070  0.4227 -0.2993  0.5698
 2967SOL     OW 9585   2.649   6.789   2.086  0.1674  0.1325  0.4109
 2967SOL    HW1 9586   2.722   6.727   2.087 -1.1333 -1.5476 -1.3556
 2967SOL    HW2 9587   2.672   6.851   2.016  0.3950  0.2496  0.5892
 2968SOL     OW 9588   3.705   5.647   1.703 -0.1765  0.4681  0.4080
 2968SOL    HW1 9589   3.794   5.668   1.674 -0.4483  1.0884 -0.0089
 2968SOL    HW2 9590   3.710   5.557   1.733  0.1208 -0.2519 -1.6421
 2969SOL     OW 9591   7.098   5.297   3.427  0.3241 -0.1272 -0.0184
 2969SOL    HW1 9592   7.076   5.223   3.370 -1.1614  2.0832 -2.5696
 2969SOL    HW2 9593   7.164   5.346   3.378  0.6196  0.7133  1.1771
 2970SOL     OW 9594   4.878   0.040   5.871 -0.4830 -0.7257  0.3360
 2970SOL    HW1 9595   4.860   0.063   5.962 -0.5596 -2.5055  0.8170
 2970SOL    HW2 9596   4.798  -0.005   5.842 -0.9198  0.8533 -1.0043
 2971SOL     OW 9597   6.580   6.212   7.207 -0.6151  1.2950  0.2328
 2971SOL    HW1 9598   6.507   6.216   7.146 -1.7979  2.0355  1.6214
 2971SOL    HW2 9599   6.584   6.300   7.245  0.7015  1.1241  0.5268
 2972SOL     OW 9600   2.914   6.260   4.309 -0.1101 -0.0986 -0.4462
 2972SOL    HW1 9601   2.866   6.209   4.243 -2.1176  0.4756  0.4741
 2972SOL    HW2 9602   2.945   6.337   4.262 -1.6318  0.3680 -0.7577
 2973SOL     OW 9603   4.202   0.203   6.485  0.5346  0.3897 -0.9004
 2973SOL    HW1 9604   4.163   0.160   6.560  1.4160 -0.5663 -0.9692
 2973SOL    HW2 9605   4.178   0.149   6.410  1.2283  0.2868 -1.0555
 2974SOL     OW 9606   4.818   4.178   4.932  0.0171  0.1675 -0.0634
 2974SOL    HW1 9607   4.862   4.235   4.869  1.4656  0.0609  0.8096
 2974SOL    HW2 9608   4.835   4.089   4.898 -0.5781  0.1751 -0.3822
 2975SOL     OW 9609   7.035   2.639   2.288 -0.3175 -0.7127  0.0642
 2975SOL    HW1 9610   6.964   2.580   2.264 -0.1931 -1.3404  1.1400
 2975SOL    HW2 9611   7.115   2.585   2.281 -0.0585 -0.2920 -0.2299
 2976SOL     OW 9612   5.269   4.926   3.282  0.0772 -0.6053  0.2822
 2976SOL    HW1 9613   5.292   4.836   3.306 -0.6994 -0.5683  1.2304
 2976SOL    HW2 9614   5.353   4.970   3.272  0.4616 -1.3611  0.1220
 2977SOL     OW 9615   5.488   0.769   7.559 -0.8464 -0.0328  0.1304
 2977SOL    HW1 9616   5.548   0.765   7.485 -0.6952 -1.9954  0.3002
 2977SOL    HW2 9617   5.401   0.763   7.521 -0.9045  1.5246 -0.0304
 2978SOL     OW 9618   1.080   4.704   3.630  0.2880 -0.3466 -0.0713
 2978SOL    HW1 9619   1.094   4.647   3.554 -2.0554  0.0314 -0.8670
 2978SOL    HW2 9620   1.131   4.783   3.610  1.0283 -0.9096 -0.4460
 2979SOL     OW 9621   6.033   5.818   0.234 -0.0097  0.1546  0.2340
 2979SOL    HW1 9622   5.996   5.906   0.225  0.3573  0.1501 -1.8947
 2979SOL    HW2 9623   6.060   5.795   0.145  0.0262 -2.0680  0.7765
 2980SOL     OW 9624   1.577   3.956   1.125 -0.4325 -0.5397  0.8853
 2980SOL    HW1 9625   1.504   3.966   1.186 -2.4317  1.1680 -1.6156
 2980SOL    HW2 9626   1.613   4.045   1.117  0.2515 -0.8752  0.1114
 2981SOL     OW 9627   7.279   5.527   1.302 -0.0028  0.3801 -0.2751
 2981SOL    HW1 9628   7.213   5.491   1.360  0.4192 -1.2043 -0.7171
 2981SOL    HW2 9629   7.311   5.605   1.347 -1.5873  0.7269  0.3116
 2982SOL     OW 9630   3.096   6.914   6.304  0.2758 -0.1547 -0.3171
 2982SOL    HW1 9631   3.007   6.897   6.332 -0.3242  1.7184 -0.9358
 2982SOL    HW2 9632   3.149   6.908   6.383 -0.7426  0.8680  0.4626
 2983SOL     OW 9633   1.817   1.832   0.431  0.3410  0.0354  0.1916
 2983SOL    HW1 9634   1.883   1.841   0.362  0.8135 -1.3291  0.4353
 2983SOL    HW2 9635   1.845   1.893   0.499  1.1742 -0.2920  0.1547
 2984SOL     OW 9636   1.003   7.351   1.695  0.1866  0.2790 -0.7810
 2984SOL    HW1 9637   1.071   7.380   1.756 -0.7063 -1.6395  1.2620
 2984SOL    HW2 9638   1.045   7.284   1.642 -0.2952 -1.6785  1.2001
 2985SOL     OW 9639   5.261   2.358   2.070  0.6240  1.0033 -0.1618
 2985SOL    HW1 9640   5.335   2.397   2.116  1.0097  0.7010 -0.5221
 2985SOL    HW2 9641   5.235   2.284   2.125 -0.0089  1.6581  0.4415
 2986SOL     OW 9642   7.302   7.627   3.640 -0.0832 -0.0569 -0.1975
 2986SOL    HW1 9643   7.346   7.543   3.631 -1.1808 -0.7266  0.4017
 2986SOL    HW2 9644   7.360   7.690   3.597  0.6146 -1.1633 -0.9160
 2987SOL     OW 9645   5.694   3.716   2.918  0.5659 -0.6302 -0.0337
 2987SOL    HW1 9646   5.603   3.708   2.888  1.2235 -0.1353 -2.3633
 2987SOL    HW2 9647   5.747   3.696   2.841  2.4223  0.6017  0.8417
 2988SOL     OW 9648   1.705   3.273   7.091  0.3536  0.7984  0.6020
 2988SOL    HW1 9649   1.798   3.289   7.071 -0.3184  1.3572 -2.6248
 2988SOL    HW2 9650   1.682   3.196   7.039 -0.5856 -0.5772  2.9223
 2989SOL     OW 9651   7.521   2.489   4.341  0.6906 -0.1008 -0.6881
 2989SOL    HW1 9652   7.604   2.508   4.384 -0.0684 -0.3192  0.9328
 2989SOL    HW2 9653   7.479   2.574   4.332  0.7132 -0.0926 -0.7165
 2990SOL     OW 9654   0.010   4.151   0.566  0.0995  0.4351 -0.4895
 2990SOL    HW1 9655  -0.005   4.112   0.480  0.0983  0.4497 -0.4958
 2990SOL    HW2 9656  -0.062   4.118   0.620 -0.7231  1.5588 -0.8631
 2991SOL     OW 9657   6.263   0.202   7.375 -0.3637  0.0877 -0.1031
 2991SOL    HW1 9658   6.174   0.168   7.388 -0.4162  0.3145  0.1540
 2991SOL    HW2 9659   6.309   0.132   7.330 -0.3743 -0.4619  0.7267
 2992SOL     OW 9660   7.090   7.738   6.267  0.1743 -0.1018  0.2866
 2992SOL    HW1 9661   7.047   7.738   6.352  0.3854  0.1410  0.3981
 2992SOL    HW2 9662   7.025   7.773   6.206  0.1491  0.0742  0.4160
 2993SOL     OW 9663   5.086   1.392   6.416 -0.3301 -0.2322 -0.1050
 2993SOL    HW1 9664   5.060   1.444   6.340 -0.0029 -0.7465 -0.5760
 2993SOL    HW2 9665   5.012   1.400   6.477 -1.1588 -0.8206 -0.9901
 2994SOL     OW 9666   4.407   3.328   5.018  0.1755  0.1093 -0.6372
 2994SOL    HW1 9667   4.385   3.298   5.107  0.6348  1.5835  0.0032
 2994SOL    HW2 9668   4.329   3.374   4.988 -0.1057 -0.6878 -1.1480
 2995SOL     OW 9669   6.133   4.799   6.926  0.3598 -0.7815  0.3497
 2995SOL    HW1 9670   6.172   4.809   7.013  1.6502 -0.9410 -0.1979
 2995SOL    HW2 9671   6.109   4.888   6.899  2.2464 -0.3881 -0.1532
 2996SOL     OW 9672   0.053   5.911   0.873  0.0060 -0.4188 -0.2465
 2996SOL    HW1 9673   0.110   5.868   0.936 -0.1163  0.6297  0.6175
 2996SOL    HW2 9674  -0.007   5.963   0.927  0.1998  0.8704 -1.2345
 2997SOL     OW 9675   5.365   1.272   4.582  0.1386  0.1847 -0.1558
 2997SOL    HW1 9676   5.330   1.242   4.665  0.8910 -2.7382 -0.7741
 2997SOL    HW2 9677   5.429   1.339   4.605 -1.1705  0.9664  1.4054
 2998SOL     OW 9678   3.037   5.374   3.097 -0.4196 -0.2283  0.1547
 2998SOL    HW1 9679   2.942   5.384   3.102 -0.5299 -1.0811 -0.0836
 2998SOL    HW2 9680   3.050   5.287   3.059  0.4373 -1.0637  2.2019
 2999SOL     OW 9681   6.333   5.961   4.053  0.3233 -0.2360  0.6648
 2999SOL    HW1 9682   6.297   5.899   4.115  0.0793 -0.9694 -0.1986
 2999SOL    HW2 9683   6.285   6.042   4.069 -1.6921 -1.1477 -0.3763
 3000SOL     OW 9684   5.047   2.406   3.947 -0.2722  0.1003 -0.0768
 3000SOL    HW1 9685   5.127   2.440   3.907 -1.0312  2.3814  0.1692
 3000SOL    HW2 9686   5.056   2.427   4.040 -1.0437  0.1729 -0.0111
 3001SOL     OW 9687   6.426   7.409   4.491 -0.3628 -0.7877 -0.1258
 3001SOL    HW1 9688   6.507   7.401   4.441  0.0130 -1.7051  0.6094
 3001SOL    HW2 9689   6.370   7.466   4.437  0.4747 -0.7732 -1.0004
 3002SOL     OW 9690   4.419   0.563   4.873  0.7680 -0.1329 -0.1472
 3002SOL    HW1 9691   4.363   0.637   4.897  1.2473 -0.1150  1.0021
 3002SOL    HW2 9692   4.495   0.603   4.831  0.7366 -0.0175 -0.0953
 3003SOL     OW 9693   6.981   6.913   6.032  0.3182 -0.0495  0.8880
 3003SOL    HW1 9694   7.014   6.979   5.971 -0.7614  1.1567  1.5785
 3003SOL    HW2 9695   7.060   6.876   6.071  1.0445 -0.8534 -1.1894
 3004SOL     OW 9696   7.369   6.570   5.904  0.1890 -0.4429  0.0124
 3004SOL    HW1 9697   7.462   6.585   5.887  0.6355 -1.6245  1.2079
 3004SOL    HW2 9698   7.332   6.553   5.817  0.8690  1.0374 -0.5969
 3005SOL     OW 9699   1.368   1.676   4.340  0.3070 -0.0005 -0.1379
 3005SOL    HW1 9700   1.348   1.730   4.417  0.5716  0.3603 -0.3172
 3005SOL    HW2 9701   1.283   1.642   4.312  0.2012 -0.0712  0.2709
 3006SOL     OW 9702   3.304   0.453   6.387 -0.4218 -0.2408 -0.0046
 3006SOL    HW1 9703   3.273   0.543   6.399 -1.5560 -0.7028  0.6720
 3006SOL    HW2 9704   3.298   0.414   6.474 -1.6254 -1.4807 -0.6130
 3007SOL     OW 9705   1.401   6.060   7.673 -0.1673 -0.5167  0.3757
 3007SOL    HW1 9706   1.358   6.067   7.588  0.9665  1.5792 -0.0854
 3007SOL    HW2 9707   1.372   5.975   7.708 -1.8172 -0.7514 -1.4255
 3008SOL     OW 9708   3.703   2.137   2.055  0.0538  0.2328 -0.0300
 3008SOL    HW1 9709   3.612   2.108   2.049 -0.3094  1.4035 -0.3694
 3008SOL    HW2 9710   3.723   2.173   1.969  1.5187 -1.8224 -0.6456
 3009SOL     OW 9711   1.222   6.384   1.753  0.4322 -0.3995 -0.5545
 3009SOL    HW1 9712   1.215   6.289   1.757  0.3155 -0.3392  0.8527
 3009SOL    HW2 9713   1.183   6.407   1.668 -0.7424 -1.4928 -0.3372
 3010SOL     OW 9714   5.018   0.630   4.025 -0.0442 -0.0662  0.0309
 3010SOL    HW1 9715   5.061   0.599   4.105 -0.2231  0.8647  0.5112
 3010SOL    HW2 9716   4.960   0.700   4.055 -0.3772  0.0604 -0.8748
 3011SOL     OW 9717   0.509   1.240   4.091 -0.7358 -0.0367  0.0145
 3011SOL    HW1 9718   0.565   1.249   4.168 -0.7973 -1.7983  0.2864
 3011SOL    HW2 9719   0.503   1.146   4.075 -2.3164  0.1864 -0.9787
 3012SOL     OW 9720   7.066   3.956   0.206 -0.0188 -0.5212 -0.0399
 3012SOL    HW1 9721   6.996   4.011   0.239 -0.6710 -0.8406 -0.8520
 3012SOL    HW2 9722   7.147   4.000   0.234 -0.5215  0.7762 -0.5580
 3013SOL     OW 9723   0.519   2.283   4.897 -0.4097 -0.6370 -0.2679
 3013SOL    HW1 9724   0.509   2.233   4.816  1.4114 -1.5682  0.0345
 3013SOL    HW2 9725   0.590   2.345   4.879 -0.4932 -0.3400  0.3857
 3014SOL     OW 9726   3.613   5.545   3.682 -0.3309  0.3914  0.3001
 3014SOL    HW1 9727   3.658   5.519   3.602  0.9479 -0.2031  1.1845
 3014SOL    HW2 9728   3.608   5.641   3.676 -1.0822  0.2950 -0.9023
 3015SOL     OW 9729   4.604   3.826   2.955  0.8225  0.1488  0.4896
 3015SOL    HW1 9730   4.514   3.852   2.935  0.6904 -1.0437 -0.5930
 3015SOL    HW2 9731   4.626   3.875   3.034 -0.7422  0.5302  0.7221
 3016SOL     OW 9732   3.890   3.198   0.987 -0.1974  0.1792  0.1817
 3016SOL    HW1 9733   3.918   3.140   1.058  1.9286  0.8434 -0.0519
 3016SOL    HW2 9734   3.922   3.284   1.012  1.7215  0.2385 -2.0833
 3017SOL     OW 9735   7.004   2.266   3.852  0.0219 -0.4819 -0.1528
 3017SOL    HW1 9736   7.044   2.350   3.874 -1.2163  0.5190 -1.5002
 3017SOL    HW2 9737   7.028   2.208   3.924  0.6872  1.0916  0.9542
 3018SOL     OW 9738   5.995   6.049   2.246 -0.0138 -0.0648 -0.0792
 3018SOL    HW1 9739   6.024   5.958   2.238 -1.7741 -0.5984 -1.2493
 3018SOL    HW2 9740   6.075   6.101   2.239  1.1890 -1.5259  1.8523
 3019SOL     OW 9741   5.263   5.379   1.041  0.0774  0.3238  0.5610
 3019SOL    HW1 9742   5.236   5.468   1.018 -0.3644  0.5123  1.7430
 3019SOL    HW2 9743   5.343   5.364   0.990  0.6393  1.7231  0.9924
 3020SOL     OW 9744   1.171   5.307   7.408 -0.7668 -0.5840 -0.4048
 3020SOL    HW1 9745   1.218   5.258   7.476 -1.2607  1.1191  1.2632
 3020SOL    HW2 9746   1.220   5.290   7.328  0.7541 -1.4703  0.6527
 3021SOL     OW 9747   2.091   3.380   1.934  0.3857  0.2369  0.0710
 3021SOL    HW1 9748   2.057   3.333   1.858  2.3862  0.9403 -1.3435
 3021SOL    HW2 9749   2.015   3.390   1.992 -1.5105  0.6150 -2.3043
 3022SOL     OW 9750   2.208   0.101   7.065 -0.0934 -0.5816  0.1979
 3022SOL    HW1 9751   2.117   0.129   7.075  0.2441  0.1698  1.3065
 3022SOL    HW2 9752   2.217   0.029   7.126  1.2261  2.2536  3.6852
 3023SOL     OW 9753   5.999   0.150   2.469  0.3844 -0.0295  0.5066
 3023SOL    HW1 9754   5.939   0.207   2.517 -1.0822 -1.0362 -0.0525
 3023SOL    HW2 9755   6.086   0.175   2.501  0.1073  4.0371 -1.2758
 3024SOL     OW 9756   5.693   6.144   6.841  0.1909 -0.1746  0.5564
 3024SOL    HW1 9757   5.680   6.107   6.753  0.1307  1.1413 -0.0184
 3024SOL    HW2 9758   5.712   6.069   6.896 -0.2880 -1.0940 -0.4845
 3025SOL     OW 9759   4.983   5.281   2.372 -0.1624  0.0576 -0.3770
 3025SOL    HW1 9760   4.901   5.266   2.324 -0.5874  0.1958  0.2856
 3025SOL    HW2 9761   4.956   5.284   2.464  0.7017 -0.6655 -0.0954
 3026SOL     OW 9762   2.150   1.772   4.536 -0.2168 -0.2720 -0.3147
 3026SOL    HW1 9763   2.218   1.823   4.493 -0.4089  0.4207  0.1839
 3026SOL    HW2 9764   2.171   1.777   4.629 -0.8012 -0.2618 -0.1787
 3027SOL     OW 9765   6.437   2.644   5.779  0.3127 -0.0271  0.7694
 3027SOL    HW1 9766   6.459   2.565   5.828 -1.2472 -0.3756  0.9673
 3027SOL    HW2 9767   6.346   2.663   5.803  0.4450  1.4706  0.2350
 3028SOL     OW 9768   5.044   1.949   7.014 -0.2503 -0.0779  0.2238
 3028SOL    HW1 9769   5.112   1.913   6.957  1.9619  1.6954  1.5639
 3028SOL    HW2 9770   5.018   1.876   7.070 -0.3912 -1.1122 -1.1557
 3029SOL     OW 9771   1.949   1.592   5.184  0.3879  0.4295 -0.2443
 3029SOL    HW1 9772   1.868   1.543   5.168 -0.5433  1.6975  0.3587
 3029SOL    HW2 9773   1.920   1.672   5.228  2.1161  0.2346  1.3966
 3030SOL     OW 9774   7.671   5.794   4.272 -0.3127 -0.3189 -0.0584
 3030SOL    HW1 9775   7.740   5.732   4.293 -0.5261 -1.4536 -2.3648
 3030SOL    HW2 9776   7.698   5.833   4.189 -1.3257  0.9370  0.1713
 3031SOL     OW 9777   3.059   0.674   1.496 -0.5113 -0.1749  0.2517
 3031SOL    HW1 9778   3.024   0.763   1.495 -0.4141 -0.1001  1.6127
 3031SOL    HW2 9779   3.116   0.670   1.419  0.5408  1.3964  0.8949
 3032SOL     OW 9780   0.272   1.522   0.089  0.5588 -0.6180  0.4043
 3032SOL    HW1 9781   0.198   1.464   0.103 -1.1069  1.3619  0.2348
 3032SOL    HW2 9782   0.302   1.501   0.000 -1.7865  0.5571 -0.7676
 3033SOL     OW 9783   5.858   2.952   6.425 -0.0268 -0.5322 -0.1557
 3033SOL    HW1 9784   5.838   3.045   6.436  2.3592  0.0435 -0.2008
 3033SOL    HW2 9785   5.891   2.925   6.511 -0.9428 -1.4261 -0.0709
 3034SOL     OW 9786   6.964   5.312   4.711  0.1264  0.1803  0.0320
 3034SOL    HW1 9787   7.033   5.262   4.668 -0.0991 -0.0939 -0.0142
 3034SOL    HW2 9788   6.925   5.250   4.773 -0.2045  0.2757 -0.0802
 3035SOL     OW 9789   4.217   3.904   6.869  0.5967 -0.7591 -0.2798
 3035SOL    HW1 9790   4.211   3.921   6.775 -2.3858  0.3504 -0.0119
 3035SOL    HW2 9791   4.185   3.814   6.879 -0.8175 -0.2782 -0.2332
 3036SOL     OW 9792   6.899   6.235   5.624 -0.0939 -0.5859  0.4926
 3036SOL    HW1 9793   6.924   6.177   5.553  1.5063  0.2908  0.2948
 3036SOL    HW2 9794   6.982   6.264   5.662 -0.8608  0.7820  1.2085
 3037SOL     OW 9795   1.599   0.634   4.323  0.1147 -0.7144 -0.1531
 3037SOL    HW1 9796   1.677   0.594   4.362  0.9076 -1.1275 -2.0273
 3037SOL    HW2 9797   1.532   0.566   4.327  0.8460 -1.5472 -1.4549
 3038SOL     OW 9798   1.594   5.973   0.324 -0.1759  1.0723 -0.1139
 3038SOL    HW1 9799   1.638   5.934   0.248  0.6944  0.4107  0.7046
 3038SOL    HW2 9800   1.586   5.901   0.387 -1.0699  1.5613  0.3530
 3039SOL     OW 9801   4.567   5.588   5.122  0.2075 -0.4049  0.6087
 3039SOL    HW1 9802   4.476   5.597   5.093  0.9426  3.0906 -1.2563
 3039SOL    HW2 9803   4.580   5.663   5.180  2.4623  0.6527 -1.1176
 3040SOL     OW 9804   5.239   4.953   6.537  0.2617 -0.2555 -0.2067
 3040SOL    HW1 9805   5.192   5.012   6.596 -1.2482 -0.8992 -0.7100
 3040SOL    HW2 9806   5.244   5.000   6.454 -1.2143 -0.8996 -0.6973
 3041SOL     OW 9807   4.774   1.735   3.262  0.0561  0.4322 -0.0547
 3041SOL    HW1 9808   4.753   1.735   3.356  1.2298 -0.4706  0.2350
 3041SOL    HW2 9809   4.866   1.709   3.258 -0.1109 -0.0240 -1.4950
 3042SOL     OW 9810   5.078   1.461   4.960  0.0700 -0.0279 -0.2927
 3042SOL    HW1 9811   4.998   1.437   4.912  1.2160 -1.1011 -1.7709
 3042SOL    HW2 9812   5.079   1.557   4.959 -1.1924  0.0099 -0.2071
 3043SOL     OW 9813   3.553   6.993   4.389  0.0328 -0.3631 -0.4588
 3043SOL    HW1 9814   3.516   7.040   4.464 -0.2004 -1.0516 -0.1295
 3043SOL    HW2 9815   3.647   7.006   4.397  0.1033 -1.2787  0.5697
 3044SOL     OW 9816   3.049   1.934   0.408 -0.0685 -0.3944  0.8197
 3044SOL    HW1 9817   3.037   1.870   0.478 -1.5480 -0.4407  0.5536
 3044SOL    HW2 9818   2.967   1.931   0.358  0.6236  0.2578 -0.4034
 3045SOL     OW 9819   4.964   2.981   2.009 -0.7674 -0.0877 -0.0865
 3045SOL    HW1 9820   5.017   2.931   1.947 -0.8715 -0.7972  0.3792
 3045SOL    HW2 9821   4.973   2.934   2.092  0.1003  1.3517  0.6704
 3046SOL     OW 9822   5.192   3.235   2.869  0.0248 -0.3903 -0.1051
 3046SOL    HW1 9823   5.208   3.156   2.920 -1.0052  0.0808  0.9735
 3046SOL    HW2 9824   5.135   3.289   2.924  0.8406  1.1876 -0.7375
 3047SOL     OW 9825   1.397   0.700   2.148  0.2410 -0.2163  0.5456
 3047SOL    HW1 9826   1.331   0.692   2.080 -0.2262 -0.4232  1.0100
 3047SOL    HW2 9827   1.368   0.773   2.202 -0.1934 -0.9612  1.3603
 3048SOL     OW 9828   5.364   7.400   3.135 -0.1311 -1.0674  0.4905
 3048SOL    HW1 9829   5.435   7.439   3.085 -0.2530 -1.7765 -0.2433
 3048SOL    HW2 9830   5.329   7.331   3.079 -0.0552 -2.1019  1.6679
 3049SOL     OW 9831   6.070   5.533   6.960 -0.5774  0.3978 -0.0815
 3049SOL    HW1 9832   6.147   5.480   6.939 -0.8600  0.4764 -1.4065
 3049SOL    HW2 9833   6.002   5.469   6.983 -0.3391  0.2956  0.3505
 3050SOL     OW 9834   6.560   6.211   0.607  0.0711  0.2932  0.1086
 3050SOL    HW1 9835   6.568   6.201   0.702  1.2530  0.0029 -0.0051
 3050SOL    HW2 9836   6.549   6.122   0.575  2.3161  0.0923 -0.2244
 3051SOL     OW 9837   7.503   0.044   5.369 -0.4654 -0.0040 -0.1583
 3051SOL    HW1 9838   7.573  -0.018   5.351  0.2675  0.0135  2.3756
 3051SOL    HW2 9839   7.520   0.076   5.457 -2.3007  1.8544 -0.3965
 3052SOL     OW 9840   4.749   1.154   0.243 -0.0539 -0.5901  0.0596
 3052SOL    HW1 9841   4.834   1.198   0.248 -0.3822 -0.0315  0.9245
 3052SOL    HW2 9842   4.732   1.145   0.149  1.6332 -2.0441 -0.1568
 3053SOL     OW 9843   2.914   5.527   5.374  0.1141  0.1771 -0.0207
 3053SOL    HW1 9844   2.960   5.568   5.301 -1.5502  0.4864 -0.9464
 3053SOL    HW2 9845   2.832   5.577   5.382 -0.2162 -0.5346  1.3640
 3054SOL     OW 9846   1.202   7.492   2.173  0.6972 -0.4800 -0.1220
 3054SOL    HW1 9847   1.111   7.520   2.160  0.6073 -0.8170 -0.2233
 3054SOL    HW2 9848   1.250   7.536   2.102  0.5280 -0.7199 -0.3863
 3055SOL     OW 9849   1.434   6.893   1.235 -0.0479  0.2996  0.0223
 3055SOL    HW1 9850   1.346   6.929   1.242  0.3930  1.7084 -1.3450
 3055SOL    HW2 9851   1.493   6.966   1.253  0.8651  0.0445 -1.7239
 3056SOL     OW 9852   6.466   4.779   0.142  0.3941  0.0074 -0.0639
 3056SOL    HW1 9853   6.424   4.696   0.164 -0.7559 -0.0667 -2.2765
 3056SOL    HW2 9854   6.400   4.845   0.163 -0.1957  0.0288 -1.8077
 3057SOL     OW 9855   7.008   6.885   2.583  0.3175  0.0025 -0.1889
 3057SOL    HW1 9856   7.039   6.943   2.652  0.9272 -0.3019 -0.1968
 3057SOL    HW2 9857   7.081   6.881   2.521  1.0786 -2.2650  0.7413
 3058SOL     OW 9858   2.268   1.177   4.619  0.0407 -0.2979  0.5728
 3058SOL    HW1 9859   2.310   1.118   4.555  2.3358  1.1325  0.6435
 3058SOL    HW2 9860   2.253   1.121   4.696  0.4795 -1.2185  0.0163
 3059SOL     OW 9861   1.495   5.948   6.891 -0.0480 -0.1994  0.0588
 3059SOL    HW1 9862   1.584   5.956   6.925 -0.1389 -2.5759  0.9719
 3059SOL    HW2 9863   1.454   6.032   6.913  2.3633  1.6825 -1.8857
 3060SOL     OW 9864   3.442   0.240   6.056 -0.0984 -0.0269  0.0374
 3060SOL    HW1 9865   3.516   0.182   6.074  0.7014  0.5208 -1.3568
 3060SOL    HW2 9866   3.480   0.313   6.007 -1.5818  0.2062 -0.8103
 3061SOL     OW 9867   0.654   3.859   3.845 -0.0340  0.2781  0.1146
 3061SOL    HW1 9868   0.664   3.954   3.844  2.1367  0.1407  1.6171
 3061SOL    HW2 9869   0.628   3.836   3.756  0.3082  2.1867 -0.5178
 3062SOL     OW 9870   1.892   7.628   3.141 -0.5444 -0.2228 -0.2024
 3062SOL    HW1 9871   1.958   7.561   3.123  0.5729  0.6850  0.3934
 3062SOL    HW2 9872   1.827   7.617   3.071 -0.5697 -2.1191  0.0683
 3063SOL     OW 9873   4.135   0.724   7.359 -0.2046  0.5128  0.0726
 3063SOL    HW1 9874   4.178   0.645   7.392  0.0831 -0.4943 -2.5286
 3063SOL    HW2 9875   4.200   0.794   7.374 -0.1093  0.1329  1.5843
 3064SOL     OW 9876   6.869   2.380   5.320  0.2274 -0.3489 -0.6851
 3064SOL    HW1 9877   6.909   2.405   5.237 -0.1963 -0.3655 -0.8953
 3064SOL    HW2 9878   6.913   2.299   5.345  1.2695  0.3272 -0.2461
 3065SOL     OW 9879   0.874   1.172   6.347  0.0725  0.1732  0.1514
 3065SOL    HW1 9880   0.888   1.253   6.396 -3.4759  0.6849  0.6101
 3065SOL    HW2 9881   0.816   1.198   6.276  1.3226 -1.4732 -1.5375
 3066SOL     OW 9882   4.173   6.616   5.235  0.6550 -0.7314  0.4276
 3066SOL    HW1 9883   4.265   6.641   5.233  0.3200  0.5363 -0.7808
 3066SOL    HW2 9884   4.126   6.697   5.255 -0.2924 -0.9435 -0.7591
 3067SOL     OW 9885   3.841   3.716   3.656  0.5684  0.0063  0.1342
 3067SOL    HW1 9886   3.780   3.647   3.632  0.1844  0.1420  0.7015
 3067SOL    HW2 9887   3.913   3.670   3.700  0.6416 -0.1058 -0.1056
 3068SOL     OW 9888   5.755   0.793   2.892 -0.1369  0.0573 -0.3366
 3068SOL    HW1 9889   5.731   0.730   2.824  0.3218 -0.1220 -0.3365
 3068SOL    HW2 9890   5.817   0.852   2.850  0.1090 -0.0215 -0.0944
 3069SOL     OW 9891   7.684   0.252   1.809  0.2801 -0.1928 -0.2740
 3069SOL    HW1 9892   7.680   0.159   1.832 -0.9661 -0.1917 -0.4407
 3069SOL    HW2 9893   7.607   0.291   1.850  1.5592  1.0736  1.0376
 3070SOL     OW 9894   0.582   7.436   6.347 -0.1689 -0.2112 -0.3783
 3070SOL    HW1 9895   0.611   7.346   6.335  1.2367  0.3832 -1.6080
 3070SOL    HW2 9896   0.663   7.488   6.349 -0.9992  1.1627 -0.9522
 3071SOL     OW 9897   0.002   2.611   3.912  0.5102 -0.3244  0.0649
 3071SOL    HW1 9898  -0.042   2.529   3.934  1.0088 -0.5766  0.1359
 3071SOL    HW2 9899   0.009   2.609   3.817  3.7051 -2.0856  0.2007
 3072SOL     OW 9900   7.479   1.251   2.570  0.8650  0.1642 -0.4675
 3072SOL    HW1 9901   7.406   1.193   2.546  0.1057  1.6304 -1.8702
 3072SOL    HW2 9902   7.554   1.193   2.578 -0.1327 -1.1846 -0.5484
 3073SOL     OW 9903   2.950   3.615   3.197 -0.4285  0.2153  0.0550
 3073SOL    HW1 9904   2.942   3.682   3.129 -2.3624 -2.5937 -2.7373
 3073SOL    HW2 9905   2.862   3.605   3.232  0.2935  0.6865  2.1745
 3074SOL     OW 9906   3.178   1.816   2.839  0.2378 -0.3833  0.1533
 3074SOL    HW1 9907   3.238   1.891   2.838 -1.8473  1.4020 -0.2381
 3074SOL    HW2 9908   3.128   1.827   2.920 -0.8296 -0.7243 -0.4453
 3075SOL     OW 9909   5.769   1.188   4.792  0.4207 -0.2063  0.3323
 3075SOL    HW1 9910   5.774   1.135   4.872  0.9215 -0.7955 -0.0740
 3075SOL    HW2 9911   5.676   1.188   4.769  0.3688 -0.6401  0.5250
 3076SOL     OW 9912   4.623   4.019   4.583 -0.7219 -0.8634  0.2931
 3076SOL    HW1 9913   4.582   4.068   4.512 -0.4085 -1.0475 -0.0155
 3076SOL    HW2 9914   4.651   3.937   4.543  0.8569 -0.3354  0.2591
 3077SOL     OW 9915   3.263   1.592   0.931  0.8156 -0.2463 -0.3556
 3077SOL    HW1 9916   3.210   1.649   0.875  0.7745  0.8239  0.7487
 3077SOL    HW2 9917   3.257   1.630   1.018  1.3962 -1.5309  0.2790
 3078SOL     OW 9918   1.332   0.718   3.444  0.1821 -0.0270 -0.1277
 3078SOL    HW1 9919   1.400   0.720   3.511 -0.1876  0.1757  0.2442
 3078SOL    HW2 9920   1.378   0.692   3.364  0.4627 -1.2238  0.3909
 3079SOL     OW 9921   6.182   3.624   4.488  0.3616  0.3453 -0.2259
 3079SOL    HW1 9922   6.181   3.586   4.576 -0.8821 -1.2579 -0.8838
 3079SOL    HW2 9923   6.262   3.589   4.448  0.3943  0.2476 -0.0759
 3080SOL     OW 9924   0.580   3.444   6.575 -0.6880  0.5303  0.1467
 3080SOL    HW1 9925   0.659   3.468   6.622 -0.7160  0.6007  0.1586
 3080SOL    HW2 9926   0.526   3.524   6.576 -1.0160  0.3108  0.6601
 3081SOL     OW 9927   7.418   4.870   1.229 -0.3095  0.3044 -0.3626
 3081SOL    HW1 9928   7.461   4.797   1.184 -1.0111  0.3638 -1.1473
 3081SOL    HW2 9929   7.481   4.942   1.225  0.5455 -0.3544  0.7524
 3082SOL     OW 9930   1.250   1.930   7.708 -0.5800  0.0380 -0.0257
 3082SOL    HW1 9931   1.221   1.914   7.618 -0.8871 -0.8545  0.2227
 3082SOL    HW2 9932   1.331   1.880   7.717 -0.1117  0.7786 -0.0475
 3083SOL     OW 9933   4.045   1.342   2.672 -0.1914 -0.3402  0.0751
 3083SOL    HW1 9934   3.980   1.412   2.674  0.4503  0.2973  2.4950
 3083SOL    HW2 9935   4.001   1.267   2.713  0.3157 -0.1410  1.0168
 3084SOL     OW 9936   1.284   5.520   3.048  0.1079  1.0394 -0.5824
 3084SOL    HW1 9937   1.274   5.483   2.960  0.1053 -2.0652  0.6065
 3084SOL    HW2 9938   1.341   5.596   3.036 -0.3690  1.0535 -3.3139
 3085SOL     OW 9939   2.369   3.486   1.304 -0.4973 -0.7404 -0.0784
 3085SOL    HW1 9940   2.412   3.571   1.295 -0.6954 -0.3316  2.2409
 3085SOL    HW2 9941   2.423   3.426   1.253  2.2397 -0.0361  1.7943
 3086SOL     OW 9942   6.864   6.904   4.085  0.4564 -0.0325  0.4873
 3086SOL    HW1 9943   6.811   6.906   4.005 -0.4265 -0.6587  1.0333
 3086SOL    HW2 9944   6.844   6.986   4.129  0.3921 -0.0056  0.4080
 3087SOL     OW 9945   0.361   1.551   3.403  0.2346 -0.1045  0.3342
 3087SOL    HW1 9946   0.331   1.461   3.389  0.4180 -0.5522  2.4132
 3087SOL    HW2 9947   0.417   1.545   3.481 -1.2319  2.0788  1.6488
 3088SOL     OW 9948   3.933   2.574   5.573 -0.5740  0.3187 -0.2069
 3088SOL    HW1 9949   4.018   2.579   5.528 -0.5877  2.5787 -0.0830
 3088SOL    HW2 9950   3.938   2.493   5.623  2.7556  1.7306  2.1330
 3089SOL     OW 9951   0.872   3.895   0.175 -0.1108  0.4014 -0.0415
 3089SOL    HW1 9952   0.902   3.962   0.236  0.2062 -0.8881  1.2635
 3089SOL    HW2 9953   0.951   3.865   0.131 -0.2677  0.9140 -0.7090
 3090SOL     OW 9954   2.708   0.368   0.329 -0.0860  0.4543 -0.4174
 3090SOL    HW1 9955   2.789   0.337   0.289  0.7001  2.3293 -0.3998
 3090SOL    HW2 9956   2.640   0.349   0.264  0.2384 -1.6309 -0.1999
 3091SOL     OW 9957   2.584   5.920   7.304 -0.2226  0.0783  0.2994
 3091SOL    HW1 9958   2.582   5.992   7.241 -2.6166  0.7388  1.0480
 3091SOL    HW2 9959   2.623   5.958   7.383  1.3995 -0.3459 -0.2635
 3092SOL     OW 9960   4.551   5.485   4.071 -0.4741  1.2478  0.0607
 3092SOL    HW1 9961   4.528   5.441   3.989 -1.1294 -0.5931  1.1721
 3092SOL    HW2 9962   4.519   5.574   4.060  1.0150  1.5641 -2.3354
 3093SOL     OW 9963   7.534   0.008   3.532 -0.7443  0.1437 -0.0972
 3093SOL    HW1 9964   7.601   0.014   3.600 -0.6923 -0.3745 -0.0990
 3093SOL    HW2 9965   7.581  -0.025   3.455 -1.1892 -1.2164  0.1891
 3094SOL     OW 9966   1.140   7.539   5.963 -0.3641 -0.2077 -0.4844
 3094SOL    HW1 9967   1.126   7.618   5.911 -2.9472 -0.0206  0.3421
 3094SOL    HW2 9968   1.186   7.479   5.905  2.1565  2.0114 -0.9743
 3095SOL     OW 9969   5.127   6.643   3.310  0.2844 -0.6450 -0.0387
 3095SOL    HW1 9970   5.151   6.596   3.390 -1.5480 -0.4513  0.6682
 3095SOL    HW2 9971   5.109   6.574   3.246  0.3509 -0.8327  0.1443
 3096SOL     OW 9972   5.644   6.796   4.229  0.1088  0.2820 -0.0727
 3096SOL    HW1 9973   5.606   6.749   4.155  2.4694  0.1006 -1.2332
 3096SOL    HW2 9974   5.587   6.873   4.239 -0.9440 -0.2900 -1.2854
 3097SOL     OW 9975   7.245   3.578   5.421  0.0381  0.0421  0.1242
 3097SOL    HW1 9976   7.322   3.608   5.373  0.4999 -0.9842  0.1869
 3097SOL    HW2 9977   7.199   3.658   5.447  0.1489  0.6266 -1.4059
 3098SOL     OW 9978   1.395   6.442   7.708  0.1410  0.1628 -0.0774
 3098SOL    HW1 9979   1.486   6.414   7.716 -0.0142 -0.6718 -1.0403
 3098SOL    HW2 9980   1.384   6.461   7.615 -1.0951 -1.3229 -0.2766
 3099SOL     OW 9981   4.019   1.613   1.075 -0.2384 -0.2327 -0.9531
 3099SOL    HW1 9982   3.988   1.693   1.118 -0.6306 -0.3382 -1.0332
 3099SOL    HW2 9983   3.953   1.548   1.097  1.0763 -1.0505  0.7862
 3100SOL     OW 9984   1.234   1.752   4.983 -0.3057  0.4992 -0.1256
 3100SOL    HW1 9985   1.190   1.827   4.943 -0.2557  1.0777  0.8546
 3100SOL    HW2 9986   1.200   1.676   4.937 -1.3526  1.0398 -0.2640
 3101SOL     OW 9987   3.096   4.019   1.308 -0.3365  0.4359 -0.4625
 3101SOL    HW1 9988   3.075   4.026   1.215 -1.5348 -1.1628 -0.3498
 3101SOL    HW2 9989   3.012   4.031   1.353  0.1773  0.8732  0.4072
 3102SOL     OW 9990   6.259   1.263   2.871  0.0537  0.1924 -0.6725
 3102SOL    HW1 9991   6.311   1.332   2.912  0.0407  0.2496 -0.7517
 3102SOL    HW2 9992   6.169   1.278   2.902  0.4402 -1.3484  1.4233
 3103SOL     OW 9993   0.053   3.105   7.120 -0.1901  0.0533  0.1134
 3103SOL    HW1 9994   0.045   3.200   7.126  0.9163  0.2085 -0.5884
 3103SOL    HW2 9995   0.147   3.088   7.126 -0.4177 -1.0551  0.9066
 3104SOL     OW 9996   4.606   2.668   7.552  0.7102 -0.2540  0.9362
 3104SOL    HW1 9997   4.672   2.598   7.555  0.7205 -0.2469  0.8767
 3104SOL    HW2 9998   4.554   2.656   7.631  1.0944  0.0423  1.2370
 3105SOL     OW 9999   4.125   2.032   0.698 -0.4878 -0.3203 -0.2102
 3105SOL    HW110000   4.107   1.950   0.653 -1.1527 -1.0457  1.2811
 3105SOL    HW210001   4.074   2.098   0.651  0.7315 -0.5597 -1.9535
 3106SOL     OW10002   0.587   3.968   1.649  0.4485 -0.2783 -0.1842
 3106SOL    HW110003   0.651   4.039   1.638 -0.0280  0.4231  1.2897
 3106SOL    HW210004   0.639   3.893   1.677  1.0191 -0.7026 -2.1972
 3107SOL     OW10005   1.135   7.219   2.297 -0.2019 -0.0132  0.2696
 3107SOL    HW110006   1.164   7.145   2.245 -2.0803  0.5954 -1.7958
 3107SOL    HW210007   1.164   7.296   2.248 -2.4955  0.5743 -0.2942
 3108SOL     OW10008   2.315   2.732   4.735 -0.0829 -0.1736  0.2050
 3108SOL    HW110009   2.387   2.762   4.791 -1.3083 -2.6560  3.4480
 3108SOL    HW210010   2.346   2.649   4.697 -0.6733 -0.4991  0.4166
 3109SOL     OW10011   1.637   5.819   7.645 -0.3343  0.1707  0.5309
 3109SOL    HW110012   1.566   5.830   7.709  0.1936 -1.4927  1.4706
 3109SOL    HW210013   1.593   5.786   7.567 -0.7247  0.1535  0.7535
 3110SOL     OW10014   1.146   7.123   2.647  0.7613  0.4064 -0.0563
 3110SOL    HW110015   1.102   7.186   2.590 -1.2873  0.9063  1.9383
 3110SOL    HW210016   1.144   7.164   2.734  1.0397 -1.5945  0.9449
 3111SOL     OW10017   3.208   0.186   5.186  0.0292 -0.0742  0.3854
 3111SOL    HW110018   3.279   0.165   5.247  0.6939  0.1446 -0.2877
 3111SOL    HW210019   3.150   0.110   5.190  0.7139 -0.6170  0.3856
 3112SOL     OW10020   2.726   3.260   4.979  0.6297  0.1209 -0.0072
 3112SOL    HW110021   2.664   3.303   4.919  0.8582  0.3993 -0.0463
 3112SOL    HW210022   2.757   3.331   5.036  0.2066 -0.1947  0.6210
 3113SOL     OW10023   4.660   4.249   4.197  0.1636  0.1400  0.3458
 3113SOL    HW110024   4.610   4.307   4.140  0.0068 -0.3782 -0.0504
 3113SOL    HW210025   4.595   4.185   4.228  0.6293 -0.7303 -0.4293
 3114SOL     OW10026   0.923   2.283   1.224 -0.4270 -0.4946  0.2632
 3114SOL    HW110027   0.866   2.280   1.147 -1.8796 -0.6938  1.3033
 3114SOL    HW210028   0.910   2.370   1.261  1.2840  0.0868 -0.4246
 3115SOL     OW10029   0.151   4.668   1.696 -0.2311 -0.4983  0.1175
 3115SOL    HW110030   0.173   4.664   1.789 -2.1562 -0.8323  0.6057
 3115SOL    HW210031   0.185   4.752   1.666  0.1819 -0.2716  1.1933
 3116SOL     OW10032   0.492   3.414   1.309  0.2877 -0.3262 -0.5492
 3116SOL    HW110033   0.585   3.403   1.329 -0.3256 -1.0632  2.4471
 3116SOL    HW210034   0.470   3.339   1.253  1.0219 -1.6253  0.8130
 3117SOL     OW10035   6.354   7.176   1.343 -0.0432  0.5401  0.2249
 3117SOL    HW110036   6.266   7.140   1.356 -0.5665  1.8465  0.4532
 3117SOL    HW210037   6.339   7.270   1.330  1.1888  0.5671 -1.2550
 3118SOL     OW10038   3.511   1.081   2.105  0.5516  0.0190  0.5086
 3118SOL    HW110039   3.471   1.168   2.096 -0.4932 -0.1293  2.9257
 3118SOL    HW210040   3.474   1.030   2.033  0.1490  1.2211 -0.1662
 3119SOL     OW10041   7.251   3.102   2.230 -0.4568  0.5126 -0.5364
 3119SOL    HW110042   7.171   3.095   2.282 -0.1183 -1.6694 -0.2196
 3119SOL    HW210043   7.319   3.065   2.286  0.7422  2.0531 -0.9232
 3120SOL     OW10044   1.598   7.459   5.528 -0.6156 -0.5228 -0.4353
 3120SOL    HW110045   1.578   7.373   5.565 -1.4106 -0.5214 -0.8386
 3120SOL    HW210046   1.582   7.449   5.434  0.4766 -0.2673 -0.6589
 3121SOL     OW10047   3.820   0.103   7.683 -0.0104 -0.2507 -0.4929
 3121SOL    HW110048   3.869   0.184   7.671 -3.0969  1.7279 -0.9493
 3121SOL    HW210049   3.810   0.068   7.594 -1.1957  0.5696 -0.7159
 3122SOL     OW10050   1.422   7.387   4.752  0.0540  0.1298 -0.1937
 3122SOL    HW110051   1.467   7.448   4.693  1.1323  0.0297  0.4939
 3122SOL    HW210052   1.491   7.355   4.810 -1.1903  1.3076  2.0796
 3123SOL     OW10053   0.931   4.257   2.706 -0.1863 -0.2177 -0.2748
 3123SOL    HW110054   0.989   4.235   2.633  0.4935 -0.8421  0.4375
 3123SOL    HW210055   0.909   4.349   2.692 -1.4985 -0.7483 -2.2260
 3124SOL     OW10056   4.907   5.353   5.478  0.5541 -0.2469  0.1624
 3124SOL    HW110057   4.951   5.399   5.407  0.9576  1.3937  1.4103
 3124SOL    HW210058   4.814   5.370   5.465  0.4862 -1.2338 -0.7968
 3125SOL     OW10059   4.891   1.628   2.631 -0.5422 -0.2237 -0.2934
 3125SOL    HW110060   4.863   1.548   2.676 -0.2738 -1.8446 -2.7941
 3125SOL    HW210061   4.818   1.689   2.643 -1.9925 -1.8227 -0.6021
 3126SOL     OW10062   0.256   2.774   0.946 -0.1781  0.1500  0.3783
 3126SOL    HW110063   0.194   2.802   0.879 -0.3939  0.8424  0.8568
 3126SOL    HW210064   0.248   2.679   0.949  0.7410 -0.0188 -1.4579
 3127SOL     OW10065   1.119   4.338   5.448  0.1456  0.5908 -0.3663
 3127SOL    HW110066   1.049   4.296   5.497 -0.9093  0.4354 -1.9517
 3127SOL    HW210067   1.184   4.362   5.515 -0.7083 -0.6162  0.9424
 3128SOL     OW10068   5.844   5.800   1.076 -0.2704  0.2489  0.0552
 3128SOL    HW110069   5.792   5.788   1.155  0.6595 -0.2458  0.6195
 3128SOL    HW210070   5.881   5.714   1.059 -2.0886 -0.1757 -2.1414
 3129SOL     OW10071   2.783   3.886   2.502 -0.4955  0.4617  0.4488
 3129SOL    HW110072   2.818   3.971   2.474 -0.4109  0.1052 -0.5891
 3129SOL    HW210073   2.740   3.852   2.423 -1.1090 -0.1629  1.0435
 3130SOL     OW10074   5.078   2.056   6.655 -0.3719  0.1786  0.4075
 3130SOL    HW110075   5.047   2.000   6.584  0.6257 -0.0155  0.1187
 3130SOL    HW210076   5.169   2.030   6.669 -0.1407  1.1658  0.8259
 3131SOL     OW10077   6.800   6.990   6.910 -0.5728 -0.0767  0.4789
 3131SOL    HW110078   6.806   6.932   6.986 -0.5590 -2.2962 -1.1366
 3131SOL    HW210079   6.859   6.951   6.845 -0.8884  1.5300 -0.8482
 3132SOL     OW10080   6.088   6.798   5.155  0.3607 -0.1940  0.2035
 3132SOL    HW110081   6.148   6.830   5.088 -0.0847 -1.6045 -0.9165
 3132SOL    HW210082   6.005   6.784   5.109  0.1410 -1.5578  0.9542
 3133SOL     OW10083   4.490   6.786   2.585  0.7381  0.4581  0.1457
 3133SOL    HW110084   4.529   6.833   2.511  0.9869  0.4909  0.2971
 3133SOL    HW210085   4.400   6.818   2.589  0.8826  0.8679  0.2002
 3134SOL     OW10086   4.722   3.794   6.716 -0.7439  0.1270 -0.0293
 3134SOL    HW110087   4.763   3.730   6.773 -0.7575  0.0869 -0.0650
 3134SOL    HW210088   4.633   3.762   6.702 -0.3923 -0.4718 -1.0044
 3135SOL     OW10089   2.457   7.184   0.822  0.1211  0.2483 -0.3838
 3135SOL    HW110090   2.403   7.141   0.755 -0.0184 -2.4630  1.3300
 3135SOL    HW210091   2.396   7.202   0.894  0.8271  0.3771  0.1898
 3136SOL     OW10092   1.006   6.685   6.076  0.0677  0.1379  0.6242
 3136SOL    HW110093   1.079   6.747   6.066 -0.4159  0.8813  1.5378
 3136SOL    HW210094   0.977   6.697   6.167 -1.6607  0.3652  0.0727
 3137SOL     OW10095   1.371   1.873   1.595  0.2437 -0.2678 -0.2184
 3137SOL    HW110096   1.368   1.968   1.580  2.2394  0.1152  1.2761
 3137SOL    HW210097   1.434   1.841   1.531 -0.3776 -0.5703 -0.6759
 3138SOL     OW10098   1.671   6.796   0.043  0.1168  0.1806 -0.0731
 3138SOL    HW110099   1.752   6.834   0.008  0.9738 -0.4258  1.1673
 3138SOL    HW210100   1.701   6.734   0.110 -1.3521 -0.7179 -0.2182
 3139SOL     OW10101   0.325   6.810   2.369 -0.3897  0.3301 -0.3915
 3139SOL    HW110102   0.373   6.737   2.330  0.4893  0.6174  0.1210
 3139SOL    HW210103   0.237   6.804   2.332 -0.1564 -0.6301 -0.8092
 3140SOL     OW10104   5.192   4.197   6.380  0.6993 -0.8554  0.3121
 3140SOL    HW110105   5.178   4.102   6.381 -1.9791 -0.5513 -0.4239
 3140SOL    HW210106   5.143   4.229   6.455 -0.7534  0.1356 -0.9929
 3141SOL     OW10107   3.284   3.427   1.920 -0.2670 -0.7260 -0.1623
 3141SOL    HW110108   3.266   3.345   1.965  0.4318 -0.6961  0.1945
 3141SOL    HW210109   3.292   3.491   1.991  1.2330 -0.7495 -0.2815
 3142SOL     OW10110   0.875   6.362   0.226 -0.4421  0.1392  0.4578
 3142SOL    HW110111   0.956   6.356   0.277 -1.2588  2.3599  2.1693
 3142SOL    HW210112   0.808   6.386   0.290 -2.1108  0.2090 -1.2268
 3143SOL     OW10113   4.348   7.208   2.151 -0.1522 -0.3551  0.5838
 3143SOL    HW110114   4.347   7.114   2.169  0.6952 -0.4370  0.2358
 3143SOL    HW210115   4.412   7.243   2.213  1.1961 -0.3355 -0.7562
 3144SOL     OW10116   6.426   3.515   3.524 -0.6215  0.3257 -0.7424
 3144SOL    HW110117   6.490   3.452   3.490  1.5219  0.3388  2.7138
 3144SOL    HW210118   6.433   3.590   3.466  1.1040 -0.4271 -1.5966
 3145SOL     OW10119   5.802   4.351   5.523 -0.3454  0.5207 -0.0265
 3145SOL    HW110120   5.743   4.374   5.595  1.3056  0.2039  1.4996
 3145SOL    HW210121   5.772   4.264   5.494 -0.8568  0.5316  0.4642
 3146SOL     OW10122   1.485   7.297   1.620 -0.0730 -0.3281  0.2083
 3146SOL    HW110123   1.443   7.350   1.552  1.1766  0.4614  0.0229
 3146SOL    HW210124   1.500   7.212   1.578  2.9468  0.8714 -1.4570
 3147SOL     OW10125   2.569   3.768   1.344  0.6696 -0.1890  0.4875
 3147SOL    HW110126   2.560   3.752   1.438 -2.1610 -0.0042  0.3577
 3147SOL    HW210127   2.608   3.688   1.309 -0.9436 -1.5032  1.5119
 3148SOL     OW10128   0.448   4.758   1.818 -0.0161  0.4202  0.4983
 3148SOL    HW110129   0.533   4.773   1.860  0.2052 -0.4964  0.4100
 3148SOL    HW210130   0.413   4.680   1.861 -0.8058  0.7787  0.5143
 3149SOL     OW10131   4.847   3.921   0.463 -0.3493 -0.3124 -0.0710
 3149SOL    HW110132   4.886   3.914   0.376 -1.2675  1.2967 -0.6533
 3149SOL    HW210133   4.885   4.001   0.500 -1.6820  0.2690  0.0774
 3150SOL     OW10134   2.881   6.300   3.885  0.4002  0.6987 -0.3157
 3150SOL    HW110135   2.840   6.346   3.812 -0.4289  0.4304 -0.0237
 3150SOL    HW210136   2.899   6.368   3.949 -2.3426  0.4660  0.8309
 3151SOL     OW10137   1.997   5.547   0.066 -0.0771  0.6566  0.2025
 3151SOL    HW110138   2.047   5.467   0.079 -1.0628  0.2546  1.8337
 3151SOL    HW210139   1.921   5.521   0.013  0.7677  1.0157 -1.2286
 3152SOL     OW10140   1.746   4.969   4.100 -0.3305  0.3334  0.3945
 3152SOL    HW110141   1.814   5.002   4.159  1.4759 -4.6084  1.5216
 3152SOL    HW210142   1.783   4.979   4.012  1.5399 -1.2734  0.9235
 3153SOL     OW10143   2.417   3.774   3.337  0.4945 -0.1729 -0.4891
 3153SOL    HW110144   2.368   3.780   3.255  0.7927 -1.6327 -0.7965
 3153SOL    HW210145   2.460   3.859   3.344 -0.9768  0.6504 -0.8957
 3154SOL     OW10146   0.423   2.351   0.976  0.3472 -0.5662 -0.0093
 3154SOL    HW110147   0.404   2.264   1.012  0.8757 -0.4115  0.6518
 3154SOL    HW210148   0.440   2.406   1.053  2.4201 -0.4484 -0.5002
 3155SOL     OW10149   4.639   3.601   4.686 -0.5435 -0.1426  0.0760
 3155SOL    HW110150   4.638   3.578   4.779 -1.9558  0.4757  0.2380
 3155SOL    HW210151   4.731   3.620   4.667 -0.2541 -0.1553  1.3730
 3156SOL     OW10152   5.249   5.081   0.977  0.2162  0.1895 -0.1573
 3156SOL    HW110153   5.172   5.125   1.012 -0.5772 -1.6229  0.5200
 3156SOL    HW210154   5.251   5.103   0.884 -1.1417  0.2513 -0.1836
 3157SOL     OW10155   5.128   2.730   4.539  0.0305 -0.2622 -0.1391
 3157SOL    HW110156   5.170   2.758   4.620  0.3868  0.2893 -0.5085
 3157SOL    HW210157   5.201   2.708   4.480 -0.2026  0.2665 -0.6312
 3158SOL     OW10158   4.330   1.451   7.193  0.2117 -0.2884 -0.6161
 3158SOL    HW110159   4.363   1.541   7.190  0.3375 -0.3203 -0.2706
 3158SOL    HW210160   4.354   1.414   7.108  1.2557 -0.3661 -0.3094
 3159SOL     OW10161   0.591   6.116   6.605  0.0966 -0.0678  0.2948
 3159SOL    HW110162   0.596   6.197   6.657 -1.4637  0.2550 -0.0143
 3159SOL    HW210163   0.555   6.144   6.521 -1.5132 -1.2275  0.5597
 3160SOL     OW10164   5.446   6.040   0.756  0.8478  0.1501 -0.0500
 3160SOL    HW110165   5.428   6.130   0.729  0.1881  0.3907  1.1498
 3160SOL    HW210166   5.371   6.015   0.810  0.9587 -1.1723 -0.4672
 3161SOL     OW10167   3.752   1.855   3.243  0.0768 -0.0535  0.5831
 3161SOL    HW110168   3.702   1.893   3.171  0.8114  0.0985  0.1508
 3161SOL    HW210169   3.841   1.848   3.210  0.4018 -0.0836  1.4442
 3162SOL     OW10170   1.047   3.770   1.133 -0.0556  0.5622 -0.3876
 3162SOL    HW110171   1.045   3.850   1.185  0.6780  0.7767 -0.6800
 3162SOL    HW210172   1.035   3.700   1.198  1.2062  0.8048  0.1378
 3163SOL     OW10173   4.536   3.531   1.237  0.0073 -0.3704 -0.0755
 3163SOL    HW110174   4.500   3.447   1.265 -1.4482 -0.1705 -1.1984
 3163SOL    HW210175   4.595   3.557   1.308 -0.6361 -1.6387  0.9708
 3164SOL     OW10176   5.851   5.742   2.565 -0.2310  0.1208 -0.1236
 3164SOL    HW110177   5.881   5.725   2.654 -0.2911 -2.0874 -0.4676
 3164SOL    HW210178   5.921   5.794   2.526 -1.0277  2.7652  1.6952
 3165SOL     OW10179   1.334   4.073   2.399 -0.3428 -0.1676 -1.0659
 3165SOL    HW110180   1.413   4.047   2.352  0.2027 -0.3357 -0.0745
 3165SOL    HW210181   1.326   4.009   2.471 -0.4826  0.7980 -0.2049
 3166SOL     OW10182   0.473   1.392   2.106  0.1390 -0.2824  0.5778
 3166SOL    HW110183   0.465   1.393   2.010  2.1170 -2.6958  0.2741
 3166SOL    HW210184   0.561   1.426   2.123  1.0039 -2.6217  1.2221
 3167SOL     OW10185   2.296   6.242   3.278  0.2667  0.1670 -0.0908
 3167SOL    HW110186   2.248   6.314   3.320 -0.4572 -0.9144  1.0114
 3167SOL    HW210187   2.274   6.250   3.185 -1.1602  0.3899  0.2391
 3168SOL     OW10188   1.583   4.283   1.440 -0.3127 -0.4683 -0.7237
 3168SOL    HW110189   1.494   4.319   1.433 -0.3580 -0.4756 -0.2229
 3168SOL    HW210190   1.640   4.359   1.426 -0.4094 -0.2139  0.2121
 3169SOL     OW10191   7.778   1.525   2.229  0.3429  0.1984  0.1023
 3169SOL    HW110192   7.797   1.547   2.137  0.5305  0.9913  0.3196
 3169SOL    HW210193   7.863   1.499   2.265  0.3644  0.3664  0.1752
 3170SOL     OW10194   6.006   3.401   7.695 -0.0313  0.2724  0.1117
 3170SOL    HW110195   6.066   3.336   7.661 -0.6287 -1.9723  2.9389
 3170SOL    HW210196   6.062   3.469   7.732  0.6853 -0.0867 -0.3039
 3171SOL     OW10197   2.719   7.197   1.900 -0.4248 -0.5025 -0.0722
 3171SOL    HW110198   2.635   7.153   1.902 -0.5131 -0.6782 -3.0421
 3171SOL    HW210199   2.698   7.288   1.879  0.0410 -0.0657  1.2471
 3172SOL     OW10200   4.225   6.944   4.050  0.1697  0.1815  0.9168
 3172SOL    HW110201   4.314   6.979   4.046  0.6594 -0.9856  1.3665
 3172SOL    HW210202   4.217   6.907   4.138 -0.0975 -1.4276  0.2484
 3173SOL     OW10203   7.657   1.037   0.895 -0.2417 -0.3380 -0.1347
 3173SOL    HW110204   7.732   1.060   0.951  0.0411 -1.2984 -0.1117
 3173SOL    HW210205   7.593   1.106   0.913  0.1475 -0.1888  0.7723
 3174SOL     OW10206   4.300   0.981   7.328 -0.1617  1.1383 -0.1186
 3174SOL    HW110207   4.341   1.017   7.406  1.2667  0.0300 -0.3153
 3174SOL    HW210208   4.370   0.980   7.262 -0.9769  0.8219 -0.9988
 3175SOL     OW10209   0.443   4.475   7.564  0.0180  0.2206  0.1568
 3175SOL    HW110210   0.469   4.512   7.480 -0.1531  1.3705  0.5899
 3175SOL    HW210211   0.351   4.500   7.573 -0.1370 -0.4209  0.4195
 3176SOL     OW10212   5.686   0.798   0.154  0.1539 -0.2788 -0.0678
 3176SOL    HW110213   5.742   0.876   0.162  1.4048 -1.2511  1.5765
 3176SOL    HW210214   5.642   0.792   0.239  2.0924 -2.7318  0.8858
 3177SOL     OW10215   2.140   2.551   4.084  0.0471  0.2200 -0.6127
 3177SOL    HW110216   2.205   2.537   4.153 -1.5796 -1.0637  0.7550
 3177SOL    HW210217   2.122   2.645   4.087 -0.0237  0.1818  0.7721
 3178SOL     OW10218   1.316   6.423   0.933 -0.1535 -0.0996  0.0175
 3178SOL    HW110219   1.343   6.336   0.903  1.8288 -0.7585  3.2794
 3178SOL    HW210220   1.227   6.410   0.965 -0.6509 -0.3810 -1.3884
 3179SOL     OW10221   3.408   6.601   4.924 -0.2506 -0.5100 -0.0072
 3179SOL    HW110222   3.473   6.537   4.952  0.2977  0.3576  0.7704
 3179SOL    HW210223   3.421   6.610   4.830  0.4160 -0.7251  0.0651
 3180SOL     OW10224   3.319   6.556   0.045 -0.8577 -0.1611 -0.1182
 3180SOL    HW110225   3.315   6.528   0.137 -1.2412 -0.2076 -0.1483
 3180SOL    HW210226   3.411   6.545   0.021 -0.9802 -1.3631 -0.1077
 3181SOL     OW10227   0.031   0.016   0.160  0.4521  0.0637  0.0166
 3181SOL    HW110228   0.008  -0.004   0.070  3.8250 -1.6392 -0.6088
 3181SOL    HW210229   0.054   0.108   0.160 -1.4740  0.5980 -0.3143
 3182SOL     OW10230   7.329   6.029   4.564 -0.0263  0.4181  0.4648
 3182SOL    HW110231   7.292   6.104   4.517 -0.4438  0.3634  0.6955
 3182SOL    HW210232   7.267   6.013   4.636 -0.0125 -0.2276  0.3388
 3183SOL     OW10233   6.501   6.566   6.874  0.0195 -0.1557 -0.3618
 3183SOL    HW110234   6.508   6.528   6.787 -1.4564  0.4106 -0.7498
 3183SOL    HW210235   6.482   6.659   6.859 -0.9689 -0.1958  0.5542
 3184SOL     OW10236   0.386   4.644   3.320  0.4026 -0.2648 -0.0148
 3184SOL    HW110237   0.375   4.685   3.406  1.1807 -1.2151  0.5607
 3184SOL    HW210238   0.451   4.698   3.276 -0.5727  0.6885 -0.3355
 3185SOL     OW10239   0.798   3.777   1.695  0.9949 -0.2561 -0.1558
 3185SOL    HW110240   0.850   3.817   1.626  0.5052 -0.6343 -0.7563
 3185SOL    HW210241   0.773   3.691   1.660  0.9092 -0.5383  0.5725
 3186SOL     OW10242   3.012   0.977   3.067 -0.2487 -0.0260  0.2258
 3186SOL    HW110243   2.960   0.906   3.030  0.3424 -0.8384  0.9093
 3186SOL    HW210244   2.959   1.056   3.055 -0.2002 -0.2801 -2.0837
 3187SOL     OW10245   6.370   2.329   6.554 -0.6902 -0.1316  0.7645
 3187SOL    HW110246   6.420   2.322   6.635 -1.3993  0.1031  1.2299
 3187SOL    HW210247   6.437   2.342   6.486 -0.1778  1.3015  1.5029
 3188SOL     OW10248   3.336   1.287   0.357 -0.4770 -0.3312 -0.2185
 3188SOL    HW110249   3.337   1.381   0.343 -1.2107 -0.3349 -0.3620
 3188SOL    HW210250   3.349   1.276   0.451  2.7521 -0.2392 -0.5475
 3189SOL     OW10251   0.075   0.152   5.021  0.3199  0.7008  0.0224
 3189SOL    HW110252   0.043   0.063   5.037 -2.3302  1.4288 -0.7196
 3189SOL    HW210253   0.145   0.141   4.957  1.3350 -0.9710  1.3265
 3190SOL     OW10254   0.103   2.467   5.227 -0.6417 -0.1876 -0.1159
 3190SOL    HW110255   0.166   2.411   5.273 -0.8549  0.0418  0.4695
 3190SOL    HW210256   0.028   2.471   5.286 -0.7042  0.5624 -0.2312
 3191SOL     OW10257   1.465   6.979   4.415  0.0864 -0.5615 -0.2738
 3191SOL    HW110258   1.496   6.962   4.504 -1.2429 -0.9540  0.1309
 3191SOL    HW210259   1.543   7.009   4.368  0.3335  2.1069  1.6402
 3192SOL     OW10260   0.795   4.050   3.024 -0.8667  0.4817 -0.2244
 3192SOL    HW110261   0.773   3.959   3.043 -3.0015  1.2082  1.2447
 3192SOL    HW210262   0.883   4.047   2.989 -0.4625 -2.0526  0.8051
 3193SOL     OW10263   6.278   7.435   1.276 -0.6223  0.2400  0.0851
 3193SOL    HW110264   6.305   7.512   1.226 -0.6752 -0.6600 -1.3802
 3193SOL    HW210265   6.182   7.435   1.268 -0.5522 -0.6212 -0.9488
 3194SOL     OW10266   5.702   1.825   3.534 -0.4422  0.0305 -0.4883
 3194SOL    HW110267   5.683   1.893   3.599 -0.8472 -1.8970  1.5032
 3194SOL    HW210268   5.621   1.816   3.484 -0.5326  0.6699 -0.4638
 3195SOL     OW10269   6.722   7.173   6.076  0.2766  0.1515  0.5768
 3195SOL    HW110270   6.816   7.182   6.091  0.9555 -0.5159 -2.4973
 3195SOL    HW210271   6.697   7.096   6.125  1.3762  0.2145  1.2804
 3196SOL     OW10272   2.722   4.492   4.266 -0.2695 -0.1574  0.3421
 3196SOL    HW110273   2.723   4.578   4.307 -0.5016  0.3106 -0.6040
 3196SOL    HW210274   2.652   4.444   4.311 -1.1667  0.6691 -0.1297
 3197SOL     OW10275   2.888   3.767   0.031  0.6796 -0.3927 -0.4364
 3197SOL    HW110276   2.969   3.759   0.081  1.3799 -0.5776 -1.5701
 3197SOL    HW210277   2.859   3.677   0.018  1.5959 -0.4863 -2.0702
 3198SOL     OW10278   1.668   3.344   0.415  0.5068 -0.1596  0.1015
 3198SOL    HW110279   1.652   3.270   0.473 -1.4303  0.2383  0.1296
 3198SOL    HW210280   1.590   3.350   0.361  1.3852  0.7790 -1.1429
 3199SOL     OW10281   3.632   0.963   2.708  0.5901  0.1133 -0.0087
 3199SOL    HW110282   3.710   1.012   2.735 -0.0487  0.6428  0.9540
 3199SOL    HW210283   3.565   1.031   2.694 -0.1165 -0.4142  0.6784
 3200SOL     OW10284   6.825   5.177   7.039  0.0678 -0.7523 -0.2001
 3200SOL    HW110285   6.887   5.177   6.966  0.4617 -1.6141  0.1293
 3200SOL    HW210286   6.869   5.129   7.109 -0.2164  0.2552  0.6920
 3201SOL     OW10287   7.405   0.507   1.257  0.3000  0.0114  0.3152
 3201SOL    HW110288   7.403   0.414   1.232 -1.9074 -0.1486  0.8457
 3201SOL    HW210289   7.361   0.509   1.342  1.8675  1.3565  1.1253
 3202SOL     OW10290   5.429   6.983   2.263 -0.1416  0.3732 -0.0421
 3202SOL    HW110291   5.507   6.943   2.224 -0.6292  0.7925 -1.5107
 3202SOL    HW210292   5.448   7.077   2.264  0.6065  0.2818  2.5103
 3203SOL     OW10293   6.107   7.159   3.230 -0.0170  0.3465  0.6529
 3203SOL    HW110294   6.108   7.255   3.225  0.4522  0.3116 -0.0817
 3203SOL    HW210295   6.048   7.132   3.160 -0.2958  0.1013  0.9814
 3204SOL     OW10296   4.045   5.614   7.682  0.1685  0.0787 -0.1605
 3204SOL    HW110297   4.014   5.545   7.740  0.8374 -0.4733 -0.4441
 3204SOL    HW210298   4.134   5.634   7.713  0.3628  0.0958 -0.7065
 3205SOL     OW10299   2.461   3.140   0.961 -0.1047  0.3092 -0.0221
 3205SOL    HW110300   2.441   3.163   0.870 -1.7995  0.4090  0.3489
 3205SOL    HW210301   2.479   3.047   0.959  0.9124  0.5032 -0.6070
 3206SOL     OW10302   0.377   3.913   1.112 -0.4092  0.0339 -0.2956
 3206SOL    HW110303   0.348   3.868   1.033  0.8872  0.3703 -0.9866
 3206SOL    HW210304   0.422   3.846   1.163 -0.9981 -0.1160  0.0346
 3207SOL     OW10305   6.941   1.490   5.806  0.0052 -0.1431 -0.0398
 3207SOL    HW110306   6.862   1.500   5.753  0.2863  0.1789 -0.4025
 3207SOL    HW210307   6.910   1.448   5.887 -0.6565  0.6390  0.1272
 3208SOL     OW10308   5.047   6.722   6.876  0.4846  0.0260  0.2255
 3208SOL    HW110309   4.955   6.698   6.884  0.3285  0.7648  0.8165
 3208SOL    HW210310   5.059   6.739   6.783 -0.1582  0.5722  0.2338
 3209SOL     OW10311   5.066   6.046   2.365  0.0326 -0.2370  0.4495
 3209SOL    HW110312   5.111   5.962   2.365 -0.4598 -0.5485 -1.5463
 3209SOL    HW210313   5.084   6.083   2.451  3.3047 -0.7585  0.1203
 3210SOL     OW10314   2.204   5.276   1.635 -0.4065  0.6830  0.4374
 3210SOL    HW110315   2.148   5.279   1.713  0.2935  0.4801  0.9511
 3210SOL    HW210316   2.283   5.323   1.661 -1.3348  3.3716 -1.1104
 3211SOL     OW10317   7.475   4.711   3.408  0.0400 -0.0131 -0.7151
 3211SOL    HW110318   7.452   4.626   3.370 -1.6564 -0.5574  1.3580
 3211SOL    HW210319   7.398   4.766   3.394  1.4492  1.5828 -2.8529
 3212SOL     OW10320   5.580   7.232   2.768 -0.0328 -0.1862  0.4910
 3212SOL    HW110321   5.588   7.160   2.831 -0.5047 -0.3696  0.3477
 3212SOL    HW210322   5.544   7.305   2.818  2.9149  0.8645  1.3058
 3213SOL     OW10323   2.717   2.938   3.915 -0.2686 -0.2089 -0.2494
 3213SOL    HW110324   2.805   2.947   3.878 -1.1825  3.1526 -2.0264
 3213SOL    HW210325   2.661   2.920   3.839 -1.4491  0.6394  0.3980
 3214SOL     OW10326   6.568   1.293   5.274  0.0264  0.1154 -0.2865
 3214SOL    HW110327   6.647   1.343   5.295 -0.3182  0.7358 -0.4380
 3214SOL    HW210328   6.496   1.343   5.313 -0.3374 -0.2136 -0.5172
 3215SOL     OW10329   4.790   5.382   3.520 -0.3662 -0.2161 -0.0550
 3215SOL    HW110330   4.877   5.415   3.542 -0.7107  1.5120 -1.1386
 3215SOL    HW210331   4.802   5.336   3.438 -0.3376 -0.6850  0.2090
 3216SOL     OW10332   4.105   6.898   5.259 -0.4295 -0.1703  0.1173
 3216SOL    HW110333   4.148   6.925   5.178  0.2568 -0.2301  0.4504
 3216SOL    HW210334   4.071   6.980   5.297  0.3202  0.0362  0.3707
 3217SOL     OW10335   1.859   2.490   6.009 -0.2674  0.0970  0.0239
 3217SOL    HW110336   1.812   2.573   6.015 -1.0354 -0.4410  2.2275
 3217SOL    HW210337   1.791   2.424   6.009  0.3322 -0.5933 -1.8755
 3218SOL     OW10338   3.233   7.221   4.846  0.0495 -0.1070 -0.5584
 3218SOL    HW110339   3.327   7.241   4.843 -0.4539  2.8218  0.5708
 3218SOL    HW210340   3.196   7.267   4.771 -0.6451 -0.2309 -0.2966
 3219SOL     OW10341   3.802   4.398   7.641 -0.5606 -0.1338  0.3344
 3219SOL    HW110342   3.849   4.441   7.713  1.7241  3.2217 -2.7879
 3219SOL    HW210343   3.722   4.448   7.631 -0.3985  0.0514 -0.0562
 3220SOL     OW10344   6.444   6.134   0.268  0.1883  0.0751 -0.1815
 3220SOL    HW110345   6.406   6.120   0.355  0.4183 -1.0583 -0.2430
 3220SOL    HW210346   6.536   6.150   0.285  0.3473 -0.7364 -0.2397
 3221SOL     OW10347   4.938   4.893   4.584 -0.1836 -0.3199 -0.6734
 3221SOL    HW110348   4.886   4.960   4.539 -0.3741  0.5576  0.7973
 3221SOL    HW210349   4.879   4.818   4.590 -0.8846  0.2745 -0.0378
 3222SOL     OW10350   2.320   4.356   5.238 -0.2914 -0.2137  0.4749
 3222SOL    HW110351   2.254   4.295   5.271  1.0412 -1.7913  0.3292
 3222SOL    HW210352   2.392   4.350   5.301  0.8627 -0.6530 -0.8447
 3223SOL     OW10353   7.693   5.117   4.279  0.3075 -0.6015  0.1891
 3223SOL    HW110354   7.782   5.144   4.300  0.5741 -1.2061 -0.1540
 3223SOL    HW210355   7.690   5.024   4.301 -0.4301 -0.4388  0.8063
 3224SOL     OW10356   7.566   3.405   6.619 -0.1114 -0.2162 -0.3052
 3224SOL    HW110357   7.618   3.478   6.586  1.1763 -1.1612 -0.4453
 3224SOL    HW210358   7.495   3.395   6.555  1.7339 -1.3347 -2.2948
 3225SOL     OW10359   2.783   1.313   5.893  0.1843 -0.1450 -0.4501
 3225SOL    HW110360   2.709   1.292   5.950  1.1498 -1.7576  0.2888
 3225SOL    HW210361   2.855   1.260   5.927  1.4165  0.6011 -1.7765
 3226SOL     OW10362   6.270   5.641   0.993  0.0707 -0.4965 -0.4275
 3226SOL    HW110363   6.257   5.622   1.086  0.3874 -0.1402 -0.3070
 3226SOL    HW210364   6.361   5.616   0.976  0.1343 -0.1867 -0.5455
 3227SOL     OW10365   6.736   4.564   0.064 -0.3405  0.3125  0.8341
 3227SOL    HW110366   6.799   4.530   0.001 -1.3585 -1.2977  0.6396
 3227SOL    HW210367   6.674   4.493   0.078 -1.6205  1.5340  1.7012
 3228SOL     OW10368   0.163   0.761   3.636 -0.2415 -0.0494 -0.0632
 3228SOL    HW110369   0.164   0.667   3.620  2.4488 -0.0825 -0.1556
 3228SOL    HW210370   0.136   0.800   3.553 -2.7009 -0.7160  0.3555
 3229SOL     OW10371   3.568   6.517   0.950  0.1139  0.0085  0.3349
 3229SOL    HW110372   3.640   6.559   0.998  1.7991  0.8669 -2.6640
 3229SOL    HW210373   3.598   6.427   0.936  1.0997  0.5972 -1.6522
 3230SOL     OW10374   0.114   2.284   5.957 -0.2879  0.0172 -0.2234
 3230SOL    HW110375   0.140   2.367   5.917 -1.9094 -0.5952 -2.7325
 3230SOL    HW210376   0.189   2.260   6.012 -0.0418  3.4490  1.1962
 3231SOL     OW10377   6.035   0.130   5.000 -0.3682 -0.4059 -0.1778
 3231SOL    HW110378   6.074   0.137   4.913 -0.5395  0.7086 -0.1806
 3231SOL    HW210379   5.942   0.152   4.987 -0.4217 -0.3647  0.2543
 3232SOL     OW10380   4.098   0.806   3.542 -0.8335 -0.1820  0.1257
 3232SOL    HW110381   4.045   0.765   3.611 -1.9068  0.8777 -0.0482
 3232SOL    HW210382   4.066   0.896   3.537  0.5002  0.2783 -0.4994
 3233SOL     OW10383   4.861   3.669   3.045  0.3598 -0.0106 -0.0101
 3233SOL    HW110384   4.937   3.634   3.091  1.7098  2.6994  0.0121
 3233SOL    HW210385   4.798   3.690   3.114 -0.2818 -1.8311  0.0068
 3234SOL     OW10386   1.139   3.833   5.596 -0.5089 -0.5327 -0.1816
 3234SOL    HW110387   1.227   3.809   5.569 -0.7728  0.7890 -2.5285
 3234SOL    HW210388   1.152   3.898   5.665  0.3658 -0.3427 -0.5089
 3235SOL     OW10389   2.732   3.236   6.579  0.1373  0.0627 -0.1460
 3235SOL    HW110390   2.758   3.147   6.555 -0.0802  0.0642 -0.3913
 3235SOL    HW210391   2.814   3.284   6.585  0.2226 -0.0322 -0.5066
 3236SOL     OW10392   7.575   6.170   6.760 -0.1605 -0.2195  0.7015
 3236SOL    HW110393   7.498   6.115   6.748  0.3337 -0.4311 -1.9918
 3236SOL    HW210394   7.648   6.108   6.768  0.1635 -0.0031 -0.4396
 3237SOL     OW10395   0.756   3.070   1.152 -0.2928  0.2002 -0.0047
 3237SOL    HW110396   0.801   3.005   1.206 -2.0876  0.0348  1.3503
 3237SOL    HW210397   0.753   3.149   1.205  0.3087  0.8840 -0.9522
 3238SOL     OW10398   5.893   6.878   2.760 -0.3804 -0.2140  0.5560
 3238SOL    HW110399   5.967   6.927   2.725  0.6096 -0.4580  2.1793
 3238SOL    HW210400   5.861   6.826   2.687  1.8661 -1.0534  0.1131
 3239SOL     OW10401   3.198   7.397   5.529 -0.3611  0.3107  0.2386
 3239SOL    HW110402   3.245   7.313   5.528 -0.4196  0.2787 -0.2522
 3239SOL    HW210403   3.145   7.394   5.608 -2.0742 -1.0865 -0.8773
 3240SOL     OW10404   4.442   7.108   5.311 -0.1864  0.2737 -0.0899
 3240SOL    HW110405   4.399   7.182   5.269 -0.5373  0.1447  0.0392
 3240SOL    HW210406   4.522   7.095   5.260 -0.8467 -0.1985 -1.0422
 3241SOL     OW10407   5.834   1.448   6.952  0.2697  0.4802  0.0392
 3241SOL    HW110408   5.904   1.384   6.940 -0.5923 -1.0477  2.5114
 3241SOL    HW210409   5.878   1.533   6.943  2.1062 -0.4413 -0.0927
 3242SOL     OW10410   7.707   5.283   6.792  0.2033 -0.3902  0.2069
 3242SOL    HW110411   7.754   5.225   6.851  1.3351  0.8691  0.5823
 3242SOL    HW210412   7.682   5.358   6.846 -2.1695 -0.9324 -0.0038
 3243SOL     OW10413   4.107   1.752   0.809 -0.3437 -0.0903 -0.0688
 3243SOL    HW110414   4.092   1.679   0.869  2.2561  0.3783  1.2619
 3243SOL    HW210415   4.195   1.737   0.774 -1.9578 -0.7662 -4.5173
 3244SOL     OW10416   5.404   4.064   4.423 -0.0711 -0.0267  0.4231
 3244SOL    HW110417   5.324   4.047   4.472  0.1376  0.1481  0.8333
 3244SOL    HW210418   5.381   4.132   4.360 -0.4177 -0.4619  0.0787
 3245SOL     OW10419   6.315   2.632   3.910  0.1655 -0.0966  0.4092
 3245SOL    HW110420   6.290   2.604   3.998 -0.5216 -1.9424 -0.3137
 3245SOL    HW210421   6.410   2.618   3.907  0.2251  0.1860  0.9273
 3246SOL     OW10422   6.199   7.377   6.830 -0.4904  0.0349  0.8116
 3246SOL    HW110423   6.214   7.468   6.856 -1.3450  0.3056  0.3802
 3246SOL    HW210424   6.223   7.375   6.737 -0.3330 -0.2224  0.8559
 3247SOL     OW10425   7.026   6.367   3.067  0.6083 -0.2232 -0.6676
 3247SOL    HW110426   6.936   6.392   3.089  0.3074 -1.4237 -0.4519
 3247SOL    HW210427   7.047   6.420   2.990  0.5656  1.7607  0.6099
 3248SOL     OW10428   7.709   4.293   2.919  0.0539  0.3409 -0.4902
 3248SOL    HW110429   7.711   4.388   2.932  2.9641  0.2822 -0.0244
 3248SOL    HW210430   7.698   4.257   3.006 -1.6406  0.1736 -0.7217
 3249SOL     OW10431   7.680   2.549   0.499  0.2520  0.2490 -0.2686
 3249SOL    HW110432   7.705   2.537   0.407  1.1133 -1.2268  0.1075
 3249SOL    HW210433   7.760   2.581   0.541  1.2354 -2.9562  0.6500
 3250SOL     OW10434   1.585   4.557   1.356 -0.2076 -0.8153 -0.0721
 3250SOL    HW110435   1.492   4.572   1.343 -0.0139  1.0966  0.4279
 3250SOL    HW210436   1.624   4.644   1.353  1.5450 -1.5533 -0.0769
 3251SOL     OW10437   2.750   1.060   4.698  0.0460 -0.5180 -0.0995
 3251SOL    HW110438   2.775   1.013   4.777  0.5514  0.9215  0.6332
 3251SOL    HW210439   2.678   1.116   4.726  2.2995  2.4221  0.2400
 3252SOL     OW10440   6.893   2.903   4.538 -0.0604 -0.2282 -0.1469
 3252SOL    HW110441   6.971   2.959   4.542 -0.2109  0.0246 -0.7180
 3252SOL    HW210442   6.821   2.961   4.564 -0.2721 -0.0491 -1.1210
 3253SOL     OW10443   2.872   0.757   2.631  0.4405  0.1801  0.3186
 3253SOL    HW110444   2.835   0.672   2.656  0.2568 -0.2908 -1.4203
 3253SOL    HW210445   2.946   0.734   2.573 -0.3711  1.1821 -1.1875
 3254SOL     OW10446   5.475   4.495   3.881 -0.0053  0.7778 -0.3613
 3254SOL    HW110447   5.523   4.575   3.900  0.3346  0.6759 -0.7837
 3254SOL    HW210448   5.417   4.518   3.808 -0.2846  0.7800 -0.1422
 3255SOL     OW10449   1.399   2.023   5.656  0.3095 -0.3022  0.5949
 3255SOL    HW110450   1.399   2.007   5.562 -1.3455 -1.0930  0.6977
 3255SOL    HW210451   1.348   1.951   5.693  0.6970  0.1408  2.0796
 3256SOL     OW10452   3.802   2.724   5.337  0.1577 -0.1353  0.4611
 3256SOL    HW110453   3.834   2.770   5.414  2.3809 -1.1755  0.2280
 3256SOL    HW210454   3.756   2.648   5.373  1.6624 -0.9236  0.8226
 3257SOL     OW10455   2.789   5.502   6.272  0.1752 -0.2169  0.2939
 3257SOL    HW110456   2.829   5.519   6.186 -1.0088  0.8623 -0.0863
 3257SOL    HW210457   2.854   5.529   6.335  0.5021  0.4050 -0.2955
 3258SOL     OW10458   3.091   1.789   5.655  0.0858 -0.0682  0.5538
 3258SOL    HW110459   3.159   1.744   5.604 -0.2868 -0.3504  0.3003
 3258SOL    HW210460   3.125   1.790   5.744 -0.1159 -1.3113  0.6706
 3259SOL     OW10461   0.747   2.227   4.656 -0.0989  0.0061 -0.0552
 3259SOL    HW110462   0.789   2.148   4.623 -0.9402 -0.7866  0.7150
 3259SOL    HW210463   0.814   2.268   4.711  0.2329 -0.3435 -0.1946
 3260SOL     OW10464   5.229   7.413   6.236 -0.2652  0.1004 -0.1566
 3260SOL    HW110465   5.185   7.462   6.166 -0.2594 -0.8391 -0.8479
 3260SOL    HW210466   5.313   7.457   6.247 -1.0909  1.5327  0.7418
 3261SOL     OW10467   1.061   3.272   0.256  0.3023 -0.5000 -0.1407
 3261SOL    HW110468   1.095   3.201   0.311 -0.1381 -0.5780  0.0342
 3261SOL    HW210469   1.044   3.344   0.317  2.3060  0.3733 -0.5135
 3262SOL     OW10470   7.306   5.178   1.961 -0.2297 -1.2356 -0.1180
 3262SOL    HW110471   7.302   5.083   1.950  0.5911 -1.4679  1.3080
 3262SOL    HW210472   7.397   5.195   1.983 -0.4061 -0.1301 -0.2165
 3263SOL     OW10473   0.586   6.197   1.683 -0.4041 -0.3997 -0.0338
 3263SOL    HW110474   0.616   6.265   1.743  0.5176 -1.5926  0.9030
 3263SOL    HW210475   0.527   6.243   1.623  1.2059  1.4932 -0.2644
 3264SOL     OW10476   2.450   1.774   2.158 -0.3859  0.1206  0.3032
 3264SOL    HW110477   2.436   1.722   2.237 -0.2363 -0.6904 -0.1957
 3264SOL    HW210478   2.418   1.718   2.087  2.2727 -0.4406 -0.5360
 3265SOL     OW10479   1.887   3.405   2.224  0.4701  0.3397 -0.5438
 3265SOL    HW110480   1.896   3.423   2.317 -0.2796  0.4916 -0.4933
 3265SOL    HW210481   1.794   3.415   2.206  0.3319 -1.3160 -0.9694
 3266SOL     OW10482   3.356   1.501   0.615  0.1528  0.1043 -0.7354
 3266SOL    HW110483   3.278   1.530   0.663 -0.7665 -0.0730 -2.0704
 3266SOL    HW210484   3.429   1.533   0.667 -0.7632 -0.8353  1.2607
 3267SOL     OW10485   2.071   1.337   5.959 -0.2419 -0.3908 -0.0279
 3267SOL    HW110486   2.146   1.298   5.916  0.4414  1.1069 -0.2737
 3267SOL    HW210487   2.062   1.424   5.918  0.6473  1.2606  2.9648
 3268SOL     OW10488   2.033   7.258   4.006 -0.0722  0.2915  0.2509
 3268SOL    HW110489   2.120   7.226   3.982  0.0415  0.7120  0.0903
 3268SOL    HW210490   1.972   7.194   3.968  0.1714 -0.0581  0.4534
 3269SOL     OW10491   4.213   2.205   3.097  0.1619 -0.2633  0.2093
 3269SOL    HW110492   4.199   2.240   3.009  0.1437  0.6230  0.5594
 3269SOL    HW210493   4.126   2.207   3.137  0.0680 -1.1648  0.0804
 3270SOL     OW10494   5.725   2.954   1.519 -0.0538 -0.2712  0.6400
 3270SOL    HW110495   5.763   2.978   1.435  0.8305  0.4646  1.2373
 3270SOL    HW210496   5.645   2.906   1.496  1.6693 -2.7356 -0.6671
 3271SOL     OW10497   7.089   4.859   3.998 -0.0482  0.3118 -0.3475
 3271SOL    HW110498   7.021   4.839   3.934 -1.1946  1.7147  0.3791
 3271SOL    HW210499   7.142   4.928   3.956 -0.1776  0.4990 -0.2069
 3272SOL     OW10500   2.087   5.758   6.005  0.0242 -0.8601  0.2830
 3272SOL    HW110501   2.151   5.818   6.044 -0.4645  0.5794 -0.9864
 3272SOL    HW210502   2.066   5.696   6.075  1.8072 -0.5737  1.1324
 3273SOL     OW10503   1.571   4.996   0.930  0.1280  0.4908 -0.1801
 3273SOL    HW110504   1.481   4.968   0.947  0.2937  1.2772  2.3593
 3273SOL    HW210505   1.567   5.036   0.843 -2.0681  0.8703  0.0361
 3274SOL     OW10506   2.448   5.079   7.007  0.4689 -0.0004  0.4226
 3274SOL    HW110507   2.510   5.152   7.008  1.8188 -1.1121  1.0701
 3274SOL    HW210508   2.407   5.083   6.921 -1.3409  2.9900  1.2743
 3275SOL     OW10509   6.908   5.490   4.513  0.4190 -0.0488  0.1549
 3275SOL    HW110510   6.917   5.427   4.584 -0.9272  0.7243  1.0506
 3275SOL    HW210511   6.998   5.516   4.492  0.8727 -0.7628  1.1369
 3276SOL     OW10512   1.275   0.933   2.999 -0.6038 -0.1077  0.1632
 3276SOL    HW110513   1.263   0.860   2.938 -2.4819 -0.9344  1.4270
 3276SOL    HW210514   1.193   0.981   2.995 -0.3577  0.4372  1.2606
 3277SOL     OW10515   0.315   0.616   7.728 -0.7860  0.4925  0.5353
 3277SOL    HW110516   0.356   0.542   7.684  0.9151  1.9853 -0.5254
 3277SOL    HW210517   0.373   0.634   7.802 -1.2950  0.6681  0.8982
 3278SOL     OW10518   7.052   4.289   6.716  0.0981 -0.5314 -0.6925
 3278SOL    HW110519   6.975   4.343   6.734  1.0369  1.4132 -2.2451
 3278SOL    HW210520   7.016   4.202   6.696 -1.4757 -0.4317  1.3180
 3279SOL     OW10521   4.319   5.725   7.738  0.4656  0.2664 -0.6745
 3279SOL    HW110522   4.392   5.777   7.706  0.1277  0.8966 -0.4346
 3279SOL    HW210523   4.273   5.783   7.799  0.3402 -0.4564 -0.0597
 3280SOL     OW10524   0.358   6.595   6.758  0.1738 -0.3474  0.3738
 3280SOL    HW110525   0.356   6.545   6.839 -1.4518  0.6632  1.0178
 3280SOL    HW210526   0.335   6.684   6.785 -2.0370 -0.2973 -1.3698
 3281SOL     OW10527   2.244   7.748   1.342 -0.2600  0.1095 -0.4662
 3281SOL    HW110528   2.287   7.692   1.406 -0.2692 -0.0293 -0.5819
 3281SOL    HW210529   2.300   7.826   1.337  0.1742 -0.2239 -0.8814
 3282SOL     OW10530   1.506   4.968   0.547 -0.5877 -0.4393 -0.1551
 3282SOL    HW110531   1.443   5.033   0.580 -0.1796 -0.3825  0.5344
 3282SOL    HW210532   1.564   5.018   0.489 -0.4818 -0.2518  0.1093
 3283SOL     OW10533   5.064   2.997   0.319  0.2136 -0.2885 -0.0047
 3283SOL    HW110534   4.999   3.062   0.291  0.9686 -0.2949 -1.8654
 3283SOL    HW210535   5.043   2.918   0.270  0.5168 -0.8696  0.7679
 3284SOL     OW10536   2.686   1.598   6.228 -0.0823 -0.1152  0.3182
 3284SOL    HW110537   2.691   1.652   6.307 -0.9579 -1.3423  1.2419
 3284SOL    HW210538   2.776   1.596   6.195  0.1901  0.8765  0.9464
 3285SOL     OW10539   1.982   4.826   7.675 -0.3711  0.7507  0.2451
 3285SOL    HW110540   2.069   4.860   7.654 -0.2600 -1.4494 -3.6987
 3285SOL    HW210541   1.999   4.742   7.718 -0.4954  0.2927 -0.5795
 3286SOL     OW10542   7.412   1.628   7.524  0.0731  0.3657  0.3504
 3286SOL    HW110543   7.438   1.719   7.540  0.8382  0.4665 -1.3046
 3286SOL    HW210544   7.492   1.585   7.493 -0.5107 -0.6527  0.1952
 3287SOL     OW10545   1.857   4.735   2.812 -0.0949 -0.7207  0.1565
 3287SOL    HW110546   1.813   4.766   2.891  0.4422  1.3362 -0.3120
 3287SOL    HW210547   1.790   4.737   2.744 -0.2879 -1.4974  0.3117
 3288SOL     OW10548   1.103   2.076   7.259  0.7629 -0.0940  0.1296
 3288SOL    HW110549   1.057   2.080   7.175 -1.3241  0.4941  1.2527
 3288SOL    HW210550   1.161   2.153   7.259  0.4614  0.1378 -0.5897
 3289SOL     OW10551   1.698   7.325   3.266  0.4839  0.4932  0.6443
 3289SOL    HW110552   1.695   7.325   3.362 -0.6874  0.8722  0.6279
 3289SOL    HW210553   1.752   7.249   3.244 -0.9171 -0.8379  1.5972
 3290SOL     OW10554   6.651   3.693   3.748  0.4172  0.2502 -0.2696
 3290SOL    HW110555   6.714   3.721   3.681 -0.4855  0.3407 -1.1099
 3290SOL    HW210556   6.589   3.637   3.700 -0.5162  0.7035  0.3801
 3291SOL     OW10557   4.589   1.105   6.490  0.1845  0.4903  0.3124
 3291SOL    HW110558   4.680   1.131   6.506  0.4635 -0.3813  0.2124
 3291SOL    HW210559   4.591   1.064   6.403 -0.2030  0.0301  0.5167
 3292SOL     OW10560   5.901   0.887   2.612  0.4082 -0.4480 -0.0079
 3292SOL    HW110561   5.947   0.914   2.691 -1.6935 -0.4162  1.2531
 3292SOL    HW210562   5.923   0.794   2.602 -0.7103 -0.9274  1.6669
 3293SOL     OW10563   4.798   6.736   4.002 -0.2394  0.3578  0.1054
 3293SOL    HW110564   4.778   6.650   4.040 -0.2384 -0.3008 -1.3281
 3293SOL    HW210565   4.731   6.794   4.038  0.8461  0.2212  2.5623
 3294SOL     OW10566   2.515   1.970   6.250 -0.1880  0.8959  0.1820
 3294SOL    HW110567   2.527   2.006   6.162 -1.7514  0.7592 -0.1169
 3294SOL    HW210568   2.424   1.991   6.272 -0.3388 -0.5657  1.0686
 3295SOL     OW10569   2.192   2.742   3.560 -0.3839 -0.6687 -0.2173
 3295SOL    HW110570   2.159   2.774   3.476 -0.6350 -0.6732 -0.1188
 3295SOL    HW210571   2.190   2.646   3.551 -0.8801 -0.6768 -0.0218
 3296SOL     OW10572   3.900   5.848   5.223  0.3266 -0.5652  0.3701
 3296SOL    HW110573   3.870   5.770   5.269 -0.4665 -0.3753  0.2051
 3296SOL    HW210574   3.994   5.837   5.215  0.5317 -0.4830  2.2490
 3297SOL     OW10575   3.950   6.014   3.108 -0.3686 -0.3176 -1.2672
 3297SOL    HW110576   3.938   5.919   3.101 -0.0050 -0.5417  0.5918
 3297SOL    HW210577   3.894   6.040   3.182  0.7888  0.6442 -0.6978
 3298SOL     OW10578   2.153   5.067   5.405 -0.0437  0.0424 -0.2595
 3298SOL    HW110579   2.124   5.021   5.326  0.6708 -2.1012  0.6470
 3298SOL    HW210580   2.157   5.159   5.379  1.2722 -0.6810 -3.0977
 3299SOL     OW10581   6.372   0.604   3.890 -0.3027 -0.6761  1.1636
 3299SOL    HW110582   6.390   0.645   3.805  0.1808  0.0748  1.6092
 3299SOL    HW210583   6.298   0.654   3.926 -1.0614 -1.5376  0.8287
 3300SOL     OW10584   5.260   4.102   3.592 -0.2135  0.3510 -0.7218
 3300SOL    HW110585   5.349   4.132   3.574  0.7516 -2.0071 -0.1830
 3300SOL    HW210586   5.229   4.066   3.508 -0.5013  0.7538 -0.7922
 3301SOL     OW10587   1.179   4.563   4.563  0.4776 -0.0028 -0.1758
 3301SOL    HW110588   1.215   4.651   4.571  0.3424  0.0520 -0.1848
 3301SOL    HW210589   1.235   4.510   4.621  0.0933  0.2241  0.4102
 3302SOL     OW10590   0.889   1.897   0.314 -0.4140 -0.6044 -0.6719
 3302SOL    HW110591   0.799   1.878   0.342 -0.1864 -1.0240 -0.2071
 3302SOL    HW210592   0.893   1.992   0.311 -0.7191 -0.5667 -0.1460
 3303SOL     OW10593   5.272   6.738   5.868  0.0877 -0.0434 -0.2281
 3303SOL    HW110594   5.338   6.684   5.825 -0.0446  0.4503 -1.0657
 3303SOL    HW210595   5.317   6.822   5.883 -0.7518  0.8013 -2.1162
 3304SOL     OW10596   2.113   1.609   2.182  0.1445  0.2086 -0.5230
 3304SOL    HW110597   2.195   1.608   2.133  0.9258  0.8640  0.6861
 3304SOL    HW210598   2.091   1.517   2.194  1.1939 -0.0099 -0.1209
 3305SOL     OW10599   0.687   0.555   5.300 -0.2015 -0.4742 -0.0120
 3305SOL    HW110600   0.696   0.643   5.265 -2.0925 -0.2127  0.0548
 3305SOL    HW210601   0.607   0.558   5.353 -0.5300 -2.3236 -0.3295
 3306SOL     OW10602   5.447   2.680   4.505  0.0314  0.1327 -0.4386
 3306SOL    HW110603   5.385   2.686   4.432 -0.3806 -0.8032 -0.1792
 3306SOL    HW210604   5.497   2.601   4.488  0.2460  0.1561  0.0554
 3307SOL     OW10605   2.795   2.827   4.719 -0.1821  0.4752  0.3014
 3307SOL    HW110606   2.890   2.822   4.709 -0.3937 -0.4229 -1.6300
 3307SOL    HW210607   2.761   2.804   4.633 -2.1776  0.2819  1.1068
 3308SOL     OW10608   1.885   1.598   0.779 -0.2676  0.3956  0.4285
 3308SOL    HW110609   1.873   1.690   0.804 -1.7559  0.2160  0.4706
 3308SOL    HW210610   1.813   1.552   0.821  0.6635 -0.8735  0.7009
 3309SOL     OW10611   0.877   3.053   4.115 -0.3272 -0.4217 -0.2574
 3309SOL    HW110612   0.897   3.009   4.198 -0.9515  1.9823  1.2990
 3309SOL    HW210613   0.811   3.119   4.139  1.3683  2.1364 -2.0766
 3310SOL     OW10614   1.929   5.684   1.674  0.6784 -0.2065  0.1321
 3310SOL    HW110615   1.845   5.638   1.677  0.7603 -0.3233  0.8793
 3310SOL    HW210616   1.994   5.614   1.667  0.7845 -0.1864  0.9105
 3311SOL     OW10617   3.875   5.603   4.442 -0.5568 -0.0636 -0.3028
 3311SOL    HW110618   3.875   5.540   4.371 -0.6776  0.3830 -0.7036
 3311SOL    HW210619   3.800   5.661   4.423  0.4592  1.1387 -0.7988
 3312SOL     OW10620   1.531   2.851   0.994 -0.1236  0.0926 -0.3487
 3312SOL    HW110621   1.459   2.818   0.940 -1.4658  0.9712  0.8332
 3312SOL    HW210622   1.578   2.772   1.022 -1.1425 -0.5735 -0.4606
 3313SOL     OW10623   1.124   4.203   2.516 -0.3747 -1.1650  0.1217
 3313SOL    HW110624   1.200   4.149   2.496  1.1896  0.9055  0.1383
 3313SOL    HW210625   1.082   4.219   2.432  2.0482  1.5742 -0.7405
 3314SOL     OW10626   6.724   1.273   6.567  0.4242  0.2868  0.5260
 3314SOL    HW110627   6.640   1.237   6.535 -0.2998  1.3396  1.1988
 3314SOL    HW210628   6.699   1.336   6.633  1.6794  1.8782 -0.4576
 3315SOL     OW10629   4.875   2.865   6.372 -0.4427 -0.3952 -0.0977
 3315SOL    HW110630   4.864   2.799   6.442 -0.5732 -0.0854  0.1772
 3315SOL    HW210631   4.901   2.814   6.295  1.8478 -0.5319  0.6945
 3316SOL     OW10632   4.028   3.185   0.463  0.5816 -0.6140 -0.1651
 3316SOL    HW110633   4.106   3.213   0.415 -0.0068 -1.4774 -1.6709
 3316SOL    HW210634   4.037   3.090   0.468  0.1149 -0.6293  0.5789
 3317SOL     OW10635   3.560   6.865   6.635 -0.1252 -0.1271 -0.1719
 3317SOL    HW110636   3.641   6.880   6.683 -0.0888 -0.6568 -0.0535
 3317SOL    HW210637   3.579   6.789   6.580 -0.5001 -0.1776 -0.2347
 3318SOL     OW10638   1.737   3.529   3.234 -0.1005  0.3018  0.1972
 3318SOL    HW110639   1.793   3.515   3.310 -0.0057 -0.4271 -0.0059
 3318SOL    HW210640   1.651   3.548   3.271 -0.9455 -3.5305  0.5251
 3319SOL     OW10641   3.074   4.481   3.443 -0.1671 -0.2147  0.2514
 3319SOL    HW110642   3.050   4.524   3.525 -0.8084 -0.6078  0.2740
 3319SOL    HW210643   3.071   4.387   3.463  1.9537 -0.2905  0.4064
 3320SOL     OW10644   1.241   2.262   2.048  0.4133 -0.3036 -0.5713
 3320SOL    HW110645   1.287   2.341   2.020 -2.9395  0.8083 -3.6375
 3320SOL    HW210646   1.171   2.294   2.105  1.5591 -1.6480  1.7276
 3321SOL     OW10647   6.850   5.442   2.823  0.6432  0.1121  0.6888
 3321SOL    HW110648   6.939   5.437   2.860  0.0498  2.0163  2.5710
 3321SOL    HW210649   6.807   5.510   2.874 -2.5871 -2.1381  1.2097
 3322SOL     OW10650   0.990   3.472   0.454  0.3660  0.0330 -0.0755
 3322SOL    HW110651   1.040   3.540   0.498  0.6401 -0.7601  0.8609
 3322SOL    HW210652   0.920   3.520   0.409  1.0172  0.9978 -0.0966
 3323SOL     OW10653   4.573   5.634   5.719 -0.2392 -0.2688 -0.0630
 3323SOL    HW110654   4.616   5.550   5.703 -0.0309  0.0347 -1.1587
 3323SOL    HW210655   4.599   5.689   5.645 -0.4367  0.7405  0.6017
 3324SOL     OW10656   6.656   4.662   3.707 -0.4666 -0.0969 -0.0380
 3324SOL    HW110657   6.719   4.598   3.673 -2.2396 -2.5963  1.0532
 3324SOL    HW210658   6.686   4.679   3.796 -0.1113  0.4713 -0.2602
 3325SOL     OW10659   3.544   1.947   4.105  0.5055 -0.2726  0.4311
 3325SOL    HW110660   3.469   1.974   4.157  1.4266  0.2747  1.4979
 3325SOL    HW210661   3.508   1.931   4.017 -0.6893  0.8276  0.7032
 3326SOL     OW10662   6.689   0.087   2.330  0.1324 -0.2055 -0.2426
 3326SOL    HW110663   6.721   0.118   2.415  0.8425 -1.3459 -0.0601
 3326SOL    HW210664   6.711   0.156   2.268  0.2019  0.3495  0.4014
 3327SOL     OW10665   1.775   5.033   3.825  0.1038 -0.0979  0.0578
 3327SOL    HW110666   1.755   4.966   3.760 -0.8832 -1.5013  1.7252
 3327SOL    HW210667   1.693   5.083   3.832  0.0352 -0.2836  0.5844
 3328SOL     OW10668   7.698   4.562   6.940  0.6536 -0.3287 -0.0067
 3328SOL    HW110669   7.647   4.594   6.865  1.2459  0.7811  0.0552
 3328SOL    HW210670   7.633   4.549   7.009  0.4886  1.6559  0.2696
 3329SOL     OW10671   3.167   5.894   5.388  0.4980 -0.1288 -0.4516
 3329SOL    HW110672   3.097   5.895   5.322  0.9564 -0.5216 -0.9617
 3329SOL    HW210673   3.141   5.961   5.452 -1.6108 -1.9555  0.7392
 3330SOL     OW10674   6.642   7.619   2.855 -0.1850  0.2793  0.6388
 3330SOL    HW110675   6.550   7.594   2.864 -0.0795 -0.1181  0.6160
 3330SOL    HW210676   6.663   7.665   2.936 -0.4548  0.5262  0.5680
 3331SOL     OW10677   7.178   7.333   3.689  0.1808 -0.0942 -0.0882
 3331SOL    HW110678   7.095   7.357   3.648 -0.2514 -2.3684 -0.7068
 3331SOL    HW210679   7.237   7.318   3.615  1.2304  1.6582  0.3468
 3332SOL     OW10680   6.795   1.883   3.432 -0.5390 -0.2640 -0.2958
 3332SOL    HW110681   6.800   1.950   3.500  0.3003 -0.8541  0.2353
 3332SOL    HW210682   6.886   1.865   3.409 -0.7396 -1.3759 -0.2778
 3333SOL     OW10683   3.933   7.539   5.881  0.6863  0.2024 -0.4323
 3333SOL    HW110684   3.842   7.568   5.893  0.5222 -0.6306  0.4410
 3333SOL    HW210685   3.982   7.583   5.950  0.2522 -2.2948  1.6233
 3334SOL     OW10686   2.267   3.051   3.781 -0.1461  0.0453 -0.0108
 3334SOL    HW110687   2.196   2.987   3.776  0.3222 -0.4628 -0.1894
 3334SOL    HW210688   2.311   3.032   3.863 -0.6445  0.8225  0.4478
 3335SOL     OW10689   1.545   5.312   6.380  0.0284 -0.0433  0.2224
 3335SOL    HW110690   1.462   5.356   6.399  0.0695 -0.1453  0.6405
 3335SOL    HW210691   1.547   5.237   6.440 -0.2739 -0.9154 -0.8152
 3336SOL     OW10692   1.035   1.493   3.162  0.3500 -0.6400 -0.0359
 3336SOL    HW110693   1.106   1.524   3.107 -0.1150 -1.0827 -0.9006
 3336SOL    HW210694   1.051   1.534   3.248  0.1516  1.4122 -0.9215
 3337SOL     OW10695   5.105   2.092   5.462 -0.3288 -0.3206  0.1823
 3337SOL    HW110696   5.197   2.114   5.451 -0.0557 -1.5504 -0.1582
 3337SOL    HW210697   5.057   2.169   5.430  0.5603 -0.3063 -1.1814
 3338SOL     OW10698   2.845   1.469   3.911  0.1621  0.3781 -0.3190
 3338SOL    HW110699   2.812   1.502   3.827  0.2019 -1.5950 -1.1657
 3338SOL    HW210700   2.767   1.456   3.964  0.1422  1.7148  0.0115
 3339SOL     OW10701   1.591   5.716   1.155  0.0493 -0.0840 -0.4975
 3339SOL    HW110702   1.525   5.720   1.225  1.2085  1.2693  0.5936
 3339SOL    HW210703   1.613   5.623   1.148 -0.8923 -0.3786  0.1531
 3340SOL     OW10704   0.695   2.155   0.760  0.0840 -0.0972 -0.3239
 3340SOL    HW110705   0.778   2.125   0.796 -0.1973 -0.1062  0.3380
 3340SOL    HW210706   0.639   2.078   0.762 -0.6227  0.4195  1.3225
 3341SOL     OW10707   5.481   4.025   6.016 -0.1052 -0.3136 -1.0995
 3341SOL    HW110708   5.575   4.016   6.006  0.1194  0.5282  0.0286
 3341SOL    HW210709   5.470   4.077   6.095 -1.5367 -0.8722 -0.8985
 3342SOL     OW10710   1.175   5.838   7.148  0.0807 -0.6901  0.3324
 3342SOL    HW110711   1.250   5.803   7.101  0.1930  0.7887 -0.6722
 3342SOL    HW210712   1.102   5.829   7.086  0.0558  0.5162  0.1631
 3343SOL     OW10713   0.782   1.955   5.162 -0.2821 -0.1427 -0.1271
 3343SOL    HW110714   0.780   1.860   5.150  0.6228 -0.4851  1.9910
 3343SOL    HW210715   0.770   1.967   5.256 -1.9674  1.9473 -0.5514
 3344SOL     OW10716   3.478   2.216   3.668 -0.4119 -0.1977 -0.0146
 3344SOL    HW110717   3.548   2.277   3.690  0.1748 -1.6711  2.6281
 3344SOL    HW210718   3.521   2.145   3.620 -0.5207 -0.0310 -0.3618
 3345SOL     OW10719   5.772   7.301   3.805 -0.0494  0.0522  0.2223
 3345SOL    HW110720   5.698   7.289   3.745  0.3100 -0.3255 -0.1575
 3345SOL    HW210721   5.818   7.217   3.803 -0.1864 -0.0618  1.2549
 3346SOL     OW10722   4.063   1.406   1.464 -0.1760  0.5847 -0.0425
 3346SOL    HW110723   4.120   1.329   1.466 -0.9157 -0.0380 -1.5240
 3346SOL    HW210724   4.106   1.465   1.401  0.0100  1.0925  0.5501
 3347SOL     OW10725   5.379   2.135   3.830  0.9792  0.5297 -0.2926
 3347SOL    HW110726   5.366   2.045   3.860  0.8905  1.2672  2.0708
 3347SOL    HW210727   5.298   2.180   3.855  1.6954  1.6384  0.0738
 3348SOL     OW10728   1.443   2.805   4.080  0.0531 -0.5722  0.8994
 3348SOL    HW110729   1.416   2.764   4.162  2.4554 -2.0042  1.0885
 3348SOL    HW210730   1.488   2.885   4.107  1.1923 -1.2417  1.0741
 3349SOL     OW10731   6.261   3.245   4.301 -0.0618  0.2342  0.2985
 3349SOL    HW110732   6.275   3.234   4.395  0.9506 -0.4769  0.0731
 3349SOL    HW210733   6.170   3.220   4.287  0.5937 -2.5914  0.6529
 3350SOL     OW10734   7.146   1.446   3.187 -0.0653  0.3900 -0.1056
 3350SOL    HW110735   7.056   1.442   3.155 -1.4206  2.6913  2.8705
 3350SOL    HW210736   7.180   1.530   3.155 -0.1057  0.9217  1.1515
 3351SOL     OW10737   5.299   4.038   2.138  0.1408 -0.1275  0.0737
 3351SOL    HW110738   5.307   4.129   2.110 -1.1779  0.0897  0.3402
 3351SOL    HW210739   5.361   4.030   2.211 -3.2310  2.0535  3.5424
 3352SOL     OW10740   1.677   1.278   3.850  0.0938  0.0913 -0.3776
 3352SOL    HW110741   1.610   1.301   3.786 -0.8157 -1.8255 -0.1766
 3352SOL    HW210742   1.634   1.287   3.935  0.9020  1.3455 -0.0740
 3353SOL     OW10743   2.818   6.629   3.961  0.0505  0.2915 -0.4425
 3353SOL    HW110744   2.750   6.605   3.899 -1.5371 -0.8941  1.6601
 3353SOL    HW210745   2.780   6.699   4.014  0.2737 -0.6270  0.9935
 3354SOL     OW10746   7.197   6.365   5.352 -0.2825 -0.8484  0.0605
 3354SOL    HW110747   7.177   6.414   5.432 -0.8072 -0.8587 -0.0568
 3354SOL    HW210748   7.231   6.281   5.382 -0.7550 -0.9648  0.2796
 3355SOL     OW10749   1.827   5.778   3.408  0.0894 -0.0920  0.0001
 3355SOL    HW110750   1.862   5.707   3.354  0.2788  0.5003 -0.6563
 3355SOL    HW210751   1.745   5.802   3.364 -0.4521 -0.5234  0.7456
 3356SOL     OW10752   7.331   0.071   6.979  0.1607 -0.2996 -0.5669
 3356SOL    HW110753   7.262   0.072   6.913  1.3588 -0.5237 -1.8670
 3356SOL    HW210754   7.411   0.052   6.930  1.0746 -0.6101  0.9713
 3357SOL     OW10755   0.643   3.826   3.106 -0.3512  0.2808 -0.3424
 3357SOL    HW110756   0.727   3.780   3.106 -0.3398  0.2971 -0.0864
 3357SOL    HW210757   0.578   3.757   3.110 -0.3072  0.2770  2.4516
 3358SOL     OW10758   7.510   2.068   6.324 -0.2690 -0.2577  0.1763
 3358SOL    HW110759   7.469   2.152   6.303 -0.5765 -0.1977  1.0075
 3358SOL    HW210760   7.581   2.090   6.384 -0.3850 -0.5977  0.4393
 3359SOL     OW10761   3.472   7.169   1.603  0.7266 -0.1061  0.0173
 3359SOL    HW110762   3.563   7.137   1.601  1.4987  1.8054  1.6928
 3359SOL    HW210763   3.440   7.152   1.514  2.9686 -0.1548 -0.8645
 3360SOL     OW10764   4.516   1.207   1.695  0.2242  0.3341 -1.1089
 3360SOL    HW110765   4.599   1.237   1.660  0.4433  0.1093 -0.7842
 3360SOL    HW210766   4.506   1.254   1.778  0.3571 -0.1508 -0.8132
 3361SOL     OW10767   4.065   5.190   2.277 -0.6141  0.6491  1.0224
 3361SOL    HW110768   4.069   5.185   2.181 -0.8200  0.0684  1.0370
 3361SOL    HW210769   4.008   5.264   2.295  1.9246  2.8166  0.7416
 3362SOL     OW10770   0.098   3.175   3.284 -0.3441  0.0109  0.4890
 3362SOL    HW110771   0.008   3.199   3.304 -1.0807 -0.6452 -1.7207
 3362SOL    HW210772   0.126   3.238   3.218 -0.0458 -1.1798 -0.5719
 3363SOL     OW10773   2.412   0.606   2.296  0.4694  0.4716 -0.7070
 3363SOL    HW110774   2.475   0.677   2.281 -1.3160  2.1514 -0.5140
 3363SOL    HW210775   2.328   0.649   2.304 -0.4090 -1.4679  1.7147
 3364SOL     OW10776   7.540   4.331   5.044 -0.0427 -0.4289 -0.3125
 3364SOL    HW110777   7.540   4.322   4.948 -3.5697 -0.3370 -0.4544
 3364SOL    HW210778   7.516   4.244   5.076 -0.7673 -0.0097  0.3336
 3365SOL     OW10779   5.244   7.759   5.691 -0.0205 -0.1879  0.3696
 3365SOL    HW110780   5.209   7.701   5.758 -0.0697 -1.9228 -1.0776
 3365SOL    HW210781   5.339   7.744   5.693  0.0742  0.4303  0.6462
 3366SOL     OW10782   5.512   5.163   7.224 -0.1295  0.1693  0.1240
 3366SOL    HW110783   5.446   5.155   7.155 -0.0741  0.8102 -0.0166
 3366SOL    HW210784   5.589   5.120   7.189 -0.2244  0.1415 -0.0545
 3367SOL     OW10785   1.907   3.194   5.013 -0.0509  0.0073 -0.0836
 3367SOL    HW110786   1.990   3.239   4.996  0.0682 -0.4637 -0.8296
 3367SOL    HW210787   1.931   3.122   5.071 -0.1411  0.5484  0.6332
 3368SOL     OW10788   4.399   7.255   3.487 -0.6053  0.2038  0.2959
 3368SOL    HW110789   4.357   7.250   3.573 -1.3038  2.1226  0.0955
 3368SOL    HW210790   4.486   7.216   3.501 -1.8156 -2.4538  1.0605
 3369SOL     OW10791   7.386   5.267   4.378  0.4479 -0.6662  0.1962
 3369SOL    HW110792   7.336   5.337   4.336 -0.3122 -1.9791 -1.2114
 3369SOL    HW210793   7.478   5.289   4.362  0.2146 -0.0361 -0.3084
 3370SOL     OW10794   0.027   2.372   2.996  0.1388 -0.5799  0.1902
 3370SOL    HW110795  -0.069   2.361   2.999  0.0304  0.4285  0.5962
 3370SOL    HW210796   0.041   2.465   3.013  1.2557 -0.9010  1.0682
 3371SOL     OW10797   5.997   4.633   0.293  0.4180 -0.6435  0.0155
 3371SOL    HW110798   5.966   4.718   0.261 -0.6966  0.2605  3.1332
 3371SOL    HW210799   5.963   4.570   0.229 -0.6192  1.0560 -1.2023
 3372SOL     OW10800   2.562   4.834   1.072 -0.5180 -0.1344  0.0512
 3372SOL    HW110801   2.517   4.844   1.156 -0.6074 -0.3241  0.0266
 3372SOL    HW210802   2.650   4.869   1.088 -0.4789 -0.3286  0.2741
 3373SOL     OW10803   3.409   6.926   3.361  0.2123 -0.0733 -0.3641
 3373SOL    HW110804   3.384   6.900   3.272  0.7131 -1.7653 -0.0462
 3373SOL    HW210805   3.390   6.849   3.415  1.3064  0.3925  0.7357
 3374SOL     OW10806   2.073   1.589   3.505 -0.5216  1.0871 -0.4672
 3374SOL    HW110807   2.101   1.620   3.419 -1.1309 -0.6771 -1.3452
 3374SOL    HW210808   1.989   1.546   3.490 -0.2421  0.0013  0.8453
 3375SOL     OW10809   1.730   7.371   7.059  0.5779  0.2430 -0.2357
 3375SOL    HW110810   1.806   7.417   7.022  0.1315  0.1269 -1.3188
 3375SOL    HW210811   1.737   7.282   7.025  1.6114 -0.6460  2.1052
 3376SOL     OW10812   0.925   1.698   4.424 -0.1210 -0.3911 -0.6583
 3376SOL    HW110813   0.930   1.709   4.519  1.4405 -2.0986 -0.4936
 3376SOL    HW210814   0.836   1.666   4.409 -1.6511  3.0924 -0.2561
 3377SOL     OW10815   4.079   5.170   4.029  0.4574 -0.1279  0.1089
 3377SOL    HW110816   4.036   5.161   4.114  1.7525  0.1746  0.8180
 3377SOL    HW210817   4.124   5.086   4.015  0.9797  0.1398  0.1500
 3378SOL     OW10818   6.873   1.849   6.063 -0.0935  0.3853  0.0053
 3378SOL    HW110819   6.830   1.822   6.144  0.9423  0.3267  0.5570
 3378SOL    HW210820   6.818   1.814   5.993  0.3128 -1.7414  0.6831
 3379SOL     OW10821   5.999   0.445   2.359 -0.3041 -0.4614 -0.4307
 3379SOL    HW110822   5.904   0.446   2.344 -0.9929 -4.5651  2.1235
 3379SOL    HW210823   6.033   0.396   2.285 -0.3235 -0.1452 -0.6540
 3380SOL     OW10824   6.020   0.459   0.916  0.2021  0.1993  0.0270
 3380SOL    HW110825   5.943   0.421   0.874  0.3756 -0.4317  0.2724
 3380SOL    HW210826   5.984   0.519   0.982 -0.0822  1.7105 -1.4232
 3381SOL     OW10827   2.759   4.611   2.502 -0.2005  0.3401 -0.1982
 3381SOL    HW110828   2.707   4.679   2.458 -1.9368 -0.2257  0.8721
 3381SOL    HW210829   2.700   4.536   2.506  0.6417 -0.2647  1.2678
 3382SOL     OW10830   5.318   3.503   1.427  0.8702  0.0385 -0.0283
 3382SOL    HW110831   5.298   3.529   1.516 -0.3260  0.7141 -0.4774
 3382SOL    HW210832   5.237   3.462   1.395  1.0381  0.4500 -1.0281
 3383SOL     OW10833   4.362   1.583   7.764 -0.0752 -0.0904  0.0037
 3383SOL    HW110834   4.312   1.536   7.697  1.3326 -0.7351 -0.6560
 3383SOL    HW210835   4.452   1.551   7.753 -0.0520 -1.6029  3.3818
 3384SOL     OW10836   3.355   3.562   3.120  0.1459  0.0625  0.0287
 3384SOL    HW110837   3.443   3.580   3.087  0.5364 -0.5892  0.6803
 3384SOL    HW210838   3.362   3.574   3.215 -0.4854  0.0719  0.0773
 3385SOL     OW10839   6.070   6.704   3.364  0.4629  0.8331 -0.3948
 3385SOL    HW110840   6.134   6.775   3.356  1.0622  0.3303 -0.1604
 3385SOL    HW210841   6.042   6.686   3.275 -0.2002  1.8086 -0.4024
 3386SOL     OW10842   0.988   3.836   5.328  0.5351 -0.4970 -0.3283
 3386SOL    HW110843   1.049   3.869   5.394  2.5882 -2.5025 -1.0924
 3386SOL    HW210844   0.914   3.896   5.333  2.0953  1.4858  1.3656
 3387SOL     OW10845   7.555   5.635   0.628 -0.4286 -0.3713  0.0287
 3387SOL    HW110846   7.555   5.731   0.620 -0.3504 -0.4832 -1.4865
 3387SOL    HW210847   7.613   5.618   0.702  0.9691  0.6828 -0.7711
 3388SOL     OW10848   7.548   3.649   0.953 -0.0508  0.7555 -0.0266
 3388SOL    HW110849   7.576   3.602   0.875  1.5835 -0.4044  1.1879
 3388SOL    HW210850   7.610   3.622   1.021 -0.5910  2.7591  1.3537
 3389SOL     OW10851   2.490   3.920   3.668 -0.5499 -0.1521 -0.7950
 3389SOL    HW110852   2.571   3.955   3.704 -0.0332 -1.0562 -1.0521
 3389SOL    HW210853   2.489   3.951   3.577 -0.9633  0.6290 -0.5339
 3390SOL     OW10854   7.160   7.034   2.746  0.4410  0.0758 -0.1134
 3390SOL    HW110855   7.248   7.031   2.784  0.0694 -1.0128  0.7106
 3390SOL    HW210856   7.106   7.075   2.814 -0.0968 -1.2549  0.2922
 3391SOL     OW10857   2.471   4.578   4.586 -0.1869 -0.2943  0.2277
 3391SOL    HW110858   2.506   4.490   4.596 -2.7471 -1.6192 -1.5377
 3391SOL    HW210859   2.532   4.622   4.527  0.8022 -1.0362  0.6657
 3392SOL     OW10860   0.474   7.019   7.034 -0.3175  0.2372 -0.3510
 3392SOL    HW110861   0.386   7.031   6.996 -0.9381 -1.9653  0.2680
 3392SOL    HW210862   0.461   7.030   7.128  0.0065 -0.3793 -0.2290
 3393SOL     OW10863   5.152   1.133   7.137 -0.4529 -0.0692  0.3962
 3393SOL    HW110864   5.062   1.103   7.125 -0.4103  0.7540 -2.9144
 3393SOL    HW210865   5.206   1.065   7.098  0.0779  1.0162 -0.8407
 3394SOL     OW10866   0.729   3.581   2.533 -0.4045 -0.0217 -0.2692
 3394SOL    HW110867   0.702   3.671   2.554 -4.2927 -0.8882 -0.8757
 3394SOL    HW210868   0.674   3.556   2.459  2.2796 -2.1702 -1.7015
 3395SOL     OW10869   0.851   1.556   0.729 -0.2654  0.5029  0.1957
 3395SOL    HW110870   0.903   1.625   0.770  1.5176 -0.2953 -0.6367
 3395SOL    HW210871   0.909   1.519   0.662 -1.6566 -0.9266 -0.2654
 3396SOL     OW10872   3.130   1.401   5.643 -0.5479 -0.0038 -0.0511
 3396SOL    HW110873   3.185   1.480   5.636  1.5815 -0.6214  5.2620
 3396SOL    HW210874   3.174   1.337   5.586  3.1797  0.2412  2.1891
 3397SOL     OW10875   2.166   3.997   3.102  0.3854  0.0245 -0.3839
 3397SOL    HW110876   2.091   4.055   3.112  0.6449  0.9830 -3.1264
 3397SOL    HW210877   2.128   3.910   3.089 -0.1996  0.2789 -0.3996
 3398SOL     OW10878   0.270   2.783   7.519 -0.3306  0.2368  0.1627
 3398SOL    HW110879   0.307   2.719   7.579  0.2715  1.0612  0.6906
 3398SOL    HW210880   0.187   2.808   7.558 -1.2106 -1.1750 -0.7203
 3399SOL     OW10881   1.943   1.308   6.625 -0.1563 -0.2554  0.0695
 3399SOL    HW110882   2.008   1.258   6.576  0.2088  0.0303  0.2530
 3399SOL    HW210883   1.890   1.242   6.670 -0.9393 -0.5545 -1.2476
 3400SOL     OW10884   0.945   6.588   0.079  0.6318 -0.0487  0.0380
 3400SOL    HW110885   0.933   6.498   0.107 -0.3847  0.0819  0.0519
 3400SOL    HW210886   0.947   6.583  -0.017 -0.9355  0.0591 -0.0310
 3401SOL     OW10887   3.917   6.000   0.736 -0.2261  0.3139 -0.0108
 3401SOL    HW110888   3.863   5.922   0.725 -0.4368  0.7739 -2.6826
 3401SOL    HW210889   3.923   6.011   0.831 -2.0430 -1.6479  0.4001
 3402SOL     OW10890   2.739   3.255   6.149 -0.3666 -0.3685  0.0696
 3402SOL    HW110891   2.660   3.219   6.190 -0.6910 -0.1516 -0.3570
 3402SOL    HW210892   2.806   3.189   6.165 -0.6526 -0.5897  0.3735
 3403SOL     OW10893   4.875   6.349   0.009 -0.0777 -0.2606  0.0137
 3403SOL    HW110894   4.791   6.356  -0.036  0.3341  1.7929 -0.5423
 3403SOL    HW210895   4.853   6.347   0.102 -0.7796 -1.3719 -0.1557
 3404SOL     OW10896   0.641   1.858   3.976  0.2298  0.6821  0.1175
 3404SOL    HW110897   0.579   1.909   4.028  0.4681 -0.3587  1.4980
 3404SOL    HW210898   0.702   1.924   3.941 -0.3433  1.4948  0.6051
 3405SOL     OW10899   1.766   0.590   2.177  0.9178  0.2756 -0.1458
 3405SOL    HW110900   1.785   0.670   2.226 -1.0068  1.3245 -1.0103
 3405SOL    HW210901   1.771   0.616   2.085 -1.4412 -0.0858 -0.4406
 3406SOL     OW10902   4.687   5.071   4.792 -0.1099  0.0551  0.4181
 3406SOL    HW110903   4.610   5.098   4.742 -0.2776  0.4631  0.8835
 3406SOL    HW210904   4.759   5.071   4.728 -0.5850 -0.7952 -0.1206
 3407SOL     OW10905   6.063   4.512   1.691  0.0622 -0.0885 -0.0629
 3407SOL    HW110906   6.033   4.473   1.773  0.7392 -0.2348  0.1216
 3407SOL    HW210907   5.985   4.551   1.652 -0.6714 -1.7321 -0.3079
 3408SOL     OW10908   4.222   4.124   0.533  0.0748 -0.3600  0.0704
 3408SOL    HW110909   4.232   4.031   0.557  2.6152  0.3296  2.0856
 3408SOL    HW210910   4.312   4.156   0.525 -0.7401  2.1907  0.4543
 3409SOL     OW10911   0.610   6.153   5.470  0.7004  0.4613 -0.5867
 3409SOL    HW110912   0.665   6.113   5.403  1.1579 -0.3383  0.2253
 3409SOL    HW210913   0.537   6.092   5.480 -0.0893  1.2686 -1.3104
 3410SOL     OW10914   6.606   3.220   4.173 -0.3762 -0.1688  0.1545
 3410SOL    HW110915   6.574   3.150   4.231 -1.7887  0.4021  0.0852
 3410SOL    HW210916   6.542   3.224   4.102  0.9243 -0.3361 -1.0739
 3411SOL     OW10917   0.996   6.842   5.496 -0.8606 -0.1963 -0.1550
 3411SOL    HW110918   0.987   6.896   5.417  0.2210 -0.8433 -0.7316
 3411SOL    HW210919   1.009   6.753   5.464 -0.2564 -0.4516  0.7461
 3412SOL     OW10920   4.363   0.678   5.353  0.6379  0.0101 -0.3642
 3412SOL    HW110921   4.317   0.598   5.326 -0.1549  0.8252 -1.5699
 3412SOL    HW210922   4.405   0.655   5.436  2.1483 -2.2695 -1.6592
 3413SOL     OW10923   5.663   0.027   0.129  0.7206  0.0829 -0.8571
 3413SOL    HW110924   5.590  -0.011   0.177  0.1694  1.2723 -0.7240
 3413SOL    HW210925   5.724  -0.046   0.116  0.1391 -0.6146  0.2172
 3414SOL     OW10926   2.933   5.081   3.244  0.2411 -0.6158 -0.3310
 3414SOL    HW110927   2.911   5.087   3.337 -0.2379  0.3762 -0.4951
 3414SOL    HW210928   3.026   5.100   3.240  0.4727 -1.6520  0.0468
 3415SOL     OW10929   6.669   2.554   2.935 -0.1865 -0.1251  0.1225
 3415SOL    HW110930   6.742   2.564   2.875  0.6371 -2.4962  0.5988
 3415SOL    HW210931   6.594   2.591   2.889  1.2887  2.5357 -0.3105
 3416SOL     OW10932   7.755   7.452   3.319  0.4552  0.6873  0.3647
 3416SOL    HW110933   7.660   7.451   3.310  0.4708 -1.1323  0.0016
 3416SOL    HW210934   7.779   7.360   3.335  2.2973  0.7524 -1.5191
 3417SOL     OW10935   2.107   7.257   5.985 -0.6720 -0.3014  0.4510
 3417SOL    HW110936   2.093   7.163   5.996  0.0279 -0.3283  1.2301
 3417SOL    HW210937   2.196   7.271   6.018 -1.1053  0.7768  1.1718
 3418SOL     OW10938   3.363   4.324   5.307 -0.1478 -0.4355 -0.2489
 3418SOL    HW110939   3.369   4.308   5.401 -1.1888 -2.1266 -0.4261
 3418SOL    HW210940   3.347   4.418   5.300 -0.3886 -0.3326  1.2858
 3419SOL     OW10941   1.560   6.775   6.182  0.1872  0.2293  0.6410
 3419SOL    HW110942   1.508   6.697   6.164 -1.1924  0.9347  1.3880
 3419SOL    HW210943   1.573   6.815   6.096 -1.6130  0.6852  0.5311
 3420SOL     OW10944   6.019   5.011   6.071 -0.1682 -0.3356 -0.5385
 3420SOL    HW110945   6.106   5.016   6.110 -0.0164  0.5855 -0.9792
 3420SOL    HW210946   6.024   5.066   5.993 -1.2113 -0.0828 -0.4423
 3421SOL     OW10947   1.325   1.161   6.297 -0.1547 -0.3701 -0.4115
 3421SOL    HW110948   1.244   1.138   6.250 -1.0377  0.2459  0.7543
 3421SOL    HW210949   1.393   1.110   6.253 -1.4114 -2.1315 -0.4260
 3422SOL     OW10950   7.574   1.907   3.634 -0.3881 -0.1350  0.2453
 3422SOL    HW110951   7.492   1.884   3.679 -2.2020 -0.1663 -2.7799
 3422SOL    HW210952   7.618   1.823   3.621 -1.3300 -0.5205 -0.6135
 3423SOL     OW10953   4.678   1.497   0.339  0.0952  0.3123  0.0801
 3423SOL    HW110954   4.751   1.467   0.284 -1.2826 -2.2480 -0.4870
 3423SOL    HW210955   4.685   1.445   0.419 -1.0790  0.0537  0.0282
 3424SOL     OW10956   6.188   6.985   3.806  0.7271  0.5350  0.2036
 3424SOL    HW110957   6.164   7.048   3.738  1.7613 -0.2529 -0.9424
 3424SOL    HW210958   6.257   7.029   3.856 -0.2687  1.2492  0.9961
 3425SOL     OW10959   6.146   2.341   2.723 -0.8239 -0.6015  0.0500
 3425SOL    HW110960   6.231   2.339   2.767  0.3434 -0.1120 -2.0586
 3425SOL    HW210961   6.098   2.266   2.759  0.1051 -0.3223  1.9722
 3426SOL     OW10962   3.039   5.036   7.491  0.0670  0.7170  0.0401
 3426SOL    HW110963   2.964   5.083   7.526  0.3543  0.4893  0.9985
 3426SOL    HW210964   3.006   4.993   7.412 -1.0231  0.0275  0.8349
 3427SOL     OW10965   6.939   3.391   6.988  0.1721 -0.0245  0.4738
 3427SOL    HW110966   6.920   3.485   6.990 -0.0733 -0.0676  0.2174
 3427SOL    HW210967   6.869   3.351   7.040 -0.5510 -0.1983 -0.5984
 3428SOL     OW10968   5.829   5.659   2.130 -0.1809 -0.2228 -0.0823
 3428SOL    HW110969   5.919   5.644   2.159 -0.1364  0.5276  0.1999
 3428SOL    HW210970   5.796   5.572   2.109 -0.1538 -0.8223  2.0813
 3429SOL     OW10971   0.355   2.658   7.756  0.1409 -0.3680 -0.1794
 3429SOL    HW110972   0.276   2.604   7.760  0.3829 -0.6524  1.3229
 3429SOL    HW210973   0.427   2.597   7.769  0.4208  0.2850  1.5767
 3430SOL     OW10974   4.598   5.794   5.290 -0.1711  0.7205  0.6068
 3430SOL    HW110975   4.656   5.791   5.366  1.4470 -0.0397 -0.5925
 3430SOL    HW210976   4.541   5.869   5.305 -1.3574 -0.5914  3.5582
 3431SOL     OW10977   7.230   3.406   6.946 -0.0897 -0.5799 -0.0162
 3431SOL    HW110978   7.159   3.427   6.885  0.2694  0.6196 -0.0594
 3431SOL    HW210979   7.187   3.360   7.018 -0.8541 -0.2059 -0.2188
 3432SOL     OW10980   3.232   1.095   6.443  0.4159 -0.1889  0.1518
 3432SOL    HW110981   3.253   1.189   6.443 -1.5299  0.3510  2.1539
 3432SOL    HW210982   3.178   1.083   6.364  1.0870  0.2433 -0.3852
 3433SOL     OW10983   3.039   1.753   0.623 -0.5073  0.2188  0.1381
 3433SOL    HW110984   2.945   1.764   0.611 -0.6355 -2.0270 -1.4780
 3433SOL    HW210985   3.051   1.659   0.637  1.3283  0.6913  2.5211
 3434SOL     OW10986   6.585   3.779   4.421  0.1286  0.3074 -0.3788
 3434SOL    HW110987   6.511   3.762   4.362  0.9419 -0.6681 -1.1663
 3434SOL    HW210988   6.545   3.789   4.507 -0.8101 -1.9637 -0.4787
 3435SOL     OW10989   1.170   5.541   7.188 -0.6891 -0.8185  0.1821
 3435SOL    HW110990   1.183   5.572   7.277 -2.1956 -1.8806  0.8207
 3435SOL    HW210991   1.231   5.468   7.178 -0.7182 -0.8779  0.4438
 3436SOL     OW10992   0.891   4.802   6.394 -0.4153  0.3825 -0.0381
 3436SOL    HW110993   0.832   4.735   6.429  0.8901 -0.1231  1.3257
 3436SOL    HW210994   0.841   4.883   6.398 -1.8131 -0.3715 -1.1341
 3437SOL     OW10995   4.642   2.178   0.082  0.1259  0.1634 -0.0748
 3437SOL    HW110996   4.631   2.157  -0.011 -0.9426  1.1711 -0.2045
 3437SOL    HW210997   4.731   2.212   0.089  0.5172 -0.7415 -0.5623
 3438SOL     OW10998   1.766   0.217   1.971 -0.5060  0.1099  0.5568
 3438SOL    HW110999   1.771   0.142   2.030  1.7119 -0.0639  0.2246
 3438SOL    HW211000   1.714   0.184   1.897  0.7218 -1.2555  0.2536
 3439SOL     OW11001   6.008   1.239   2.213 -0.0136 -0.4097 -0.0216
 3439SOL    HW111002   5.964   1.175   2.270  1.5603 -1.3718  0.1697
 3439SOL    HW211003   5.937   1.294   2.180 -0.9591  0.7640  3.5046
 3440SOL     OW11004   1.701   3.766   5.508 -0.7461 -0.6628 -0.8042
 3440SOL    HW111005   1.685   3.769   5.413  0.3541 -1.1249 -1.0224
 3440SOL    HW211006   1.768   3.832   5.523 -0.6327 -0.8652 -0.4150
 3441SOL     OW11007   4.273   0.691   0.542 -0.2962  0.2403  0.0249
 3441SOL    HW111008   4.199   0.670   0.599 -0.1547 -0.4338 -0.0291
 3441SOL    HW211009   4.312   0.606   0.522 -0.1730  0.4943 -0.8548
 3442SOL     OW11010   6.588   5.691   0.423  0.0828 -0.9350 -0.4787
 3442SOL    HW111011   6.684   5.689   0.421  0.1220  0.0224 -0.1151
 3442SOL    HW211012   6.562   5.637   0.349  0.8737 -2.7156  0.4586
 3443SOL     OW11013   6.126   2.164   1.813 -0.4678  0.3485  0.2783
 3443SOL    HW111014   6.071   2.169   1.891 -1.7128  1.0416 -0.6307
 3443SOL    HW211015   6.118   2.073   1.784 -0.4667  0.2421  0.5997
 3444SOL     OW11016   0.548   5.301   1.403  0.0711 -0.3997  0.3582
 3444SOL    HW111017   0.488   5.274   1.472 -1.4016  2.4056  0.3240
 3444SOL    HW211018   0.497   5.362   1.349  2.7421  1.8093  0.0651
 3445SOL     OW11019   4.320   3.145   3.585  0.0511  0.6544  0.0555
 3445SOL    HW111020   4.376   3.107   3.517  0.2844 -0.7296  0.9729
 3445SOL    HW211021   4.264   3.207   3.539 -0.5884 -1.0816 -1.5963
 3446SOL     OW11022   4.053   1.197   0.957  0.2852  0.4867 -0.3759
 3446SOL    HW111023   4.141   1.233   0.944 -0.0864  1.6543  0.2654
 3446SOL    HW211024   4.001   1.270   0.989 -0.5205 -0.5905  0.8837
 3447SOL     OW11025   3.736   4.246   0.116 -0.0332 -0.0120 -0.2495
 3447SOL    HW111026   3.782   4.195   0.049 -0.6128  1.1219 -1.5521
 3447SOL    HW211027   3.784   4.329   0.120 -0.8185  0.4572 -0.2666
 3448SOL     OW11028   6.429   1.713   2.083  0.2422  0.1662 -0.1247
 3448SOL    HW111029   6.397   1.668   2.005  0.3125 -0.7312  0.3406
 3448SOL    HW211030   6.521   1.731   2.064  0.4417 -0.6611 -0.0053
 3449SOL     OW11031   5.272   4.725   6.828 -0.6814  0.0861 -0.1098
 3449SOL    HW111032   5.190   4.771   6.843 -0.0461  1.1442  0.1485
 3449SOL    HW211033   5.273   4.655   6.894 -2.0651 -0.9171 -1.0865
 3450SOL     OW11034   5.684   3.586   7.631 -0.3314  0.0031  0.6019
 3450SOL    HW111035   5.773   3.622   7.636 -0.0370 -0.7172  0.6728
 3450SOL    HW211036   5.630   3.650   7.677  0.1868  0.3474  0.7436
 3451SOL     OW11037   6.153   6.949   2.978  0.2022 -0.3067 -0.0098
 3451SOL    HW111038   6.133   6.869   3.026  0.1809  0.4201  1.2440
 3451SOL    HW211039   6.167   6.921   2.887  0.5363 -1.7601  0.4749
 3452SOL     OW11040   2.847   0.192   0.075  0.0664 -0.0167 -0.2971
 3452SOL    HW111041   2.920   0.254   0.071 -0.0257  0.1925  0.8917
 3452SOL    HW211042   2.861   0.143   0.156 -0.0876 -1.2874 -1.0117
 3453SOL     OW11043   1.116   7.754   6.663  1.0224 -0.3585  0.0588
 3453SOL    HW111044   1.184   7.759   6.596  0.0523  0.9068 -0.8924
 3453SOL    HW211045   1.070   7.672   6.645  0.9934 -0.1995 -0.6245
 3454SOL     OW11046   4.650   5.892   3.221  0.4756  0.7301 -0.3115
 3454SOL    HW111047   4.599   5.958   3.267 -0.2412 -0.2678  0.3872
 3454SOL    HW211048   4.586   5.844   3.168  0.4875 -1.0179  1.1437
 3455SOL     OW11049   2.491   4.044   3.420 -0.1884  0.2415  0.1129
 3455SOL    HW111050   2.419   4.077   3.365 -0.0401  0.5374  0.0922
 3455SOL    HW211051   2.552   4.006   3.358 -0.2026  0.2290  0.1066
 3456SOL     OW11052   5.743   0.687   3.729  0.1599 -0.0737 -0.2318
 3456SOL    HW111053   5.657   0.648   3.712  0.8405 -0.6287 -2.7847
 3456SOL    HW211054   5.805   0.620   3.703  1.4319  0.3840  1.4336
 3457SOL     OW11055   4.430   3.162   4.187  0.3096 -0.0892  0.4959
 3457SOL    HW111056   4.399   3.072   4.176  2.3729 -0.7582 -0.3214
 3457SOL    HW211057   4.515   3.153   4.230  0.4889  1.4969  0.5267
 3458SOL     OW11058   1.630   5.411   6.116 -0.7864 -0.2413  0.3174
 3458SOL    HW111059   1.587   5.383   6.197 -1.8618 -0.6761 -0.3700
 3458SOL    HW211060   1.560   5.454   6.066 -0.5420 -1.2719 -0.9853
 3459SOL     OW11061   1.322   0.654   5.558 -0.1081  0.0807 -0.3878
 3459SOL    HW111062   1.243   0.682   5.604  0.5684  0.8088  0.3575
 3459SOL    HW211063   1.374   0.610   5.625  1.5505  2.4421 -0.0076
 3460SOL     OW11064   3.738   0.271   0.477 -0.0962 -0.2347  0.3867
 3460SOL    HW111065   3.754   0.189   0.525 -0.9881 -0.3652  0.4839
 3460SOL    HW211066   3.775   0.339   0.534  0.4395 -0.5448  0.4178
 3461SOL     OW11067   6.981   6.864   6.766  0.5966 -0.1700 -0.3929
 3461SOL    HW111068   7.077   6.868   6.774  0.4383  0.8263  1.7419
 3461SOL    HW211069   6.965   6.791   6.706  2.6363 -1.8386  0.9573
 3462SOL     OW11070   4.823   2.996   3.703  0.1302  0.0552  0.0546
 3462SOL    HW111071   4.751   2.942   3.670 -0.4966  1.4067 -0.9065
 3462SOL    HW211072   4.780   3.077   3.730  1.3927  1.3562 -1.6440
 3463SOL     OW11073   1.289   7.273   6.298  0.2119 -0.0518 -0.4716
 3463SOL    HW111074   1.259   7.340   6.360  0.0912 -0.6065  0.0808
 3463SOL    HW211075   1.377   7.251   6.328  0.0228 -0.5655 -0.2899
 3464SOL     OW11076   0.536   4.112   1.291 -0.3246 -0.2819 -0.6407
 3464SOL    HW111077   0.472   4.174   1.327  0.3959  0.6874 -1.0001
 3464SOL    HW211078   0.493   4.077   1.213 -0.3748  0.4531 -0.9482
 3465SOL     OW11079   3.243   5.099   2.507  0.2891 -0.4950  0.1928
 3465SOL    HW111080   3.243   5.106   2.411 -0.2599 -1.2870  0.1248
 3465SOL    HW211081   3.200   5.179   2.537  0.6305 -0.1548 -0.2109
 3466SOL     OW11082   0.084   2.006   4.759  0.1645 -0.4314  0.1300
 3466SOL    HW111083   0.170   2.041   4.783 -0.5221  2.3842 -0.9991
 3466SOL    HW211084   0.034   2.007   4.841  0.1236  1.6631  0.1474
 3467SOL     OW11085   4.683   0.474   6.582  0.1766  0.1129  0.1011
 3467SOL    HW111086   4.635   0.557   6.582  1.3803  0.8445  1.2707
 3467SOL    HW211087   4.617   0.409   6.606 -0.3763  1.0234  1.1495
 3468SOL     OW11088   3.897   6.203   1.709  0.4408 -0.1192 -0.1064
 3468SOL    HW111089   3.848   6.259   1.769 -0.8947 -1.7598  0.4250
 3468SOL    HW211090   3.897   6.251   1.626  2.6010  2.3392  1.1972
 3469SOL     OW11091   4.195   2.465   7.591  0.6874  0.4112 -0.0057
 3469SOL    HW111092   4.237   2.545   7.622 -1.3128  1.4995  0.0835
 3469SOL    HW211093   4.108   2.466   7.631  0.1620 -1.1828 -0.9791
 3470SOL     OW11094   6.529   6.953   1.154  0.4553  0.0001 -0.5274
 3470SOL    HW111095   6.443   6.931   1.119  0.3450 -0.9903  0.3082
 3470SOL    HW211096   6.588   6.947   1.078  0.2507 -2.2364 -0.5853
 3471SOL     OW11097   0.775   2.729   1.727  0.5194  0.1758  1.0085
 3471SOL    HW111098   0.830   2.696   1.798 -1.9460  0.3576  3.1784
 3471SOL    HW211099   0.752   2.818   1.754  1.0963  1.0084 -1.0670
 3472SOL     OW11100   2.451   2.848   3.478  0.0173  0.3379  0.1868
 3472SOL    HW111101   2.525   2.818   3.531 -0.7362  3.3937  3.3039
 3472SOL    HW211102   2.374   2.813   3.523 -0.5936  0.0686 -1.0213
 3473SOL     OW11103   3.944   6.077   5.873 -0.1260 -0.3608  0.4253
 3473SOL    HW111104   4.027   6.034   5.893  0.9462  1.3468 -0.0596
 3473SOL    HW211105   3.969   6.149   5.815 -1.4706  2.1730  2.7585
 3474SOL     OW11106   3.718   1.917   0.044  0.2211  0.2363  0.0612
 3474SOL    HW111107   3.803   1.875   0.055 -0.1579 -0.4174  0.5608
 3474SOL    HW211108   3.737   1.997  -0.004  1.0939  0.0052  0.0063
 3475SOL     OW11109   5.092   0.049   3.862 -0.0920 -0.4780  0.8221
 3475SOL    HW111110   5.008   0.041   3.907 -0.6839 -1.5390 -0.4089
 3475SOL    HW211111   5.105  -0.037   3.821  1.5396 -0.2888  0.8914
 3476SOL     OW11112   2.358   4.017   1.359  0.2618  0.5894  0.5009
 3476SOL    HW111113   2.355   3.922   1.375  2.0923 -0.0338 -2.2912
 3476SOL    HW211114   2.284   4.034   1.301 -0.1806  0.9700  1.1500
 3477SOL     OW11115   5.269   3.658   2.896 -0.0043  0.2754  0.5672
 3477SOL    HW111116   5.315   3.606   2.962  1.3461 -0.6114 -0.9906
 3477SOL    HW211117   5.309   3.632   2.813 -0.2596  2.7864 -0.4329
 3478SOL     OW11118   0.667   4.385   6.583 -0.4772  0.2658 -0.0719
 3478SOL    HW111119   0.618   4.459   6.546 -0.6920 -0.3265 -0.9971
 3478SOL    HW211120   0.601   4.335   6.631 -0.2837  0.7911  0.7697
 3479SOL     OW11121   5.529   3.858   4.308  0.4047 -0.1376  0.5616
 3479SOL    HW111122   5.503   3.863   4.216  1.3140 -0.3821  0.2817
 3479SOL    HW211123   5.473   3.921   4.353  0.0363  0.0635 -0.1814
 3480SOL     OW11124   4.410   1.989   0.855 -0.2784  0.1781  0.0165
 3480SOL    HW111125   4.321   1.980   0.823 -0.4928 -0.7863  0.8440
 3480SOL    HW211126   4.433   2.080   0.836 -2.0925  0.9822  1.4181
 3481SOL     OW11127   2.697   6.627   7.684  0.2578 -0.2065  0.3854
 3481SOL    HW111128   2.725   6.718   7.681 -0.8577  0.1610  0.6287
 3481SOL    HW211129   2.628   6.625   7.750 -1.2143 -0.7834 -1.0936
 3482SOL     OW11130   5.715   0.007   4.576 -0.5778  0.2883 -0.2513
 3482SOL    HW111131   5.704   0.097   4.606  3.0851  0.9900 -0.5985
 3482SOL    HW211132   5.767   0.014   4.496  2.3364 -2.1462  1.2122
 3483SOL     OW11133   7.553   1.665   3.995  0.3154  0.7104 -0.1491
 3483SOL    HW111134   7.580   1.611   4.070  0.9522 -2.9491 -2.7569
 3483SOL    HW211135   7.458   1.674   4.006  0.1902 -0.9479  0.4330
 3484SOL     OW11136   5.693   3.926   3.684 -0.2268 -0.5596 -0.1881
 3484SOL    HW111137   5.681   4.006   3.735  1.2275 -0.0851 -0.5317
 3484SOL    HW211138   5.642   3.860   3.730 -1.9428  0.6635 -0.2208
 3485SOL     OW11139   3.514   2.161   5.354 -0.1480  0.1098 -0.1394
 3485SOL    HW111140   3.510   2.215   5.433 -2.0270  1.9656 -1.3676
 3485SOL    HW211141   3.572   2.088   5.376  1.0335  1.6604  2.2361
 3486SOL     OW11142   7.001   2.999   4.932 -0.0408 -0.1683  0.0617
 3486SOL    HW111143   6.920   2.948   4.931  0.0933 -0.4064  0.8666
 3486SOL    HW211144   7.006   3.033   5.021  0.3234  0.5334 -0.2245
 3487SOL     OW11145   2.160   0.926   3.286 -0.5571 -0.0970  0.1702
 3487SOL    HW111146   2.244   0.932   3.240 -0.8629  1.0119 -0.2859
 3487SOL    HW211147   2.169   0.985   3.361  0.3099 -2.6709  2.2331
 3488SOL     OW11148   2.080   0.678   3.371  0.0294  0.2761 -0.1162
 3488SOL    HW111149   2.118   0.766   3.359 -1.1601  0.6927 -1.0305
 3488SOL    HW211150   2.069   0.670   3.466  1.7224  0.4124  0.1237
 3489SOL     OW11151   7.576   5.749   5.942 -0.4040 -0.3043  0.1274
 3489SOL    HW111152   7.667   5.745   5.973 -1.0083 -1.2893  1.9468
 3489SOL    HW211153   7.583   5.764   5.848  1.6380 -0.2398  0.2477
 3490SOL     OW11154   7.449   3.774   1.172 -1.0564 -0.4534  0.1313
 3490SOL    HW111155   7.473   3.723   1.094 -1.0013 -0.4790  0.1644
 3490SOL    HW211156   7.531   3.817   1.198 -1.1951 -0.0243 -0.1353
 3491SOL     OW11157   4.172   2.467   0.602  0.2475 -0.0373  0.1141
 3491SOL    HW111158   4.243   2.403   0.599 -1.1281 -1.6254  0.1306
 3491SOL    HW211159   4.105   2.431   0.544 -1.0159  0.8235  0.9933
 3492SOL     OW11160   3.299   3.401   5.670  0.1104  0.2284 -1.2814
 3492SOL    HW111161   3.322   3.309   5.674  0.6341  0.3787 -0.6870
 3492SOL    HW211162   3.374   3.446   5.710 -0.1023  0.9151 -1.6315
 3493SOL     OW11163   4.801   0.311   4.047  0.2940  0.5211 -0.3699
 3493SOL    HW111164   4.785   0.230   3.999 -1.6393  0.5458  0.1577
 3493SOL    HW211165   4.769   0.294   4.135  0.2088  1.7158 -0.1522
 3494SOL     OW11166   4.177   2.553   6.711  0.3613  0.1539  0.0539
 3494SOL    HW111167   4.165   2.503   6.630 -0.9997 -1.2988  1.0909
 3494SOL    HW211168   4.106   2.617   6.710 -0.9239 -1.1962  1.0016
 3495SOL     OW11169   4.363   0.162   5.649 -0.1179 -0.4759  0.2030
 3495SOL    HW111170   4.449   0.197   5.624 -0.0871 -0.4026  0.4079
 3495SOL    HW211171   4.375   0.134   5.740 -0.1222 -1.0903  0.0141
 3496SOL     OW11172   5.189   0.661   5.790 -0.1099 -0.0497 -0.1513
 3496SOL    HW111173   5.209   0.755   5.792 -2.8757  0.6575 -1.4823
 3496SOL    HW211174   5.126   0.651   5.719  1.8517 -3.3587 -1.6793
 3497SOL     OW11175   5.372   6.925   6.760  0.1547 -0.3195  0.2727
 3497SOL    HW111176   5.302   6.927   6.695  0.2976  2.2089  0.0881
 3497SOL    HW211177   5.436   6.863   6.725 -1.4445 -1.8076 -0.1111
 3498SOL     OW11178   5.321   0.325   5.066  0.6091  0.2404  0.2651
 3498SOL    HW111179   5.253   0.271   5.106  1.6062 -1.3257 -0.0793
 3498SOL    HW211180   5.287   0.344   4.978 -0.3891  1.4486  0.8773
 3499SOL     OW11181   3.337   0.167   3.664  0.1893  0.1598 -0.3400
 3499SOL    HW111182   3.357   0.076   3.642  0.3334  0.1635 -0.2224
 3499SOL    HW211183   3.269   0.192   3.602 -0.4677 -0.2976  0.1853
 3500SOL     OW11184   0.646   6.536   4.908  0.3712  0.4130  0.1412
 3500SOL    HW111185   0.727   6.499   4.945  0.8203  0.8953 -0.3539
 3500SOL    HW211186   0.587   6.461   4.901  1.1806 -0.1748 -0.6050
 3501SOL     OW11187   1.950   7.446   1.945  0.3077 -0.1480  0.1942
 3501SOL    HW111188   1.923   7.448   1.854 -0.8203 -0.6761  0.4990
 3501SOL    HW211189   1.995   7.362   1.956  0.0889 -0.2621  0.2184
 3502SOL     OW11190   7.181   5.149   0.126  0.1980 -0.5899  0.3868
 3502SOL    HW111191   7.086   5.144   0.118  0.0325 -2.2725  2.4184
 3502SOL    HW211192   7.210   5.058   0.115  1.1125 -0.8055  3.5824
 3503SOL     OW11193   2.458   6.604   0.442  0.1480  0.1755 -0.1112
 3503SOL    HW111194   2.376   6.561   0.465 -0.3625  1.1978  0.0608
 3503SOL    HW211195   2.481   6.569   0.356  0.8470 -1.9492  0.8632
 3504SOL     OW11196   0.147   4.480   5.522  0.1613 -0.0510  0.1670
 3504SOL    HW111197   0.162   4.533   5.601  0.0303 -0.2185  0.3043
 3504SOL    HW211198   0.193   4.398   5.540  0.8862  0.2421 -0.2993
 3505SOL     OW11199   7.684   6.601   4.772 -0.5144 -0.2511 -0.7602
 3505SOL    HW111200   7.594   6.631   4.784 -0.7253 -1.0909 -0.1473
 3505SOL    HW211201   7.708   6.631   4.685 -1.4971 -0.2917 -1.0538
 3506SOL     OW11202   5.960   4.745   0.977 -0.1438  0.3044 -0.2154
 3506SOL    HW111203   5.978   4.679   1.044 -1.1032  0.3860  0.1429
 3506SOL    HW211204   5.910   4.813   1.022 -0.6644  0.4437 -0.9743
 3507SOL     OW11205   3.662   2.055   1.688  0.5019  0.6922 -0.4951
 3507SOL    HW111206   3.667   2.145   1.720 -0.6083  0.5992 -0.0058
 3507SOL    HW211207   3.730   2.009   1.737  1.0239  1.2429 -0.6942
 3508SOL     OW11208   1.825   2.735   4.156 -0.0954 -1.1232  0.3709
 3508SOL    HW111209   1.803   2.720   4.064 -1.7610  1.5723  0.2109
 3508SOL    HW211210   1.920   2.748   4.156 -0.2254  0.2657 -1.2629
 3509SOL     OW11211   2.643   3.158   1.796  0.5282 -0.0459  0.2898
 3509SOL    HW111212   2.688   3.170   1.713  1.0600 -1.4934  0.3394
 3509SOL    HW211213   2.579   3.229   1.800  0.8821  0.3676 -1.0874
 3510SOL     OW11214   0.441   2.757   1.628 -0.3746 -0.2845 -0.6295
 3510SOL    HW111215   0.364   2.754   1.571 -0.2620 -3.1481 -0.7810
 3510SOL    HW211216   0.407   2.733   1.714  0.2642 -1.3244 -0.6515
 3511SOL     OW11217   0.632   3.757   5.053  0.2826  1.1064 -0.2532
 3511SOL    HW111218   0.585   3.780   5.133  0.4370 -1.2166  0.5644
 3511SOL    HW211219   0.569   3.771   4.983 -1.1827 -0.5674  0.6801
 3512SOL     OW11220   0.660   5.406   4.610 -0.0519 -0.1374  0.6445
 3512SOL    HW111221   0.622   5.385   4.695  0.2526 -0.0604  0.8003
 3512SOL    HW211222   0.586   5.435   4.557 -0.8647 -3.3104 -0.1797
 3513SOL     OW11223   7.487   3.023   0.494  0.1503  0.1179 -0.0447
 3513SOL    HW111224   7.575   3.057   0.504  0.8145 -1.1955 -1.0526
 3513SOL    HW211225   7.431   3.085   0.540  1.4966  1.4702 -0.1750
 3514SOL     OW11226   5.795   6.591   1.208 -0.1731 -0.3289 -0.6411
 3514SOL    HW111227   5.871   6.624   1.160  1.1032  1.1590  2.2144
 3514SOL    HW211228   5.730   6.661   1.201  0.7640  0.8081  1.3854
 3515SOL     OW11229   0.335   7.029   0.187 -0.3390  0.3233  0.0406
 3515SOL    HW111230   0.427   7.008   0.169 -0.5588 -0.4407 -0.2393
 3515SOL    HW211231   0.286   6.961   0.141 -0.9979 -0.3008  1.6112
 3516SOL     OW11232   2.955   1.770   3.853 -0.6294  0.3838  0.2235
 3516SOL    HW111233   3.039   1.811   3.874  0.7672 -1.9048 -0.5430
 3516SOL    HW211234   2.927   1.730   3.936  0.3324 -0.9531 -0.0637
 3517SOL     OW11235   6.721   3.823   0.205 -0.6246 -0.0045 -0.0281
 3517SOL    HW111236   6.796   3.766   0.221 -0.2369  0.7542  0.9624
 3517SOL    HW211237   6.654   3.766   0.168 -0.6738 -1.3998  2.0502
 3518SOL     OW11238   0.460   4.288   2.157 -0.7055  0.0520  0.0982
 3518SOL    HW111239   0.424   4.200   2.161  2.8559 -1.5764  0.0629
 3518SOL    HW211240   0.483   4.309   2.247  0.7569 -0.1841 -0.1938
 3519SOL     OW11241   6.513   1.565   1.581 -0.5345  0.3335 -0.2713
 3519SOL    HW111242   6.520   1.547   1.675  0.6232 -1.5613 -0.6503
 3519SOL    HW211243   6.494   1.479   1.542 -0.2426  0.9393 -1.8256
 3520SOL     OW11244   0.153   4.326   7.399  0.1172  0.1887  0.1255
 3520SOL    HW111245   0.183   4.280   7.320  0.8877 -0.2536  0.6688
 3520SOL    HW211246   0.211   4.296   7.468  1.7194  3.1563  0.2234
 3521SOL     OW11247   3.384   4.389   5.569 -0.1941 -0.7554  0.2657
 3521SOL    HW111248   3.321   4.380   5.641 -0.0333  0.6245  0.6057
 3521SOL    HW211249   3.456   4.440   5.606 -1.1684  2.1155 -1.4441
 3522SOL     OW11250   2.092   2.860   1.100  0.1239  0.1059 -0.7382
 3522SOL    HW111251   2.147   2.790   1.065 -0.2055 -0.6472  0.2215
 3522SOL    HW211252   2.149   2.906   1.162  0.4889  1.0068 -1.7076
 3523SOL     OW11253   0.094   0.757   7.323  0.3429  0.7601  0.0793
 3523SOL    HW111254   0.060   0.681   7.276 -0.7476  1.0319  0.3932
 3523SOL    HW211255   0.052   0.832   7.281  1.3979  1.2034 -0.2181
 3524SOL     OW11256   4.664   3.014   1.957  0.4799 -0.0111  0.4772
 3524SOL    HW111257   4.685   2.995   1.865  2.0831  2.1709  0.3375
 3524SOL    HW211258   4.648   2.927   1.995 -1.9833 -0.9177 -2.1834
 3525SOL     OW11259   2.702   2.681   2.038  0.4140  0.1340  0.2497
 3525SOL    HW111260   2.761   2.632   2.095  1.3108 -0.0449 -0.7861
 3525SOL    HW211261   2.626   2.701   2.093  1.0774 -0.3424  1.3787
 3526SOL     OW11262   2.814   7.178   2.159  0.4307  0.7061 -0.3261
 3526SOL    HW111263   2.803   7.173   2.064  0.8308  0.3016 -0.3533
 3526SOL    HW211264   2.897   7.224   2.172 -0.8572  3.1171 -0.1282
 3527SOL     OW11265   5.262   1.830   5.166 -0.2095 -0.2139  0.0526
 3527SOL    HW111266   5.347   1.860   5.134  0.5189 -0.4070  1.6534
 3527SOL    HW211267   5.258   1.863   5.256 -1.7465 -0.3949  0.0725
 3528SOL     OW11268   6.553   2.186   1.753  0.1083  0.2515  0.6606
 3528SOL    HW111269   6.473   2.240   1.756  0.0460  0.2035  0.0095
 3528SOL    HW211270   6.540   2.129   1.677  0.8554  0.3920  0.4216
 3529SOL     OW11271   5.555   3.393   6.755  0.6585 -0.5667  0.0929
 3529SOL    HW111272   5.461   3.395   6.773  0.8062 -2.8348  1.4259
 3529SOL    HW211273   5.564   3.329   6.684  1.1403  0.3616 -0.7082
 3530SOL     OW11274   6.850   4.512   4.681  0.4603 -0.4077 -0.0446
 3530SOL    HW111275   6.878   4.474   4.598  1.4252 -2.2476  1.0423
 3530SOL    HW211276   6.759   4.485   4.690 -0.2594  1.4048 -1.3166
 3531SOL     OW11277   6.266   4.229   4.320 -0.0435  0.0577 -0.7348
 3531SOL    HW111278   6.284   4.271   4.236 -1.0493  0.9048 -0.5396
 3531SOL    HW211279   6.197   4.166   4.301  0.8487 -0.9217 -0.8456
 3532SOL     OW11280   5.466   4.170   6.687 -0.1148  0.3289  0.3467
 3532SOL    HW111281   5.442   4.112   6.614  0.8162  0.3995 -0.0315
 3532SOL    HW211282   5.428   4.255   6.664 -0.0106  0.2952  0.0520
 3533SOL     OW11283   1.366   5.507   5.607  0.2377 -0.0501  0.5545
 3533SOL    HW111284   1.289   5.457   5.583 -0.1315  1.6502 -2.2488
 3533SOL    HW211285   1.335   5.597   5.616  1.9306  0.7982 -1.3208
 3534SOL     OW11286   3.617   2.083   0.412  0.8141 -0.3992  0.7216
 3534SOL    HW111287   3.605   2.114   0.323 -0.9076  1.3230  1.4970
 3534SOL    HW211288   3.712   2.077   0.423  1.0902 -2.4480 -1.7430
 3535SOL     OW11289   3.785   3.975   5.437 -0.0924  0.4900  0.3290
 3535SOL    HW111290   3.833   4.040   5.385  0.8350  0.2495  0.8574
 3535SOL    HW211291   3.734   3.926   5.372 -0.5776  1.5454 -0.1062
 3536SOL     OW11292   1.946   7.577   5.058 -0.1157  0.2084 -0.2924
 3536SOL    HW111293   1.953   7.661   5.013  0.8549  0.5474  0.4362
 3536SOL    HW211294   2.022   7.527   5.029  0.8041  0.6175  1.2750
 3537SOL     OW11295   0.388   5.591   6.588  0.5358  0.1399 -0.0672
 3537SOL    HW111296   0.374   5.651   6.515 -0.0937 -0.4482 -0.4406
 3537SOL    HW211297   0.301   5.557   6.609  0.8505 -0.4763  0.2812
 3538SOL     OW11298   5.453   5.779   7.154 -0.2902 -0.6022  0.1006
 3538SOL    HW111299   5.410   5.858   7.185 -1.7871 -0.9512 -0.9473
 3538SOL    HW211300   5.518   5.810   7.090  2.0313  0.0232  2.5553
 3539SOL     OW11301   4.753   0.574   5.135 -0.0795 -0.4502  0.7865
 3539SOL    HW111302   4.811   0.573   5.211 -0.6901  1.5624  1.3329
 3539SOL    HW211303   4.686   0.639   5.156  0.5567  1.2835 -2.0689
 3540SOL     OW11304   4.168   2.562   2.453  0.0522 -0.0307 -0.0695
 3540SOL    HW111305   4.143   2.535   2.364 -0.2657  1.4715 -0.4659
 3540SOL    HW211306   4.252   2.606   2.442  0.2194 -0.2109  0.4463
 3541SOL     OW11307   6.080   3.712   4.255  0.3343 -0.0094 -0.0245
 3541SOL    HW111308   6.082   3.803   4.286  0.4750 -0.4721  1.4237
 3541SOL    HW211309   6.127   3.663   4.323  0.2611 -1.1680 -0.7859
 3542SOL     OW11310   3.794   4.785   3.545  0.8013  0.1028  0.3714
 3542SOL    HW111311   3.805   4.767   3.452 -0.6456  0.8178  0.0425
 3542SOL    HW211312   3.807   4.879   3.554 -0.8828  0.3343  0.5853
 3543SOL     OW11313   3.252   6.766   6.509  0.4511 -0.6655 -0.0460
 3543SOL    HW111314   3.226   6.680   6.475 -0.9065 -0.2313 -0.1877
 3543SOL    HW211315   3.347   6.762   6.516  0.6273 -1.4005 -2.1689
 3544SOL     OW11316   4.023   7.699   7.244 -0.0109  0.9500 -0.0486
 3544SOL    HW111317   4.090   7.664   7.303  0.4106  0.8361 -0.5821
 3544SOL    HW211318   4.072   7.723   7.165 -0.7810 -0.3078 -0.9380
 3545SOL     OW11319   7.584   6.953   0.895  0.1650  0.0602  0.5844
 3545SOL    HW111320   7.514   6.918   0.840  0.0843  1.5661 -0.3301
 3545SOL    HW211321   7.635   7.008   0.836  0.4450  1.2229  1.8669
 3546SOL     OW11322   0.682   1.553   6.133  0.2499  0.3173 -0.2323
 3546SOL    HW111323   0.694   1.601   6.050  0.6275  2.1852  0.8394
 3546SOL    HW211324   0.589   1.562   6.153 -0.0375 -0.9683 -0.9050
 3547SOL     OW11325   2.090   1.138   3.111  0.0144  0.0132  0.0826
 3547SOL    HW111326   2.077   1.092   3.028 -3.1955  2.2526 -0.8330
 3547SOL    HW211327   2.121   1.070   3.171  0.6915 -2.0800 -2.4376
 3548SOL     OW11328   4.068   4.710   4.213  0.0648 -0.3714 -0.2244
 3548SOL    HW111329   4.114   4.772   4.156 -3.3504  0.4028 -2.4769
 3548SOL    HW211330   4.041   4.639   4.154 -2.8403  0.0243  0.4642
 3549SOL     OW11331   1.036   1.042   2.991  0.3667 -0.1577 -0.2777
 3549SOL    HW111332   1.004   1.078   3.074 -1.1551 -2.7598  0.3974
 3549SOL    HW211333   0.976   1.076   2.925 -1.3614 -1.6560  0.4193
 3550SOL     OW11334   4.769   0.369   3.083 -0.7199  0.3017  0.6290
 3550SOL    HW111335   4.716   0.448   3.093 -1.1315  0.1122  0.0056
 3550SOL    HW211336   4.810   0.377   2.997 -0.4871  0.0018  0.7079
 3551SOL     OW11337   2.539   1.238   2.759  0.7096  0.6613  0.7644
 3551SOL    HW111338   2.482   1.163   2.738  1.2999  0.7318 -1.3375
 3551SOL    HW211339   2.487   1.291   2.820 -0.5785 -0.3852  0.6264
 3552SOL     OW11340   2.974   5.836   1.402 -0.0431  0.6812 -0.0972
 3552SOL    HW111341   3.015   5.808   1.320 -0.0154 -1.1484  0.4954
 3552SOL    HW211342   3.022   5.916   1.427  0.5067  0.7813 -1.4122
 3553SOL     OW11343   0.912   3.438   2.359  0.1619  0.0912 -0.4963
 3553SOL    HW111344   0.994   3.480   2.385  0.2134 -1.0580  1.4238
 3553SOL    HW211345   0.844   3.499   2.389  0.2260 -1.1606  2.5195
 3554SOL     OW11346   6.102   3.469   4.729 -0.2709  0.2292  0.4825
 3554SOL    HW111347   6.014   3.505   4.725  0.2219  1.6949  1.7948
 3554SOL    HW211348   6.105   3.420   4.811  0.6990  1.9975  1.5962
 3555SOL     OW11349   0.118   1.998   3.357 -0.4208  0.7414  0.1285
 3555SOL    HW111350   0.157   1.918   3.323  0.5368  1.4129 -0.4036
 3555SOL    HW211351   0.078   1.972   3.440  0.2919 -0.1848  0.1949
 3556SOL     OW11352   6.332   5.535   0.615 -0.7727  0.0748 -0.0996
 3556SOL    HW111353   6.301   5.562   0.529 -0.1843 -0.1762 -0.3947
 3556SOL    HW211354   6.397   5.466   0.597 -1.4521 -0.7751  0.5834
 3557SOL     OW11355   0.732   7.720   6.592  0.6860 -0.3952 -0.0646
 3557SOL    HW111356   0.756   7.709   6.684  0.4215 -0.5184 -0.0106
 3557SOL    HW211357   0.645   7.760   6.595  0.4128 -0.9778 -0.2622
 3558SOL     OW11358   2.629   6.665   1.816  0.5760  0.2857  0.6269
 3558SOL    HW111359   2.542   6.660   1.857 -0.9056 -1.9877 -2.3644
 3558SOL    HW211360   2.689   6.635   1.884 -1.6035 -2.4250  1.5629
 3559SOL     OW11361   7.441   3.424   5.667 -0.2587 -0.0645  0.1473
 3559SOL    HW111362   7.515   3.382   5.624 -1.5624 -0.9354 -1.3600
 3559SOL    HW211363   7.415   3.495   5.607 -0.5172  0.3665  0.7575
 3560SOL     OW11364   0.995   7.480   7.455 -0.2220 -0.4187  0.0266
 3560SOL    HW111365   0.974   7.550   7.516 -0.6523 -1.1461  0.7272
 3560SOL    HW211366   1.032   7.411   7.510  1.0580 -0.4105 -0.7652
 3561SOL     OW11367   2.017   6.433   2.266  0.7736  0.3725  0.0511
 3561SOL    HW111368   2.016   6.518   2.311 -1.3382 -0.3583  1.5909
 3561SOL    HW211369   2.038   6.370   2.335 -0.9333 -0.6237 -0.2766
 3562SOL     OW11370   3.457   0.700   1.766 -0.7376 -0.5542 -0.7253
 3562SOL    HW111371   3.404   0.702   1.846 -1.4278 -1.1748 -1.1558
 3562SOL    HW211372   3.420   0.769   1.711 -0.1790 -0.0397 -0.4699
 3563SOL     OW11373   1.323   4.265   5.084 -0.3971  0.1169  0.0218
 3563SOL    HW111374   1.255   4.280   5.019 -2.1526  0.5012  1.8541
 3563SOL    HW211375   1.359   4.352   5.102  0.6916 -0.0934 -0.9946
 3564SOL     OW11376   2.918   2.144   6.880 -0.2847 -0.6399  0.3886
 3564SOL    HW111377   2.896   2.221   6.827  1.8192 -0.8688 -0.9403
 3564SOL    HW211378   2.939   2.179   6.966 -0.7479  0.1164  0.2018
 3565SOL     OW11379   4.757   2.574   3.550  0.3363  0.6463  0.3674
 3565SOL    HW111380   4.742   2.543   3.460  1.9633 -0.4259  0.4252
 3565SOL    HW211381   4.806   2.503   3.592 -0.1197  1.2633  2.0279
 3566SOL     OW11382   5.674   3.248   4.062  0.4429  0.0925 -0.3614
 3566SOL    HW111383   5.584   3.226   4.039  0.1184  0.1321  0.8185
 3566SOL    HW211384   5.678   3.239   4.157  1.7090  0.0157 -0.4019
 3567SOL     OW11385   3.292   1.277   1.266  0.3690 -0.3223 -0.1630
 3567SOL    HW111386   3.275   1.188   1.294 -0.7472  0.3067  1.2492
 3567SOL    HW211387   3.261   1.280   1.175  0.1731 -1.2900 -0.1331
 3568SOL     OW11388   0.922   0.438   6.392  0.2498  0.0799 -0.5378
 3568SOL    HW111389   0.988   0.435   6.461 -1.8113 -0.1369  1.5810
 3568SOL    HW211390   0.853   0.495   6.427  0.7106  3.2104 -4.1036
 3569SOL     OW11391   0.437   5.114   0.661 -0.5592 -0.0760  0.1525
 3569SOL    HW111392   0.429   5.179   0.591  0.4026 -0.8441 -0.7012
 3569SOL    HW211393   0.497   5.154   0.724  0.0803 -0.1594 -0.3988
 3570SOL     OW11394   0.024   1.001   5.981  0.4246 -0.3563  0.2543
 3570SOL    HW111395   0.004   0.911   6.007 -1.1430 -0.6863 -1.8200
 3570SOL    HW211396  -0.040   1.054   6.027  0.6663 -0.4045  0.6534
 3571SOL     OW11397   5.809   7.290   1.810  0.2597 -0.1848  0.7150
 3571SOL    HW111398   5.844   7.202   1.828 -1.1810 -1.2889 -1.3998
 3571SOL    HW211399   5.878   7.349   1.839  1.4679 -2.0214  1.8494
 3572SOL     OW11400   2.380   2.857   5.236  0.2554  0.0492 -0.4983
 3572SOL    HW111401   2.374   2.773   5.190  2.3338 -0.7428  0.5800
 3572SOL    HW211402   2.434   2.839   5.313 -0.9138  1.9374  0.8651
 3573SOL     OW11403   0.179   3.818   3.087 -0.2236 -0.2632 -0.2435
 3573SOL    HW111404   0.171   3.854   2.998 -2.1079  0.7362  0.2610
 3573SOL    HW211405   0.272   3.821   3.106  0.0927  0.6505 -1.7380
 3574SOL     OW11406   1.603   5.538   3.881 -0.7480 -0.4247 -0.2863
 3574SOL    HW111407   1.665   5.562   3.949 -0.6057 -1.4183 -0.0585
 3574SOL    HW211408   1.650   5.554   3.799 -0.3728 -0.7018 -0.1256
 3575SOL     OW11409   0.061   0.701   2.769  0.3421 -0.2051  0.1331
 3575SOL    HW111410   0.094   0.748   2.692 -0.3234  0.0768  0.0185
 3575SOL    HW211411   0.107   0.617   2.767  2.1759  0.7239  0.8008
 3576SOL     OW11412   1.878   3.657   6.839 -0.6817 -0.4848  0.0270
 3576SOL    HW111413   1.911   3.728   6.785 -0.1901 -1.3341 -0.8123
 3576SOL    HW211414   1.952   3.630   6.893 -0.1785 -1.9022 -1.3328
 3577SOL     OW11415   6.621   4.288   2.346 -0.2667 -0.1866  0.3051
 3577SOL    HW111416   6.544   4.308   2.398  0.7319  0.7444  1.5018
 3577SOL    HW211417   6.620   4.193   2.336 -2.4106 -0.0873 -1.1226
 3578SOL     OW11418   5.458   3.312   4.708  0.2517  0.3116 -0.0455
 3578SOL    HW111419   5.378   3.323   4.759  0.4539  0.6662  0.1982
 3578SOL    HW211420   5.444   3.364   4.629 -0.3132 -0.7292 -0.6595
 3579SOL     OW11421   4.831   0.722   3.023 -0.5397  0.6904  0.9885
 3579SOL    HW111422   4.753   0.667   3.036  0.2292 -0.0526  2.9371
 3579SOL    HW211423   4.874   0.722   3.109  1.9182  0.6087 -0.1719
 3580SOL     OW11424   1.129   0.101   7.147 -0.6623 -0.1400  0.2487
 3580SOL    HW111425   1.163   0.162   7.082  0.6330 -0.7549  0.3143
 3580SOL    HW211426   1.055   0.147   7.187 -0.0274  1.1701 -0.0470
 3581SOL     OW11427   2.093   7.163   1.930 -0.8130 -0.4766 -0.2728
 3581SOL    HW111428   2.143   7.176   2.011 -1.4706  2.1714 -0.2186
 3581SOL    HW211429   2.009   7.128   1.960 -0.4693 -1.0612  0.0235
 3582SOL     OW11430   4.952   6.993   5.751 -0.0171  0.3788  0.6001
 3582SOL    HW111431   4.872   6.952   5.717 -1.0019  1.4024  1.5643
 3582SOL    HW211432   4.986   7.044   5.677  1.2751 -2.1164 -0.6414
 3583SOL     OW11433   2.708   4.890   5.468  0.3385  0.5263 -0.3051
 3583SOL    HW111434   2.647   4.944   5.517 -0.2824  0.7230 -1.2842
 3583SOL    HW211435   2.779   4.950   5.443  0.9169  0.3193  0.7415
 3584SOL     OW11436   5.387   2.069   2.221 -0.6584 -0.0207 -0.7795
 3584SOL    HW111437   5.304   2.104   2.253 -0.1990  0.4985 -0.1335
 3584SOL    HW211438   5.453   2.131   2.251 -0.1770  0.4506 -2.6659
 3585SOL     OW11439   2.632   6.159   6.468 -0.0043  0.4969  0.3870
 3585SOL    HW111440   2.704   6.124   6.522  0.4022  0.9210  0.1257
 3585SOL    HW211441   2.665   6.153   6.378 -0.5195  0.1747  0.2171
 3586SOL     OW11442   5.441   0.391   0.547  0.4706  0.3072  0.0427
 3586SOL    HW111443   5.518   0.340   0.526  0.3588  0.1520  0.0106
 3586SOL    HW211444   5.368   0.329   0.543  0.4587  0.2518  0.9912
 3587SOL     OW11445   0.795   0.541   2.720  0.0584 -0.7994  0.4058
 3587SOL    HW111446   0.738   0.614   2.744  1.0176 -0.4048  1.5387
 3587SOL    HW211447   0.759   0.510   2.636 -0.7350  0.5653  0.2079
 3588SOL     OW11448   2.967   4.450   5.958  0.3346  0.3842 -0.2051
 3588SOL    HW111449   2.885   4.452   6.006 -0.7427 -0.5642 -1.8920
 3588SOL    HW211450   3.015   4.375   5.993 -1.1642 -1.3417 -1.6107
 3589SOL     OW11451   4.281   5.015   7.063  0.2278 -0.3252  0.7319
 3589SOL    HW111452   4.291   5.032   7.157  1.8311  0.4859  0.4316
 3589SOL    HW211453   4.362   5.047   7.023  0.5430 -2.6323 -0.6779
 3590SOL     OW11454   6.491   6.861   4.606 -0.4486 -0.0578  0.0699
 3590SOL    HW111455   6.434   6.938   4.609 -0.3906  0.0315 -0.8427
 3590SOL    HW211456   6.511   6.843   4.698 -1.5851  0.1705  0.3749
 3591SOL     OW11457   6.879   4.525   1.495 -0.1488 -0.5954  0.1934
 3591SOL    HW111458   6.970   4.545   1.515 -0.2060 -1.2701  1.2111
 3591SOL    HW211459   6.844   4.605   1.456  0.7177 -0.1438  0.3313
 3592SOL     OW11460   1.279   3.369   6.988 -0.6249  0.3103 -0.2446
 3592SOL    HW111461   1.205   3.426   7.010 -1.3335  0.0891 -1.8853
 3592SOL    HW211462   1.312   3.404   6.906 -0.0665 -0.7018 -0.4600
 3593SOL     OW11463   2.956   6.162   7.277  0.2249 -0.0064 -0.0943
 3593SOL    HW111464   2.865   6.191   7.289 -0.3357 -1.6647 -0.0620
 3593SOL    HW211465   3.009   6.235   7.308 -1.0406  1.9453 -2.2348
 3594SOL     OW11466   7.712   3.743   4.852 -0.6701 -0.0537 -0.1819
 3594SOL    HW111467   7.681   3.728   4.763 -1.8187  0.0842  0.1806
 3594SOL    HW211468   7.636   3.777   4.899 -0.0823 -0.1252  0.8614
 3595SOL     OW11469   1.364   2.028   6.408 -0.4804  0.0288  0.1020
 3595SOL    HW111470   1.456   2.001   6.417 -0.9895 -1.7398  0.3200
 3595SOL    HW211471   1.359   2.110   6.459  0.8277 -0.1769  0.6146
 3596SOL     OW11472   0.066   1.593   4.232  0.8903 -0.0167  0.0164
 3596SOL    HW111473   0.018   1.515   4.203  0.2223 -0.0375  1.1033
 3596SOL    HW211474   0.156   1.578   4.204  0.4355 -0.3555 -1.3512
 3597SOL     OW11475   4.000   4.745   0.922  0.5286 -0.0699 -0.2822
 3597SOL    HW111476   4.068   4.747   0.855 -1.0130 -1.2925 -1.9755
 3597SOL    HW211477   3.972   4.654   0.926  0.3185  0.0283  1.8252
 3598SOL     OW11478   2.655   0.399   7.663  0.4057 -0.5047  0.4079
 3598SOL    HW111479   2.725   0.387   7.727 -0.2093 -0.4366  1.0996
 3598SOL    HW211480   2.699   0.439   7.587  0.9162  0.5762  1.2438
 3599SOL     OW11481   6.924   1.825   2.725 -0.3462 -0.3621  0.1324
 3599SOL    HW111482   6.890   1.883   2.793 -1.5424  1.6039 -2.0029
 3599SOL    HW211483   7.018   1.840   2.727 -0.6091  1.6220 -0.2741
 3600SOL     OW11484   1.905   6.034   1.923 -0.5716  0.1485 -0.3670
 3600SOL    HW111485   1.977   6.023   1.985 -0.4749  0.5156 -0.4139
 3600SOL    HW211486   1.914   6.123   1.891 -0.0482 -0.3273 -1.6150
 3601SOL     OW11487   6.116   5.262   7.183  0.3728 -0.3807 -0.0608
 3601SOL    HW111488   6.036   5.231   7.226  0.6473 -0.9038  0.0775
 3601SOL    HW211489   6.165   5.182   7.163  0.5718 -0.1026 -0.7130
 3602SOL     OW11490   4.706   6.828   1.432 -0.9699 -0.6158 -0.1754
 3602SOL    HW111491   4.784   6.836   1.377 -1.2884 -0.3137 -0.5937
 3602SOL    HW211492   4.676   6.919   1.443 -1.8979 -0.8190 -0.9496
 3603SOL     OW11493   5.966   1.928   1.434  0.3326  0.4854 -0.3198
 3603SOL    HW111494   6.009   1.961   1.356 -0.1531 -0.9081 -1.2195
 3603SOL    HW211495   5.873   1.947   1.421  0.1299 -0.5583 -0.5505
 3604SOL     OW11496   7.651   3.467   0.412 -0.6888 -0.0223  0.4341
 3604SOL    HW111497   7.728   3.429   0.370  1.1962  2.9941  0.8709
 3604SOL    HW211498   7.671   3.464   0.505 -0.6098  1.5633  0.5056
 3605SOL     OW11499   6.287   5.986   7.090 -0.0199  0.3249  0.6058
 3605SOL    HW111500   6.350   5.988   7.017  0.4430  1.4851  0.9994
 3605SOL    HW211501   6.235   5.908   7.075 -1.3769  1.6071 -2.1865
 3606SOL     OW11502   3.561   1.862   2.543  0.5059  0.2555 -0.3022
 3606SOL    HW111503   3.654   1.881   2.527  0.9907 -1.2860  0.4101
 3606SOL    HW211504   3.514   1.928   2.493  1.9870  1.8389  0.2946
 3607SOL     OW11505   2.313   1.229   3.827 -0.4086  0.3625  0.7823
 3607SOL    HW111506   2.319   1.170   3.751  0.6463 -0.0141  1.1439
 3607SOL    HW211507   2.221   1.257   3.828 -0.8605 -1.0275  0.4068
 3608SOL     OW11508   1.696   7.219   6.701  0.6414 -0.2439  0.9283
 3608SOL    HW111509   1.742   7.136   6.705  3.0895  1.0449  1.0829
 3608SOL    HW211510   1.764   7.285   6.690 -1.3004  1.6497 -1.0821
 3609SOL     OW11511   4.651   2.450   1.623 -0.2825  0.6419  0.1033
 3609SOL    HW111512   4.617   2.400   1.698 -1.8818 -0.8356 -1.5146
 3609SOL    HW211513   4.740   2.415   1.610 -0.8396 -0.7814 -0.0788
 3610SOL     OW11514   1.499   0.873   6.408  0.1300 -0.1644 -0.1769
 3610SOL    HW111515   1.465   0.821   6.481  0.4753 -0.7770 -0.4484
 3610SOL    HW211516   1.583   0.832   6.387  1.1304  1.4158  0.5759
 3611SOL     OW11517   2.003   2.833   5.807 -0.2918  0.1776 -0.1091
 3611SOL    HW111518   1.995   2.879   5.723 -2.0360  0.0205 -0.0725
 3611SOL    HW211519   2.050   2.893   5.863 -0.3858  0.8933 -0.7812
 3612SOL     OW11520   6.708   0.350   7.638 -0.7171  0.4341  0.1747
 3612SOL    HW111521   6.803   0.352   7.624 -0.7876  2.0229 -0.2292
 3612SOL    HW211522   6.683   0.261   7.612  0.5348  0.2632 -0.5534
 3613SOL     OW11523   0.207   6.501   4.359  0.1677 -0.3777  0.3980
 3613SOL    HW111524   0.163   6.548   4.288 -1.7946 -0.0918  1.7293
 3613SOL    HW211525   0.177   6.410   4.349 -0.9664 -0.1309  1.4741
 3614SOL     OW11526   2.554   1.601   2.743  0.0720 -0.4776  0.4195
 3614SOL    HW111527   2.632   1.593   2.797  0.7480 -0.8767 -0.5873
 3614SOL    HW211528   2.481   1.598   2.805  0.8520  0.3079  1.4118
 3615SOL     OW11529   7.340   4.483   3.290 -0.0033 -0.5062 -0.1138
 3615SOL    HW111530   7.333   4.505   3.197  0.4390  0.1453 -0.0016
 3615SOL    HW211531   7.262   4.521   3.330 -0.5526 -1.3965 -0.3227
 3616SOL     OW11532   4.939   0.881   6.246  0.4037 -0.1321 -0.2408
 3616SOL    HW111533   4.905   0.836   6.324 -0.1928 -1.5663 -1.3005
 3616SOL    HW211534   5.004   0.942   6.281  0.0147 -0.5994  1.4051
 3617SOL     OW11535   0.711   2.739   5.957  0.9849  0.4783  1.0690
 3617SOL    HW111536   0.709   2.677   6.031 -0.1229  2.7984  3.1358
 3617SOL    HW211537   0.641   2.801   5.977 -0.1513  0.5983 -2.6070
 3618SOL     OW11538   3.919   5.725   3.047  0.4832 -0.5528 -0.1866
 3618SOL    HW111539   3.838   5.681   3.072  0.0019  0.2291 -0.3342
 3618SOL    HW211540   3.907   5.746   2.954  1.3995 -1.5948 -0.5525
 3619SOL     OW11541   1.819   5.605   6.876  0.1998  0.1317  0.5077
 3619SOL    HW111542   1.783   5.583   6.790  0.0673 -0.5038  0.7229
 3619SOL    HW211543   1.908   5.634   6.858  0.5773 -1.1228  0.2580
 3620SOL     OW11544   4.629   5.552   1.443  0.4996  0.3896  0.2679
 3620SOL    HW111545   4.694   5.509   1.499 -0.0751  0.5245  1.0505
 3620SOL    HW211546   4.546   5.512   1.468  0.2261  0.5291 -0.4222
 3621SOL     OW11547   2.070   4.000   7.287 -0.2873  0.1232 -0.3452
 3621SOL    HW111548   1.984   4.004   7.327 -1.0708 -1.3778 -1.7374
 3621SOL    HW211549   2.125   4.059   7.339 -1.9223  0.4149  1.1048
 3622SOL     OW11550   5.253   1.943   7.426  0.0399  0.4643  0.4119
 3622SOL    HW111551   5.259   1.936   7.330  1.4884  0.7192  0.4599
 3622SOL    HW211552   5.306   1.870   7.458 -2.4054 -1.1210  1.0757
 3623SOL     OW11553   6.471   5.855   4.406  0.3056 -0.0382  0.3843
 3623SOL    HW111554   6.404   5.839   4.340  0.1731 -1.1721  0.7621
 3623SOL    HW211555   6.535   5.785   4.392  2.3224  1.9677 -1.0534
 3624SOL     OW11556   4.745   5.644   5.944 -0.2234 -0.3014 -1.0488
 3624SOL    HW111557   4.695   5.659   5.864 -0.8238  0.8688 -0.4841
 3624SOL    HW211558   4.709   5.707   6.007 -0.3801 -1.8093  0.4255
 3625SOL     OW11559   0.610   0.504   0.218 -0.1331 -0.2093 -0.0458
 3625SOL    HW111560   0.600   0.409   0.207 -0.2214 -0.1963 -0.0742
 3625SOL    HW211561   0.652   0.513   0.303 -2.1843 -0.1849  1.0328
 3626SOL     OW11562   1.659   2.648   6.942  0.3779  0.0355  0.0546
 3626SOL    HW111563   1.711   2.568   6.934 -0.7110 -0.6499 -0.4203
 3626SOL    HW211564   1.616   2.657   6.856 -2.5392 -1.0514  1.2760
 3627SOL     OW11565   6.823   2.995   0.771  0.3404  0.0016  0.8510
 3627SOL    HW111566   6.847   3.083   0.799 -1.2165  0.8321 -0.2554
 3627SOL    HW211567   6.741   2.977   0.818  0.4186 -0.6747  0.7285
 3628SOL     OW11568   7.671   5.229   3.322  0.1003  0.3121  0.3142
 3628SOL    HW111569   7.735   5.279   3.272  0.1164  1.1066  1.1093
 3628SOL    HW211570   7.681   5.139   3.290 -0.1037  0.8313 -1.3117
 3629SOL     OW11571   0.828   4.757   2.590  0.6659 -0.3191 -0.1149
 3629SOL    HW111572   0.782   4.731   2.510 -0.3204  0.1517  0.2967
 3629SOL    HW211573   0.760   4.791   2.647  1.3902 -0.5263  0.8850
 3630SOL     OW11574   4.199   5.703   4.030 -0.0315  0.7017 -0.0078
 3630SOL    HW111575   4.138   5.710   3.956 -2.3142  1.2707  1.8044
 3630SOL    HW211576   4.229   5.613   4.028 -1.4735  0.2017 -0.6124
 3631SOL     OW11577   3.752   4.548   2.490  0.0592 -0.7546 -0.2815
 3631SOL    HW111578   3.661   4.551   2.462  0.2507 -2.1180 -1.1537
 3631SOL    HW211579   3.762   4.461   2.529  1.1906 -0.9750 -1.0122
 3632SOL     OW11580   0.651   2.018   6.909 -0.3025  0.3558 -0.1404
 3632SOL    HW111581   0.707   2.091   6.881 -0.2555  1.2024  1.9664
 3632SOL    HW211582   0.708   1.942   6.906 -0.6529  0.0794 -3.4978
 3633SOL     OW11583   2.129   2.922   4.408  0.1805 -0.7708  0.1519
 3633SOL    HW111584   2.101   2.916   4.499 -0.6162  1.8321  0.1581
 3633SOL    HW211585   2.146   3.015   4.394 -0.6897 -0.9303 -2.6351
 3634SOL     OW11586   5.688   1.931   1.474 -0.3290 -0.7766  0.1567
 3634SOL    HW111587   5.670   1.844   1.438 -0.1217 -0.9685  0.5034
 3634SOL    HW211588   5.610   1.982   1.454 -0.3866 -0.9999 -0.1883
 3635SOL     OW11589   6.817   2.708   6.884  0.2293 -0.2767 -0.1550
 3635SOL    HW111590   6.779   2.637   6.833  1.2735  0.1382 -1.5665
 3635SOL    HW211591   6.887   2.744   6.829  0.8195  0.7843  1.1929
 3636SOL     OW11592   6.404   0.268   2.832 -0.2498 -0.0545 -0.2596
 3636SOL    HW111593   6.499   0.262   2.840 -0.4102 -1.8061  0.8219
 3636SOL    HW211594   6.384   0.221   2.751 -0.2991 -1.0243  0.3055
 3637SOL     OW11595   6.235   5.587   3.229  0.4569 -0.0066 -0.1381
 3637SOL    HW111596   6.324   5.576   3.262  0.7491 -1.8213 -1.3791
 3637SOL    HW211597   6.182   5.598   3.308  1.6709  0.2925  0.6658
 3638SOL     OW11598   2.867   7.483   5.008  0.0466  0.0022 -0.3500
 3638SOL    HW111599   2.798   7.538   5.045  1.8183  1.0754  1.6263
 3638SOL    HW211600   2.918   7.454   5.084  2.1885 -0.1557 -1.7505
 3639SOL     OW11601   0.774   3.495   5.482 -0.0943 -0.3868 -0.1722
 3639SOL    HW111602   0.691   3.540   5.497 -0.6000 -1.0264 -0.9638
 3639SOL    HW211603   0.750   3.418   5.430  0.8943 -0.9874  0.2364
 3640SOL     OW11604   4.143   2.654   4.480 -0.2311 -0.9775  0.0182
 3640SOL    HW111605   4.103   2.740   4.490  2.1725  0.3437 -0.9953
 3640SOL    HW211606   4.130   2.632   4.388  4.9865  1.6611 -1.7556
 3641SOL     OW11607   2.987   0.329   3.347  0.0801 -0.3073  0.3281
 3641SOL    HW111608   3.072   0.292   3.372 -1.0155 -2.7411  0.6635
 3641SOL    HW211609   2.949   0.360   3.430  0.0863 -0.4098  0.3692
 3642SOL     OW11610   1.414   2.748   3.045 -0.2674 -0.3723  0.6025
 3642SOL    HW111611   1.386   2.665   3.082 -3.1382  1.2804  2.5059
 3642SOL    HW211612   1.460   2.792   3.117  2.4006 -0.6922 -0.7653
 3643SOL     OW11613   3.635   2.723   2.719  0.3731 -0.1400 -0.2091
 3643SOL    HW111614   3.709   2.784   2.714  0.4081 -0.0747  0.7855
 3643SOL    HW211615   3.666   2.654   2.778  0.8209 -1.8404 -2.3172
 3644SOL     OW11616   3.336   3.081   0.703 -0.4459 -0.1740 -0.4468
 3644SOL    HW111617   3.294   3.051   0.784  0.9452  1.0536  0.7811
 3644SOL    HW211618   3.284   3.157   0.676  0.0259  0.3782  0.1854
 3645SOL     OW11619   3.237   6.260   4.866 -0.2582 -0.2787  0.0647
 3645SOL    HW111620   3.164   6.289   4.811 -1.4557 -3.9200 -0.5486
 3645SOL    HW211621   3.222   6.305   4.950 -1.9293  0.7502 -0.7199
 3646SOL     OW11622   5.020   0.067   6.385 -0.0547  0.1288 -0.1466
 3646SOL    HW111623   5.034   0.151   6.341  0.3692  0.1988  0.1119
 3646SOL    HW211624   4.927   0.066   6.407  0.1208  0.9350  0.6692
 3647SOL     OW11625   1.983   5.978   2.410  0.0017 -0.1618  0.0668
 3647SOL    HW111626   2.003   5.984   2.316  0.9795  0.5186  0.3162
 3647SOL    HW211627   2.040   6.041   2.452 -1.9490  1.1346  0.9236
 3648SOL     OW11628   4.858   2.355   0.729  0.7739  0.2955  0.5056
 3648SOL    HW111629   4.837   2.446   0.751  0.6901  0.7405 -1.2773
 3648SOL    HW211630   4.807   2.338   0.650 -0.5314 -1.8733  1.7156
 3649SOL     OW11631   2.420   4.621   4.001  0.0838  0.8431 -0.1563
 3649SOL    HW111632   2.414   4.527   4.020  0.4455  0.4027 -1.9881
 3649SOL    HW211633   2.435   4.662   4.086  0.1252 -0.7799  0.6574
 3650SOL     OW11634   3.570   6.387   2.197 -0.1216 -0.0272  0.2404
 3650SOL    HW111635   3.654   6.347   2.219 -0.8061 -1.6712  0.0326
 3650SOL    HW211636   3.504   6.329   2.235 -1.1841  1.4356  0.7511
 3651SOL     OW11637   1.884   2.554   2.845  0.6439 -0.1331  0.2516
 3651SOL    HW111638   1.923   2.478   2.801  0.6145  0.6560 -1.1840
 3651SOL    HW211639   1.956   2.591   2.896  1.6397  0.8367 -1.7410
 3652SOL     OW11640   1.379   7.705   2.632 -0.4830  0.3201 -0.4821
 3652SOL    HW111641   1.415   7.636   2.688 -0.9039  1.4054  1.2219
 3652SOL    HW211642   1.330   7.658   2.564  1.1765 -1.0811 -0.7692
 3653SOL     OW11643   6.867   5.434   3.509  0.7648 -0.4756  0.0029
 3653SOL    HW111644   6.816   5.366   3.553 -0.7001 -0.4908 -1.6250
 3653SOL    HW211645   6.956   5.399   3.508  0.7632 -0.7383  2.3131
 3654SOL     OW11646   3.826   7.679   2.171  0.0053 -0.1081  0.5770
 3654SOL    HW111647   3.868   7.761   2.144  0.8870 -0.4271  0.9398
 3654SOL    HW211648   3.882   7.645   2.240 -0.3923 -0.9874  0.4782
 3655SOL     OW11649   1.264   4.880   0.400  0.3559  0.6013  0.5821
 3655SOL    HW111650   1.252   4.945   0.332  1.8696 -0.7990 -1.1268
 3655SOL    HW211651   1.336   4.914   0.454 -0.2689  1.2954  1.0039
 3656SOL     OW11652   7.759   1.779   0.819 -0.0550 -0.1503  0.2374
 3656SOL    HW111653   7.724   1.784   0.730  1.2818 -2.8767 -0.5661
 3656SOL    HW211654   7.690   1.733   0.868 -0.4604  0.6458  0.4212
 3657SOL     OW11655   6.604   3.766   5.787 -0.4154  0.0336  0.0527
 3657SOL    HW111656   6.613   3.783   5.881 -0.0995  1.2927 -0.1941
 3657SOL    HW211657   6.669   3.822   5.746  0.7139 -1.8220 -0.8365
 3658SOL     OW11658   1.249   0.788   4.870 -0.0200  0.0842 -0.4478
 3658SOL    HW111659   1.334   0.816   4.835  0.5880 -0.4005  0.6095
 3658SOL    HW211660   1.265   0.772   4.963 -0.7789 -1.9757 -0.6239
 3659SOL     OW11661   2.642   4.400   7.240  0.4213  0.1401  0.0688
 3659SOL    HW111662   2.620   4.467   7.176 -0.7569  0.5446  0.8825
 3659SOL    HW211663   2.589   4.324   7.215  0.1899  0.1972  0.3868
 3660SOL     OW11664   4.044   1.951   4.484  0.1496 -0.1133 -0.3354
 3660SOL    HW111665   4.004   2.019   4.431  1.5465  0.8249 -0.2697
 3660SOL    HW211666   4.021   1.869   4.441  0.1602  0.5386 -1.6313
 3661SOL     OW11667   4.239   2.903   2.363  0.4548  0.2184 -0.0848
 3661SOL    HW111668   4.176   2.952   2.417  0.9102  0.1255  0.5522
 3661SOL    HW211669   4.230   2.941   2.276  1.0788  1.7423  0.4672
 3662SOL     OW11670   6.224   6.647   6.128 -0.1463  0.3503 -0.3920
 3662SOL    HW111671   6.244   6.560   6.163 -1.0673  0.9333  1.6929
 3662SOL    HW211672   6.255   6.644   6.037  0.3093 -1.9684 -0.2067
 3663SOL     OW11673   5.551   6.814   3.571 -0.1113  0.5430  0.5025
 3663SOL    HW111674   5.461   6.824   3.605 -0.2304  1.3852 -0.0350
 3663SOL    HW211675   5.607   6.827   3.648 -0.4627 -1.5708  1.1804
 3664SOL     OW11676   3.889   1.067   7.635 -0.0466  0.3058 -0.1746
 3664SOL    HW111677   3.837   1.136   7.595 -0.9479 -0.7677 -0.9378
 3664SOL    HW211678   3.941   1.031   7.563 -1.1046 -1.1279 -0.2753
 3665SOL     OW11679   3.480   0.877   4.602 -0.2226 -0.6017  0.1391
 3665SOL    HW111680   3.513   0.951   4.653 -0.3503 -1.0172  0.8349
 3665SOL    HW211681   3.529   0.802   4.634 -0.0655 -0.8193 -0.5920
 3666SOL     OW11682   0.844   2.570   4.550 -0.1083 -0.0471  0.5560
 3666SOL    HW111683   0.757   2.598   4.577 -0.0627 -0.8474  1.6000
 3666SOL    HW211684   0.904   2.630   4.595  0.0201 -2.0662  3.3519
 3667SOL     OW11685   2.490   4.125   0.387 -0.4657 -0.6496 -0.1023
 3667SOL    HW111686   2.541   4.193   0.344 -1.7644  0.4706  0.0755
 3667SOL    HW211687   2.552   4.084   0.449  0.5218 -0.1420 -0.7250
 3668SOL     OW11688   4.605   4.393   2.835 -0.0266  0.2607  0.0551
 3668SOL    HW111689   4.630   4.470   2.784  0.5869 -0.4826 -0.7746
 3668SOL    HW211690   4.603   4.321   2.772  0.5008 -0.6273  1.0206
 3669SOL     OW11691   1.423   7.639   0.298 -0.3272  0.1350  0.2393
 3669SOL    HW111692   1.454   7.665   0.211 -0.7380  1.0719  0.3645
 3669SOL    HW211693   1.370   7.561   0.282 -1.5141  1.0647 -0.5427
 3670SOL     OW11694   0.555   1.007   6.075 -0.9307 -0.3060  0.2668
 3670SOL    HW111695   0.598   0.936   6.026 -1.7767 -0.0505 -0.8803
 3670SOL    HW211696   0.522   0.964   6.154 -0.6863 -1.0084  0.0015
 3671SOL     OW11697   5.762   3.655   7.129  0.1286 -0.3455  0.0158
 3671SOL    HW111698   5.710   3.660   7.049  0.6770 -1.3920 -0.4348
 3671SOL    HW211699   5.698   3.646   7.199 -0.3391 -0.1225 -0.3789
 3672SOL     OW11700   3.553   2.014   6.746  0.2103 -0.1799 -0.6888
 3672SOL    HW111701   3.613   1.984   6.815  1.3128  1.7410 -0.7499
 3672SOL    HW211702   3.566   1.952   6.674  0.6562 -0.9305  0.0246
 3673SOL     OW11703   6.421   7.576   5.902 -0.4881 -0.1461  0.3472
 3673SOL    HW111704   6.329   7.582   5.928 -0.2395 -0.3072  1.3306
 3673SOL    HW211705   6.427   7.497   5.849 -0.9509 -0.0358  0.1327
 3674SOL     OW11706   7.186   3.118   0.313  0.1565  0.4497  0.0067
 3674SOL    HW111707   7.236   3.046   0.350 -1.0075 -1.3653 -1.7744
 3674SOL    HW211708   7.252   3.179   0.279  1.1626 -0.7596 -0.2573
 3675SOL     OW11709   0.895   6.785   7.492 -0.0058  0.0184  0.7029
 3675SOL    HW111710   0.858   6.831   7.567 -0.4979 -1.7733  1.6112
 3675SOL    HW211711   0.867   6.836   7.416 -1.5325  0.5601  1.6009
 3676SOL     OW11712   3.411   6.791   3.976  0.3223 -0.3667 -0.2974
 3676SOL    HW111713   3.403   6.872   4.027  0.2712 -0.6529  0.1632
 3676SOL    HW211714   3.492   6.802   3.927  0.2409  0.0258 -0.3501
 3677SOL     OW11715   0.048   1.214   3.435  0.1022 -0.4288 -0.2215
 3677SOL    HW111716   0.024   1.123   3.451  0.3596 -0.8600 -2.0832
 3677SOL    HW211717  -0.030   1.254   3.398  0.0968  0.0379  0.2697
 3678SOL     OW11718   0.684   1.310   3.201 -0.5755 -0.1550 -0.4501
 3678SOL    HW111719   0.779   1.303   3.209 -0.8251 -1.6057  2.7572
 3678SOL    HW211720   0.661   1.250   3.130  0.8472 -0.0524 -1.0295
 3679SOL     OW11721   5.341   1.658   0.832 -0.3686 -0.0116  0.0071
 3679SOL    HW111722   5.385   1.730   0.877  0.3673 -0.7985  0.5717
 3679SOL    HW211723   5.412   1.600   0.804 -0.9482 -0.5027 -0.4662
 3680SOL     OW11724   1.556   5.594   3.178  0.7208  0.1012 -0.8340
 3680SOL    HW111725   1.580   5.681   3.210 -0.2849  0.3014 -0.6023
 3680SOL    HW211726   1.571   5.599   3.084  1.0299  0.4037 -0.7717
 3681SOL     OW11727   4.198   6.481   0.776 -0.4334  0.1919  0.0345
 3681SOL    HW111728   4.275   6.426   0.789  0.0584  1.1518  1.4719
 3681SOL    HW211729   4.210   6.519   0.689  1.9196  2.0370  1.0276
 3682SOL     OW11730   5.107   3.648   1.990 -0.2628 -0.1431 -0.4686
 3682SOL    HW111731   5.038   3.613   2.046 -1.0932  2.1626  0.0329
 3682SOL    HW211732   5.061   3.688   1.917  0.7150 -1.0737 -1.6493
 3683SOL     OW11733   1.638   7.282   4.869  0.3955 -0.4163 -0.1561
 3683SOL    HW111734   1.721   7.254   4.830  1.2355  1.8322 -0.1527
 3683SOL    HW211735   1.663   7.321   4.952 -0.2287  2.7636 -1.3128
 3684SOL     OW11736   6.158   7.250   1.695 -0.0636 -0.4008 -0.4219
 3684SOL    HW111737   6.140   7.179   1.757  1.6433  0.9943  1.8641
 3684SOL    HW211738   6.142   7.212   1.609  0.4083 -3.4172  0.7033
 3685SOL     OW11739   4.967   1.195   5.067 -0.0115  0.4945 -0.2111
 3685SOL    HW111740   4.966   1.228   5.157  2.5030  1.6644 -0.5300
 3685SOL    HW211741   4.898   1.129   5.065 -1.0858  1.4206  2.1803
 3686SOL     OW11742   6.131   6.704   0.854 -0.3574  0.0671 -0.0521
 3686SOL    HW111743   6.173   6.658   0.782 -0.2505  0.2765 -0.1247
 3686SOL    HW211744   6.067   6.762   0.812 -0.0750  0.4195 -0.0011
 3687SOL     OW11745   5.534   5.153   5.271  0.4819  0.1827  0.5327
 3687SOL    HW111746   5.506   5.237   5.306 -1.3440  0.6992 -1.9405
 3687SOL    HW211747   5.478   5.089   5.316 -1.3059  0.7574 -0.7716
 3688SOL     OW11748   2.883   4.517   0.684 -0.4864  0.4654 -1.0705
 3688SOL    HW111749   2.955   4.486   0.629  1.0537  1.4548  0.3043
 3688SOL    HW211750   2.832   4.439   0.702  2.3670 -1.1387  0.9695
 3689SOL     OW11751   7.386   5.951   6.732  0.7372 -0.0506 -0.0748
 3689SOL    HW111752   7.395   5.900   6.812 -0.9710 -1.5478 -0.7820
 3689SOL    HW211753   7.427   5.898   6.664  1.8258  1.0296 -0.3046
 3690SOL     OW11754   6.300   5.415   5.678  0.2227 -0.2898 -0.4111
 3690SOL    HW111755   6.205   5.415   5.681  0.1074  1.1146 -2.1511
 3690SOL    HW211756   6.325   5.503   5.708  0.9993 -0.6632  0.0975
 3691SOL     OW11757   5.615   4.197   2.113 -0.1639 -0.2386  0.0682
 3691SOL    HW111758   5.531   4.239   2.093 -0.4182 -0.3162  0.9284
 3691SOL    HW211759   5.658   4.187   2.028  1.0793  4.1146 -0.0586
 3692SOL     OW11760   7.320   3.097   3.729 -0.4157 -0.2051  0.3653
 3692SOL    HW111761   7.378   3.060   3.795  0.0977 -0.6630 -0.3280
 3692SOL    HW211762   7.271   3.165   3.775  0.7012  0.2253  0.9549
 3693SOL     OW11763   1.222   3.962   4.570  0.0727  0.3684  0.2894
 3693SOL    HW111764   1.181   3.918   4.645  0.2034  0.1053  0.2098
 3693SOL    HW211765   1.294   3.904   4.545  1.3228  1.4752  1.2360
 3694SOL     OW11766   5.515   5.508   2.156 -0.4234  0.1715  0.0765
 3694SOL    HW111767   5.528   5.534   2.248 -1.4881 -0.2556  0.3605
 3694SOL    HW211768   5.597   5.465   2.132 -0.0024  0.5966  0.7220
 3695SOL     OW11769   1.628   3.124   6.175 -0.0196 -0.1560  0.0330
 3695SOL    HW111770   1.699   3.062   6.156 -0.7168 -0.9702 -0.0102
 3695SOL    HW211771   1.550   3.082   6.137 -0.1073  2.0080 -2.4252
 3696SOL     OW11772   6.685   0.584   2.194 -0.1864  0.1670 -0.4504
 3696SOL    HW111773   6.681   0.488   2.193  0.9734  0.0958  0.0422
 3696SOL    HW211774   6.775   0.605   2.168 -0.2196  1.0991  0.1263
 3697SOL     OW11775   0.852   1.879   7.296  0.3974 -1.0815 -0.5433
 3697SOL    HW111776   0.936   1.918   7.320  0.1004 -0.3768 -0.6225
 3697SOL    HW211777   0.822   1.835   7.376 -0.2855  0.7219  0.2406
 3698SOL     OW11778   6.677   7.017   7.201  0.8992  0.6870  0.3091
 3698SOL    HW111779   6.711   7.024   7.290 -1.1048  1.2499  1.0860
 3698SOL    HW211780   6.713   6.935   7.168 -0.3510 -0.8755  2.5789
 3699SOL     OW11781   5.783   3.931   0.771  0.0874 -0.7864 -0.7769
 3699SOL    HW111782   5.834   3.855   0.744 -0.2062 -1.4222  0.3754
 3699SOL    HW211783   5.730   3.954   0.695  1.7775 -0.3458 -1.8740
 3700SOL     OW11784   2.752   0.815   4.002 -0.4037  0.6529 -0.1466
 3700SOL    HW111785   2.762   0.900   3.958 -1.6899  1.0691  0.3363
 3700SOL    HW211786   2.742   0.837   4.095 -0.6236 -0.0340 -0.0007
 3701SOL     OW11787   5.878   1.475   4.879  0.1405  0.5023  0.0502
 3701SOL    HW111788   5.939   1.412   4.840 -0.5616 -0.4709  0.4779
 3701SOL    HW211789   5.928   1.516   4.950  0.0463 -0.9693  1.0263
 3702SOL     OW11790   4.815   5.659   7.748 -0.2385 -0.0542  0.4413
 3702SOL    HW111791   4.825   5.580   7.696 -3.0548 -0.4268  0.2939
 3702SOL    HW211792   4.848   5.635   7.835  2.0040 -0.2650 -0.4033
 3703SOL     OW11793   4.397   4.152   5.771  0.3292  0.0705  0.4186
 3703SOL    HW111794   4.349   4.234   5.760  0.3206  0.0268  0.1159
 3703SOL    HW211795   4.395   4.135   5.865 -0.6837 -0.1911  0.3587
 3704SOL     OW11796   5.141   7.493   2.835  0.1304  0.0787 -0.0842
 3704SOL    HW111797   5.060   7.544   2.837 -0.0222 -0.1775  0.7091
 3704SOL    HW211798   5.118   7.410   2.876  0.6228 -0.2593 -0.4828
 3705SOL     OW11799   1.967   4.360   4.166  0.5760 -0.3606 -0.3043
 3705SOL    HW111800   1.978   4.450   4.136  1.5327 -0.8309 -1.4282
 3705SOL    HW211801   1.896   4.324   4.111 -0.4632 -0.0421  0.7793
 3706SOL     OW11802   3.573   7.628   5.253  0.2720 -0.0521 -0.1560
 3706SOL    HW111803   3.563   7.540   5.215  1.7659  0.0525 -0.9145
 3706SOL    HW211804   3.586   7.613   5.346 -2.4491 -0.3974  0.2191
 3707SOL     OW11805   2.711   4.464   6.131 -0.2809  0.1983  0.3564
 3707SOL    HW111806   2.714   4.395   6.197  1.9751 -0.2837 -0.1681
 3707SOL    HW211807   2.667   4.423   6.056  1.1768 -0.7768 -0.0094
 3708SOL     OW11808   6.905   2.794   5.826 -0.3073 -0.1524  0.0571
 3708SOL    HW111809   6.821   2.836   5.842 -0.9502 -1.1666 -0.5563
 3708SOL    HW211810   6.922   2.808   5.733  0.1112 -0.1261  0.1350
 3709SOL     OW11811   7.225   7.769   6.573  0.0415  0.2088 -0.6492
 3709SOL    HW111812   7.182   7.813   6.646 -0.4468  0.6412 -1.1845
 3709SOL    HW211813   7.301   7.825   6.554 -0.5576  0.8305 -1.3039
 3710SOL     OW11814   6.587   7.523   1.077  0.1513  0.7276 -0.6068
 3710SOL    HW111815   6.569   7.429   1.079 -0.3845  0.7636 -2.3958
 3710SOL    HW211816   6.503   7.563   1.095  0.2623  0.8731 -0.4105
 3711SOL     OW11817   0.641   4.030   6.237  0.2772  0.4595  0.0605
 3711SOL    HW111818   0.578   4.102   6.235 -0.3566 -0.0797  0.2112
 3711SOL    HW211819   0.716   4.063   6.188 -1.2388  0.0586 -2.7052
 3712SOL     OW11820   1.721   7.171   0.377  0.3523 -0.1979  0.1674
 3712SOL    HW111821   1.658   7.103   0.398 -0.2948  0.6174  0.9873
 3712SOL    HW211822   1.793   7.157   0.439  0.2291 -0.1555  0.3216
 3713SOL     OW11823   1.795   0.175   3.107 -0.2332 -0.7211 -0.2480
 3713SOL    HW111824   1.890   0.176   3.104 -0.2028 -1.1668  0.5256
 3713SOL    HW211825   1.773   0.165   3.199 -1.0316 -0.6322 -0.4170
 3714SOL     OW11826   6.675   3.029   4.635 -0.3614  0.0631  0.0333
 3714SOL    HW111827   6.713   3.114   4.660 -0.8832  0.3645 -0.1893
 3714SOL    HW211828   6.616   3.007   4.706 -0.3178 -0.0579  0.0321
 3715SOL     OW11829   5.113   1.376   3.168  0.3266  0.5237 -0.0390
 3715SOL    HW111830   5.102   1.353   3.260  0.9236  0.3217 -0.0100
 3715SOL    HW211831   5.132   1.470   3.169 -0.4659  0.6865 -0.0237
 3716SOL     OW11832   1.962   6.820   0.066 -0.0363 -0.1153 -0.3527
 3716SOL    HW111833   2.027   6.750   0.060 -0.7049 -0.7833  0.0850
 3716SOL    HW211834   1.979   6.861   0.151 -0.2023 -0.3015 -0.2305
 3717SOL     OW11835   3.857   3.396   4.398 -0.1352  0.6504 -0.1312
 3717SOL    HW111836   3.830   3.462   4.463  1.6599 -0.2412  1.6465
 3717SOL    HW211837   3.802   3.320   4.416 -1.1217  1.1003 -1.1385
 3718SOL     OW11838   4.632   2.878   4.858 -0.1988 -0.1692  0.0953
 3718SOL    HW111839   4.558   2.935   4.875 -0.5707 -0.6906  0.2549
 3718SOL    HW211840   4.707   2.937   4.849 -0.4748  0.3060  0.8349
 3719SOL     OW11841   5.795   0.082   3.894 -0.4312 -0.0954  0.5600
 3719SOL    HW111842   5.868   0.112   3.948 -0.6287  0.0660  0.7408
 3719SOL    HW211843   5.801  -0.014   3.895 -0.7783 -0.1212  1.3619
 3720SOL     OW11844   0.640   6.595   3.513 -0.5280 -0.1517  0.5551
 3720SOL    HW111845   0.704   6.639   3.569 -0.4552  1.2498 -0.5697
 3720SOL    HW211846   0.566   6.656   3.508 -0.5041 -0.2046 -0.8840
 3721SOL     OW11847   0.828   4.943   3.343  0.0915  0.0790 -0.2161
 3721SOL    HW111848   0.845   4.966   3.434  0.5658 -1.4241  0.0939
 3721SOL    HW211849   0.865   5.017   3.293 -0.2782  0.9716  0.7837
 3722SOL     OW11850   3.890   7.675   0.306 -0.0858  0.1232 -0.3589
 3722SOL    HW111851   3.800   7.710   0.310 -0.4253 -0.8507  1.3296
 3722SOL    HW211852   3.941   7.736   0.360 -0.0046 -0.0776 -0.2096
 3723SOL     OW11853   5.433   6.888   1.500 -0.2092 -0.3761  0.2572
 3723SOL    HW111854   5.501   6.926   1.555 -0.7914  0.5913  0.3400
 3723SOL    HW211855   5.358   6.879   1.559 -1.3442  2.1141 -0.6648
 3724SOL     OW11856   7.684   4.737   7.398 -0.1198  0.0321  0.3944
 3724SOL    HW111857   7.751   4.679   7.362 -0.8285 -2.4185  2.6966
 3724SOL    HW211858   7.730   4.819   7.416  1.7454 -0.8755 -0.0390
 3725SOL     OW11859   2.493   6.950   4.301  0.0078 -0.6818 -0.4491
 3725SOL    HW111860   2.539   6.893   4.362  0.0063 -0.5268 -0.3033
 3725SOL    HW211861   2.400   6.933   4.318 -0.0313  0.5612  0.7458
 3726SOL     OW11862   2.000   5.792   6.458 -0.0212 -0.4532 -0.0856
 3726SOL    HW111863   2.009   5.736   6.381 -2.4046 -1.0764  0.0122
 3726SOL    HW211864   1.953   5.869   6.427  0.3055 -0.0334  0.4496
 3727SOL     OW11865   4.727   4.421   3.352  0.6174 -0.4031  0.1705
 3727SOL    HW111866   4.737   4.513   3.328  1.4600 -0.8118 -1.1602
 3727SOL    HW211867   4.791   4.375   3.297 -1.5840 -2.0860 -1.1299
 3728SOL     OW11868   0.425   0.828   6.234 -0.6222  0.6373 -0.8082
 3728SOL    HW111869   0.393   0.892   6.298  0.6963  1.8923 -1.3350
 3728SOL    HW211870   0.493   0.780   6.281 -1.5140 -0.3304 -0.4586
 3729SOL     OW11871   5.968   3.918   1.930 -0.5372 -0.2314  0.1097
 3729SOL    HW111872   6.038   3.921   1.996 -0.3236 -0.0961 -0.1191
 3729SOL    HW211873   5.962   3.826   1.905  2.3259  0.1831 -2.7698
 3730SOL     OW11874   5.941   7.128   5.613  0.6313 -0.4400  0.2649
 3730SOL    HW111875   5.849   7.101   5.613 -0.3268  2.4760 -0.2012
 3730SOL    HW211876   5.967   7.125   5.705 -0.3091 -0.2067  0.5514
 3731SOL     OW11877   4.666   0.578   3.196 -0.4536  0.1516 -0.0941
 3731SOL    HW111878   4.576   0.558   3.224 -0.0840  0.5337  1.4971
 3731SOL    HW211879   4.708   0.612   3.275  0.9122  0.6029 -0.9857
 3732SOL     OW11880   1.000   2.125   6.472 -0.1688  0.5975  0.5401
 3732SOL    HW111881   0.983   2.186   6.400 -2.0049  0.6640  0.9838
 3732SOL    HW211882   0.913   2.103   6.506  0.5920 -0.4018  1.9415
 3733SOL     OW11883   7.531   0.200   7.172  0.1186 -0.6662  0.4766
 3733SOL    HW111884   7.556   0.112   7.202 -0.5226 -0.7981  0.6468
 3733SOL    HW211885   7.471   0.183   7.099  0.4914 -0.3579  0.0921
 3734SOL     OW11886   6.859   0.976   0.221 -0.1867  0.1028 -0.6252
 3734SOL    HW111887   6.941   1.025   0.219  0.7263 -0.9160  3.2764
 3734SOL    HW211888   6.798   1.034   0.267 -0.5253 -0.5687 -0.2108
 3735SOL     OW11889   7.473   7.625   2.669 -0.2398  0.5031 -0.0322
 3735SOL    HW111890   7.552   7.676   2.692  0.2628  0.4316 -1.4941
 3735SOL    HW211891   7.500   7.534   2.679 -0.1172  0.4788 -0.5341
 3736SOL     OW11892   4.912   2.885   4.484  0.2339 -0.1238  0.1870
 3736SOL    HW111893   4.836   2.847   4.441  1.5136 -1.9172 -0.6150
 3736SOL    HW211894   4.978   2.816   4.481  1.3032  0.6970  2.5370
 3737SOL     OW11895   3.400   6.451   2.730 -0.3227 -0.1186 -0.2156
 3737SOL    HW111896   3.380   6.441   2.637  0.4153 -1.5817 -0.2442
 3737SOL    HW211897   3.377   6.366   2.768  1.2156 -0.2121  0.5730
 3738SOL     OW11898   1.393   2.466   3.067  0.2015 -0.1255  0.0424
 3738SOL    HW111899   1.381   2.377   3.033 -0.5377  0.4678 -1.3389
 3738SOL    HW211900   1.462   2.503   3.013  0.1530  0.3164  0.2776
 3739SOL     OW11901   6.655   4.859   7.744 -0.1586  0.0312 -0.2462
 3739SOL    HW111902   6.579   4.829   7.794 -1.1596  1.1013 -1.0579
 3739SOL    HW211903   6.728   4.808   7.778 -1.1903 -0.8387  0.7523
 3740SOL     OW11904   1.204   1.006   7.067  0.6914  0.1577 -0.3602
 3740SOL    HW111905   1.148   0.969   7.135 -0.9603  1.2258 -1.0846
 3740SOL    HW211906   1.293   0.995   7.100 -0.0582  0.5261  1.8943
 3741SOL     OW11907   7.564   2.684   7.033 -0.7810  0.3482  0.0947
 3741SOL    HW111908   7.622   2.730   7.094 -0.4492  0.4724 -0.3057
 3741SOL    HW211909   7.624   2.638   6.975 -1.0418  1.5795 -1.1905
 3742SOL     OW11910   6.822   5.896   5.617 -0.3206  0.3808 -0.0642
 3742SOL    HW111911   6.908   5.862   5.593 -1.5974 -3.1719 -0.1023
 3742SOL    HW211912   6.794   5.946   5.540  0.7887 -0.2578 -0.9129
 3743SOL     OW11913   3.657   5.766   4.679 -0.0709  0.6479  0.0684
 3743SOL    HW111914   3.635   5.798   4.767 -1.6385  2.8679 -1.0493
 3743SOL    HW211915   3.583   5.793   4.624  0.1537 -2.0044 -1.7041
 3744SOL     OW11916   7.420   0.677   2.375  0.7960 -0.2739  0.2899
 3744SOL    HW111917   7.397   0.770   2.365 -3.1922 -1.1419 -0.2235
 3744SOL    HW211918   7.463   0.673   2.460  1.0819  2.0457  0.3305
 3745SOL     OW11919   4.084   3.082   2.518  0.4574  0.7016  0.2054
 3745SOL    HW111920   4.016   3.150   2.511  0.8070  0.9383 -1.2407
 3745SOL    HW211921   4.037   3.004   2.549 -0.1442  1.3150  0.8645
 3746SOL     OW11922   2.596   0.512   1.243 -0.5865  0.0427 -0.3211
 3746SOL    HW111923   2.511   0.489   1.279  0.2730 -0.9285  1.2171
 3746SOL    HW211924   2.601   0.607   1.253 -1.1810  0.0175  0.3334
 3747SOL     OW11925   0.248   5.842   3.898  0.1642 -0.1627 -0.1562
 3747SOL    HW111926   0.266   5.748   3.902  0.4976 -0.1129 -0.4895
 3747SOL    HW211927   0.249   5.863   3.805  0.9074  0.3268 -0.0439
 3748SOL     OW11928   3.095   5.883   0.999  0.1345 -0.6504 -0.3245
 3748SOL    HW111929   3.166   5.865   0.937  0.6185  0.0474  0.0065
 3748SOL    HW211930   3.074   5.798   1.037  1.7373 -0.7114  0.5449
 3749SOL     OW11931   2.824   1.142   4.445  0.2217  0.6177 -0.4221
 3749SOL    HW111932   2.782   1.129   4.530  0.6877 -1.0473 -0.4075
 3749SOL    HW211933   2.902   1.193   4.465  0.8716 -0.6248  0.3422
 3750SOL     OW11934   7.022   0.704   0.768  0.0472 -0.4153 -0.2317
 3750SOL    HW111935   7.115   0.699   0.748 -0.0597  0.8770 -1.1186
 3750SOL    HW211936   6.979   0.669   0.690 -0.2211 -2.4993  0.7660
 3751SOL     OW11937   2.389   4.343   4.020 -0.1725  0.3694  0.1213
 3751SOL    HW111938   2.350   4.315   4.102  0.4964  0.2446  0.4057
 3751SOL    HW211939   2.411   4.261   3.975 -2.0852  0.4078 -0.9591
 3752SOL     OW11940   3.373   2.308   4.892 -0.1608  0.0015  0.3859
 3752SOL    HW111941   3.432   2.383   4.880  0.1842 -0.3894 -0.4894
 3752SOL    HW211942   3.285   2.346   4.889 -0.0210  0.2846 -0.9584
 3753SOL     OW11943   1.430   3.714   5.894 -0.2004 -0.3220  0.1576
 3753SOL    HW111944   1.335   3.711   5.880  0.1265 -0.5158 -2.3492
 3753SOL    HW211945   1.466   3.740   5.810  2.1912 -3.4763  0.0481
 3754SOL     OW11946   0.873   1.482   6.848  0.3182  0.3521  0.4280
 3754SOL    HW111947   0.955   1.437   6.830 -0.5448 -2.5402  2.8163
 3754SOL    HW211948   0.822   1.472   6.767  1.6819  0.7579 -0.5123
 3755SOL     OW11949   3.790   3.652   6.071 -0.5380  0.1321  0.0254
 3755SOL    HW111950   3.821   3.637   5.982  0.5780  0.6722  0.3085
 3755SOL    HW211951   3.762   3.744   6.072 -0.9975 -0.0058  0.1095
 3756SOL     OW11952   2.229   0.325   5.451  0.6480 -0.4272  0.7798
 3756SOL    HW111953   2.255   0.315   5.360  0.3902 -0.3242  0.6941
 3756SOL    HW211954   2.150   0.272   5.459 -0.6344  1.3251  0.3686
 3757SOL     OW11955   3.206   3.846   2.598  0.7693 -0.5343  0.1833
 3757SOL    HW111956   3.288   3.834   2.644 -0.0213 -1.2220  1.4671
 3757SOL    HW211957   3.214   3.792   2.519  2.1987  0.7871 -0.6209
 3758SOL     OW11958   0.236   3.034   0.980 -0.6833 -0.6322 -0.4593
 3758SOL    HW111959   0.167   3.058   0.919  0.3686 -0.6205 -1.6963
 3758SOL    HW211960   0.258   2.944   0.956 -0.1688 -0.5822 -0.1809
 3759SOL     OW11961   6.153   4.613   6.063  0.3357  0.1192 -0.3252
 3759SOL    HW111962   6.159   4.539   6.004  3.2000  1.2539 -1.6581
 3759SOL    HW211963   6.178   4.578   6.149  2.0982 -0.4225 -1.0249
 3760SOL     OW11964   3.354   6.410   3.903 -0.0114 -0.3313 -0.2493
 3760SOL    HW111965   3.311   6.493   3.920  2.3212  0.9737 -0.3342
 3760SOL    HW211966   3.378   6.377   3.989  1.1440  0.2785 -0.3260
 3761SOL     OW11967   4.790   2.168   6.436 -0.0562 -0.6031 -0.2351
 3761SOL    HW111968   4.885   2.163   6.432 -0.0267  0.3980 -1.5489
 3761SOL    HW211969   4.764   2.196   6.348 -1.6312 -1.7332 -0.1640
 3762SOL     OW11970   1.820   6.288   6.279  0.0446  0.1717  0.1065
 3762SOL    HW111971   1.766   6.354   6.323  0.2662 -0.4751  1.3996
 3762SOL    HW211972   1.797   6.206   6.323  1.6285 -0.2151  0.2737
 3763SOL     OW11973   2.403   0.542   4.042 -0.0683 -0.8678 -0.0392
 3763SOL    HW111974   2.439   0.470   3.990  0.9754 -0.1897 -0.2768
 3763SOL    HW211975   2.431   0.522   4.132  0.5534 -0.5643 -0.1616
 3764SOL     OW11976   6.352   3.378   1.778 -0.8581 -0.8335 -0.1266
 3764SOL    HW111977   6.443   3.409   1.779 -0.7193 -1.2390  0.3202
 3764SOL    HW211978   6.314   3.415   1.857 -0.6029 -2.0286  0.5836
 3765SOL     OW11979   6.290   6.957   4.207 -0.7981  0.4972 -0.2054
 3765SOL    HW111980   6.229   6.975   4.278  1.2207  1.4301  1.4191
 3765SOL    HW211981   6.239   6.969   4.127 -2.6712  1.4190  1.0670
 3766SOL     OW11982   0.508   6.813   6.310 -0.1654 -0.9128 -0.1103
 3766SOL    HW111983   0.481   6.892   6.357 -0.1462 -0.4421 -0.8762
 3766SOL    HW211984   0.427   6.767   6.290 -0.1851 -1.0240  0.2093
 3767SOL     OW11985   2.234   5.562   1.972 -0.7053 -1.0184 -0.4488
 3767SOL    HW111986   2.187   5.592   1.894  0.5615  0.7859 -0.5969
 3767SOL    HW211987   2.205   5.622   2.041  0.9244 -0.1926 -0.4320
 3768SOL     OW11988   6.191   0.736   3.345 -0.3738 -0.0371  0.1314
 3768SOL    HW111989   6.171   0.705   3.257  0.3580  1.5700 -0.6405
 3768SOL    HW211990   6.134   0.811   3.359 -1.1588 -0.8229  1.4391
 3769SOL     OW11991   7.259   0.221   1.092  0.2859 -0.0901 -0.1545
 3769SOL    HW111992   7.203   0.145   1.079  0.5675 -0.3815  0.2677
 3769SOL    HW211993   7.230   0.285   1.027 -0.9876  0.0321  0.5154
 3770SOL     OW11994   5.584   7.714   3.671 -0.0048  0.2672  0.4035
 3770SOL    HW111995   5.579   7.661   3.592 -1.1365  1.5129 -0.3942
 3770SOL    HW211996   5.677   7.719   3.691  0.1150 -2.6112  0.9503
 3771SOL     OW11997   7.569   5.559   5.015 -0.1995  0.6276 -0.0106
 3771SOL    HW111998   7.615   5.517   4.943 -0.6134  1.3112 -0.6965
 3771SOL    HW211999   7.577   5.652   4.998 -2.3381  0.7757 -0.5189
 3772SOL     OW12000   3.395   0.827   4.098  0.0088  0.1107  0.0950
 3772SOL    HW112001   3.461   0.854   4.033  0.9102  0.2820  1.0501
 3772SOL    HW212002   3.318   0.806   4.046  0.1917  1.7658 -0.9252
 3773SOL     OW12003   5.221   7.352   1.271  0.6525  0.3731  0.0021
 3773SOL    HW112004   5.222   7.403   1.190 -0.1269 -0.6492 -0.6683
 3773SOL    HW212005   5.223   7.261   1.242  2.3002 -0.0076  1.1848
 3774SOL     OW12006   0.769   6.974   6.401 -0.1633 -0.3610  0.6165
 3774SOL    HW112007   0.764   6.879   6.395  1.1527 -0.3710 -0.8092
 3774SOL    HW212008   0.791   6.991   6.493  1.5784 -1.5659  0.4748
 3775SOL     OW12009   5.481   7.171   3.491  0.3070  0.6204  0.8563
 3775SOL    HW112010   5.464   7.145   3.582 -0.8142 -0.6248  0.3176
 3775SOL    HW212011   5.394   7.185   3.453  0.5849 -1.5007 -0.7395
 3776SOL     OW12012   4.178   2.452   6.439  0.0601 -0.0726 -0.1764
 3776SOL    HW112013   4.180   2.371   6.388  0.2272 -0.2986  0.1907
 3776SOL    HW212014   4.091   2.488   6.422 -0.3196 -0.7472  0.3126
 3777SOL     OW12015   0.692   3.621   6.864  0.7627  0.5660  0.3884
 3777SOL    HW112016   0.697   3.651   6.773 -1.1072  0.4000  0.1890
 3777SOL    HW212017   0.611   3.659   6.898  0.2544 -1.1794  1.2817
 3778SOL     OW12018   1.080   7.214   6.146  0.2149 -0.2498 -0.4288
 3778SOL    HW112019   1.172   7.229   6.168 -0.4772  1.1672  1.8920
 3778SOL    HW212020   1.034   7.289   6.184 -1.8226 -0.4162 -2.3740
 3779SOL     OW12021   0.392   4.795   5.509  0.0966 -0.0957 -0.5616
 3779SOL    HW112022   0.432   4.732   5.569  0.3771  0.0475 -0.5987
 3779SOL    HW212023   0.365   4.868   5.565 -1.0359 -0.6246 -0.3817
 3780SOL     OW12024   5.138   6.381   6.751 -0.4281 -0.6526 -0.1080
 3780SOL    HW112025   5.170   6.462   6.791  0.1015 -0.9949  0.1682
 3780SOL    HW212026   5.129   6.402   6.658  0.2431 -0.4378 -0.1245
 3781SOL     OW12027   2.642   3.739   7.570 -0.3191  0.2030  0.8521
 3781SOL    HW112028   2.690   3.675   7.516 -0.3678 -0.3322  1.4385
 3781SOL    HW212029   2.564   3.692   7.599 -1.3233  1.1246 -0.2388
 3782SOL     OW12030   4.223   3.474   6.672 -0.2377 -0.7630 -0.5745
 3782SOL    HW112031   4.183   3.444   6.590 -0.7154 -2.2862  0.1792
 3782SOL    HW212032   4.225   3.569   6.665 -2.0150 -0.7670 -1.5488
 3783SOL     OW12033   2.958   1.563   1.015 -0.4412  0.2709 -0.6978
 3783SOL    HW112034   3.024   1.618   1.058 -0.0751 -0.6462 -0.0545
 3783SOL    HW212035   2.926   1.505   1.084  0.7263 -1.7866 -1.7978
 3784SOL     OW12036   1.288   2.014   4.358  0.6726  0.3029  0.1483
 3784SOL    HW112037   1.327   1.964   4.430  0.8233 -1.9389 -1.3793
 3784SOL    HW212038   1.220   1.956   4.323  0.8661  1.1498 -1.7370
 3785SOL     OW12039   2.579   5.773   2.671  0.6112  0.0716 -0.7111
 3785SOL    HW112040   2.536   5.832   2.732 -1.5923 -0.1989 -1.8904
 3785SOL    HW212041   2.672   5.797   2.675  0.3067  1.1098  1.4985
 3786SOL     OW12042   2.376   0.749   5.281  0.3159  0.0442 -0.6135
 3786SOL    HW112043   2.387   0.693   5.358  2.6338 -1.0754 -1.6576
 3786SOL    HW212044   2.363   0.688   5.209 -1.1369  1.0515 -1.2579
 3787SOL     OW12045   4.583   5.043   6.544  0.1437  0.1788 -0.5029
 3787SOL    HW112046   4.666   4.998   6.562 -0.3579 -0.3939  0.4310
 3787SOL    HW212047   4.599   5.090   6.462  0.8670 -1.2479 -1.2230
 3788SOL     OW12048   0.152   1.942   2.280  0.1372  0.2470 -0.6457
 3788SOL    HW112049   0.193   1.868   2.235 -1.4096 -0.5716 -0.7843
 3788SOL    HW212050   0.215   1.966   2.349 -0.5395 -3.1722  1.3850
 3789SOL     OW12051   7.451   4.801   7.262  0.5196 -0.8685  0.0062
 3789SOL    HW112052   7.529   4.763   7.302  1.2404  0.5645 -0.0002
 3789SOL    HW212053   7.481   4.881   7.219 -1.0738  0.1485  0.6856
 3790SOL     OW12054   7.493   1.602   4.463  0.4692 -0.5765 -0.3536
 3790SOL    HW112055   7.533   1.613   4.550  1.1937  1.3075 -0.8728
 3790SOL    HW212056   7.515   1.682   4.417 -4.3102  0.8659 -0.6129
 3791SOL     OW12057   6.652   4.058   3.796  1.0183 -0.5559 -0.3263
 3791SOL    HW112058   6.588   4.118   3.758  1.1774 -0.1904 -0.0228
 3791SOL    HW212059   6.612   3.971   3.786  0.2879 -0.2916  0.2396
 3792SOL     OW12060   5.820   3.201   7.407 -0.3304 -0.2680 -0.0370
 3792SOL    HW112061   5.727   3.202   7.386 -0.9648 -1.4953  2.4117
 3792SOL    HW212062   5.824   3.202   7.503  2.2462  1.7656 -0.0304
 3793SOL     OW12063   5.613   6.985   6.452 -0.2831 -0.3439 -0.3778
 3793SOL    HW112064   5.547   7.053   6.442  0.6689  0.7215  0.2914
 3793SOL    HW212065   5.653   6.977   6.366 -1.8288 -1.6365 -1.0320
 3794SOL     OW12066   2.045   5.916   3.460 -0.5360 -0.1325 -0.2200
 3794SOL    HW112067   2.046   6.008   3.435 -2.3002 -0.5028 -1.8851
 3794SOL    HW212068   1.964   5.881   3.422 -0.2818 -2.2190  0.9605
 3795SOL     OW12069   2.312   0.351   2.646 -0.2140 -0.9979  0.1542
 3795SOL    HW112070   2.329   0.323   2.736 -1.7218  0.2066  0.8486
 3795SOL    HW212071   2.222   0.383   2.647 -0.1795 -0.7179 -1.7406
 3796SOL     OW12072   6.796   2.503   6.006 -0.2337 -0.3434  0.1380
 3796SOL    HW112073   6.797   2.511   5.910 -0.8933  1.0544  0.2279
 3796SOL    HW212074   6.873   2.552   6.035 -0.7712  0.3717  0.3816
 3797SOL     OW12075   2.621   1.129   6.076  0.4774 -0.2701 -0.1658
 3797SOL    HW112076   2.648   1.050   6.124  0.3435 -0.6317 -0.6747
 3797SOL    HW212077   2.610   1.195   6.144  0.0283 -0.8466  0.3335
 3798SOL     OW12078   5.929   7.102   4.726 -0.0761  0.0078  0.1141
 3798SOL    HW112079   5.926   7.106   4.822  0.8269  1.9592  0.1196
 3798SOL    HW212080   5.837   7.093   4.700 -0.3826 -0.0670  1.1522
 3799SOL     OW12081   5.225   1.744   5.961  0.3480 -0.0512 -0.3068
 3799SOL    HW112082   5.166   1.762   6.033 -0.1362  1.1818 -0.9758
 3799SOL    HW212083   5.306   1.789   5.985  0.4741 -0.3621 -0.1442
 3800SOL     OW12084   1.690   3.461   1.999  0.4199  0.0210  0.1044
 3800SOL    HW112085   1.595   3.471   1.993 -0.0233 -2.9235  0.4530
 3800SOL    HW212086   1.719   3.446   1.909  0.0124 -2.1186  0.2595
 3801SOL     OW12087   7.732   2.587   1.680 -0.5303 -0.5270  0.2935
 3801SOL    HW112088   7.671   2.598   1.606 -0.1157  1.4796  0.2037
 3801SOL    HW212089   7.679   2.547   1.748 -1.3576 -0.9139 -0.5478
 3802SOL     OW12090   2.600   4.644   1.460  0.2077 -0.0296  0.1637
 3802SOL    HW112091   2.565   4.641   1.549  0.8411  1.0176  0.4678
 3802SOL    HW212092   2.668   4.711   1.464 -0.0053  0.2879 -1.2012
 3803SOL     OW12093   5.005   6.834   2.591  0.3230  0.0688  0.1099
 3803SOL    HW112094   4.961   6.919   2.590 -0.8260 -0.4952 -1.2915
 3803SOL    HW212095   5.027   6.818   2.499 -2.3872 -2.5457 -0.2326
 3804SOL     OW12096   2.588   0.377   3.464  0.2809 -0.6098 -0.1630
 3804SOL    HW112097   2.622   0.382   3.553  0.1721  2.4089 -0.2082
 3804SOL    HW212098   2.517   0.313   3.469  1.0078 -1.3390  1.6296
 3805SOL     OW12099   5.556   0.446   4.031  0.0815  0.2614  0.2947
 3805SOL    HW112100   5.561   0.387   3.956  0.2605  1.4451 -0.6611
 3805SOL    HW212101   5.509   0.522   3.998 -0.6881  0.4190  1.6697
 3806SOL     OW12102   3.503   1.526   1.993  0.1447  0.1322  0.2561
 3806SOL    HW112103   3.542   1.452   1.946  0.3518 -0.0905  0.7672
 3806SOL    HW212104   3.444   1.485   2.057 -1.3200  0.4774 -0.8355
 3807SOL     OW12105   2.096   2.613   0.396 -0.3038 -0.2262  0.0575
 3807SOL    HW112106   2.145   2.560   0.332  2.4686 -0.2254  1.9942
 3807SOL    HW212107   2.059   2.549   0.457 -4.4502 -0.3656 -2.2758
 3808SOL     OW12108   2.377   3.813   4.939 -0.2206  0.0868  0.2395
 3808SOL    HW112109   2.342   3.728   4.912  1.0388  0.0050 -1.2855
 3808SOL    HW212110   2.335   3.875   4.880  0.1800  0.3081  0.1896
 3809SOL     OW12111   2.364   3.754   6.999  0.1677 -0.4741 -0.5975
 3809SOL    HW112112   2.371   3.745   7.094 -1.5402 -0.2313 -0.4138
 3809SOL    HW212113   2.435   3.700   6.964  2.0668  0.9509  0.8158
 3810SOL     OW12114   5.240   0.340   7.623 -0.3911  0.5935 -0.5595
 3810SOL    HW112115   5.195   0.257   7.602  0.9735  0.0055 -1.3195
 3810SOL    HW212116   5.279   0.325   7.709  0.1826  0.2860 -0.8665
 3811SOL     OW12117   3.978   1.594   7.734 -0.1481 -0.2868  1.0198
 3811SOL    HW112118   4.013   1.517   7.691  1.1937  1.5879 -1.5369
 3811SOL    HW212119   4.014   1.591   7.823  2.1603 -1.1806  0.1083
 3812SOL     OW12120   3.067   5.729   5.996  0.0474 -0.4927 -0.2255
 3812SOL    HW112121   3.143   5.786   5.997  0.8269 -1.4947 -0.7216
 3812SOL    HW212122   3.078   5.675   5.918 -0.3732 -1.7072  0.5233
 3813SOL     OW12123   1.451   5.469   5.927  0.0234  0.2064 -0.1716
 3813SOL    HW112124   1.474   5.557   5.897 -0.4079  0.9323  1.5193
 3813SOL    HW212125   1.356   5.465   5.919 -0.0333  0.1809  0.4744
 3814SOL     OW12126   2.673   5.191   4.630  0.1497  0.2639  0.3187
 3814SOL    HW112127   2.748   5.190   4.570  0.2417  0.7246  0.4237
 3814SOL    HW212128   2.673   5.104   4.670  1.2928  0.6321  1.1390
 3815SOL     OW12129   2.212   6.775   5.169 -0.2349  0.2768 -0.4557
 3815SOL    HW112130   2.298   6.765   5.128 -0.7793  0.7596 -1.7630
 3815SOL    HW212131   2.209   6.706   5.235  1.3127  0.5089 -0.0943
 3816SOL     OW12132   3.612   6.762   5.026  0.0835 -0.3649  0.4022
 3816SOL    HW112133   3.564   6.845   5.024 -0.0434 -0.4481 -0.0881
 3816SOL    HW212134   3.557   6.700   4.979  0.0369 -0.8133  1.0334
 3817SOL     OW12135   6.320   4.801   3.853  0.3139  0.1731 -0.3498
 3817SOL    HW112136   6.401   4.850   3.843  0.1442  0.4667 -0.2829
 3817SOL    HW212137   6.293   4.817   3.944  0.8173 -0.8978  0.0112
 3818SOL     OW12138   5.886   3.815   0.503  0.0933 -0.2245  0.4903
 3818SOL    HW112139   5.849   3.743   0.452  0.6275 -0.1197 -0.0532
 3818SOL    HW212140   5.923   3.772   0.580  0.1062 -0.4923  0.3375
 3819SOL     OW12141   3.272   5.828   0.792  0.0421  0.4576  0.2474
 3819SOL    HW112142   3.229   5.742   0.789 -0.4118  0.6601  0.7600
 3819SOL    HW212143   3.265   5.861   0.702  0.1803 -0.0207  0.0569
 3820SOL     OW12144   0.391   3.832   5.225 -0.2517 -0.6444  0.1821
 3820SOL    HW112145   0.349   3.755   5.263 -0.6005 -0.5304  0.0374
 3820SOL    HW212146   0.334   3.856   5.151 -0.5794  0.2081  0.6909
 3821SOL     OW12147   1.184   4.828   6.500 -0.3092  0.4879 -0.5563
 3821SOL    HW112148   1.096   4.863   6.487  0.0602  1.5109 -0.4144
 3821SOL    HW212149   1.216   4.872   6.579 -0.3383 -1.2460  0.4766
 3822SOL     OW12150   6.103   0.894   5.635  0.2305  0.7497 -0.3176
 3822SOL    HW112151   6.039   0.902   5.564 -0.3570  1.7795  0.3001
 3822SOL    HW212152   6.074   0.959   5.700 -0.8208 -1.9175  2.0791
 3823SOL     OW12153   2.112   0.608   2.312 -0.2701  0.0131  0.0037
 3823SOL    HW112154   2.056   0.537   2.344  0.7652 -1.0162 -0.3796
 3823SOL    HW212155   2.118   0.593   2.218  0.6769  0.0627  0.0461
 3824SOL     OW12156   4.033   5.280   3.776  0.0853  0.3158 -0.2255
 3824SOL    HW112157   4.049   5.241   3.862 -1.1192  0.6669  0.1797
 3824SOL    HW212158   4.096   5.237   3.718  2.8363  1.9800  1.2824
 3825SOL     OW12159   1.118   1.913   7.479  0.1625 -0.3640  0.2145
 3825SOL    HW112160   1.102   1.984   7.416 -1.4521 -1.0872 -0.2413
 3825SOL    HW212161   1.181   1.856   7.435 -0.9844 -0.8877 -0.8032
 3826SOL     OW12162   0.619   6.971   5.013 -0.5790 -0.7736  0.0342
 3826SOL    HW112163   0.539   6.939   4.973 -1.0656  2.1131 -1.5482
 3826SOL    HW212164   0.685   6.965   4.943 -0.6813  1.4196 -0.3224
 3827SOL     OW12165   3.875   6.772   0.068  0.1783  0.0820 -0.1467
 3827SOL    HW112166   3.971   6.769   0.072  0.2502  1.8171  0.2854
 3827SOL    HW212167   3.847   6.688   0.104  1.5290 -0.9436 -1.3683
 3828SOL     OW12168   6.803   3.333   7.611 -0.2117 -0.5640 -0.1560
 3828SOL    HW112169   6.828   3.410   7.662  1.3842 -2.0502  1.4544
 3828SOL    HW212170   6.825   3.355   7.521  0.7778  0.6463  0.3615
 3829SOL     OW12171   4.253   6.526   6.156  0.4698  0.1450 -0.0387
 3829SOL    HW112172   4.321   6.593   6.164  0.3898  0.0987  1.2580
 3829SOL    HW212173   4.187   6.552   6.219 -0.3924 -0.2047 -0.7839
 3830SOL     OW12174   1.223   2.616   4.845  0.1504  0.2849  0.0769
 3830SOL    HW112175   1.208   2.613   4.751 -1.3239  1.3296  0.2476
 3830SOL    HW212176   1.256   2.529   4.867 -2.5492 -1.0942 -0.9155
 3831SOL     OW12177   4.189   0.473   2.443 -0.2636 -0.4016  0.0026
 3831SOL    HW112178   4.241   0.548   2.414  0.5278 -0.9918 -0.1432
 3831SOL    HW212179   4.130   0.510   2.509  1.7805 -0.0386  1.7606
 3832SOL     OW12180   6.958   0.572   0.529  0.5588 -0.2701 -0.0736
 3832SOL    HW112181   6.902   0.495   0.517  0.1848  0.3061 -2.8136
 3832SOL    HW212182   7.039   0.550   0.484  0.0849  1.2221 -1.7569
 3833SOL     OW12183   5.201   7.410   0.313  0.1951  0.3318 -0.4796
 3833SOL    HW112184   5.210   7.324   0.270  1.2421  0.9528 -1.5451
 3833SOL    HW212185   5.267   7.409   0.383  0.9737  0.6679 -1.1944
 3834SOL     OW12186   3.488   4.039   5.349  0.8917 -0.9562  0.3634
 3834SOL    HW112187   3.506   4.111   5.288 -2.7564 -0.7549 -0.6715
 3834SOL    HW212188   3.511   4.076   5.435  0.2809  1.0199 -0.2668
 3835SOL     OW12189   4.678   0.695   0.344  0.0166 -0.2005 -0.7090
 3835SOL    HW112190   4.604   0.693   0.283 -0.1451  1.5051 -0.6106
 3835SOL    HW212191   4.714   0.607   0.340 -0.0883 -0.2057 -3.1762
 3836SOL     OW12192   0.283   2.828   6.698  0.1378 -0.0565  0.0327
 3836SOL    HW112193   0.318   2.914   6.675  0.0745 -0.0793 -0.1588
 3836SOL    HW212194   0.332   2.801   6.775 -0.4390  0.5312  0.6167
 3837SOL     OW12195   7.324   0.922   1.028 -0.2004 -0.1363 -0.2353
 3837SOL    HW112196   7.272   0.996   0.996 -2.2120 -1.8432 -1.1590
 3837SOL    HW212197   7.383   0.902   0.956  0.4851  0.6468  0.0906
 3838SOL     OW12198   1.741   3.776   4.492 -0.0171  0.3595 -0.3240
 3838SOL    HW112199   1.672   3.757   4.428  0.2768  0.7387 -0.7630
 3838SOL    HW212200   1.738   3.702   4.553 -0.9988  0.5205 -0.1714
 3839SOL     OW12201   5.885   0.294   1.310 -0.8268  0.8732  0.7455
 3839SOL    HW112202   5.851   0.271   1.397  1.1559  2.2862  1.9813
 3839SOL    HW212203   5.957   0.355   1.328 -1.4106  2.5253 -1.9876
 3840SOL     OW12204   6.720   1.466   6.321  0.3258  0.1380  0.7978
 3840SOL    HW112205   6.650   1.416   6.278 -0.0603  0.9320  0.4694
 3840SOL    HW212206   6.737   1.419   6.403 -0.4276 -0.2086  0.7636
 3841SOL     OW12207   4.206   0.430   4.575  0.0340 -0.0301 -0.1043
 3841SOL    HW112208   4.112   0.438   4.561 -0.2184 -0.9948  0.9114
 3841SOL    HW212209   4.239   0.520   4.572 -0.7650  0.2382 -1.4128
 3842SOL     OW12210   3.034   6.270   3.111 -0.8761 -0.4293 -0.7343
 3842SOL    HW112211   3.057   6.227   3.029 -0.0744  0.0568 -0.7668
 3842SOL    HW212212   3.104   6.333   3.127 -0.3121 -1.4211  1.0071
 3843SOL     OW12213   0.002   0.403   6.620 -0.4371  0.0845  0.4191
 3843SOL    HW112214  -0.070   0.455   6.584 -1.0542  0.4928  2.1411
 3843SOL    HW212215   0.007   0.429   6.712  0.0314 -2.0013  1.0387
 3844SOL     OW12216   0.777   5.257   4.054  0.5722 -0.3045  0.0410
 3844SOL    HW112217   0.693   5.276   4.012  0.2887  1.2429  1.2112
 3844SOL    HW212218   0.829   5.336   4.041  2.0548 -1.4154 -1.0636
 3845SOL     OW12219   6.691   2.568   4.263 -0.4402  0.4037  0.1464
 3845SOL    HW112220   6.773   2.613   4.285 -0.4605  0.2525  0.5354
 3845SOL    HW212221   6.713   2.518   4.184 -0.3886  1.0041 -0.2271
 3846SOL     OW12222   0.462   1.894   1.971 -0.1734  0.8819  0.0586
 3846SOL    HW112223   0.406   1.836   2.024  2.1316 -1.7605 -0.1763
 3846SOL    HW212224   0.402   1.931   1.906 -2.4007  1.4371  2.2710
 3847SOL     OW12225   1.795   1.135   6.845 -0.4391 -0.2897 -0.2164
 3847SOL    HW112226   1.819   1.150   6.937 -2.4894  0.9874  0.1794
 3847SOL    HW212227   1.712   1.182   6.834 -1.3208 -2.1386 -2.1788
 3848SOL     OW12228   6.292   5.141   0.355 -0.5374 -0.0531  0.2846
 3848SOL    HW112229   6.343   5.113   0.431 -0.7833 -0.1024  0.4336
 3848SOL    HW212230   6.249   5.061   0.324 -0.2772 -0.0738 -0.0318
 3849SOL     OW12231   3.705   3.246   0.617 -0.7483  0.0910 -0.6781
 3849SOL    HW112232   3.655   3.316   0.659 -1.5186 -2.0592  2.2280
 3849SOL    HW212233   3.791   3.286   0.601 -1.8528  2.3888 -1.4344
 3850SOL     OW12234   2.829   6.921   3.561  0.1931  0.2902  0.1749
 3850SOL    HW112235   2.854   6.981   3.490  0.4837 -1.5422 -1.3500
 3850SOL    HW212236   2.745   6.883   3.532 -0.9127  1.2163  1.9584
 3851SOL     OW12237   6.319   3.997   0.117 -0.3118 -0.2749  0.1332
 3851SOL    HW112238   6.386   4.009   0.185  0.5429  0.8845 -0.8715
 3851SOL    HW212239   6.257   3.934   0.155 -0.6450  1.3807  2.5739
 3852SOL     OW12240   7.322   6.395   4.487 -0.6989  0.0472  0.2523
 3852SOL    HW112241   7.247   6.336   4.490 -0.8719 -0.0040 -2.3126
 3852SOL    HW212242   7.335   6.423   4.578 -1.7562 -2.4583  1.2626
 3853SOL     OW12243   5.638   4.621   7.691  0.5555  0.2494 -0.2396
 3853SOL    HW112244   5.557   4.667   7.709  0.5734  0.1396  0.1340
 3853SOL    HW212245   5.700   4.690   7.666  0.6181  0.4464  0.4362
 3854SOL     OW12246   2.349   5.604   2.716  0.2055 -0.3629 -0.8909
 3854SOL    HW112247   2.431   5.651   2.703  0.8250 -1.6568 -1.8494
 3854SOL    HW212248   2.372   5.511   2.707 -1.0352 -0.8659  0.6303
 3855SOL     OW12249   4.341   4.101   7.019  0.1672 -0.5016  0.3527
 3855SOL    HW112250   4.383   4.153   6.950 -2.9029  2.5182  0.4592
 3855SOL    HW212251   4.278   4.047   6.972 -0.4052 -0.0628  0.6035
 3856SOL     OW12252   6.708   7.660   6.773 -0.0739 -0.3983 -0.5317
 3856SOL    HW112253   6.759   7.597   6.722  2.5753 -0.1090  1.5323
 3856SOL    HW212254   6.734   7.745   6.738  1.4078 -0.2234  0.8454
 3857SOL     OW12255   4.730   4.149   6.263 -0.4281 -0.5768 -0.1897
 3857SOL    HW112256   4.647   4.133   6.217 -0.4953  2.7788 -1.5279
 3857SOL    HW212257   4.704   4.186   6.347 -0.3493  0.6574 -0.6868
 3858SOL     OW12258   3.006   4.376   2.239  0.1241  0.5442 -0.6665
 3858SOL    HW112259   3.095   4.342   2.240  0.0819  0.4408  0.2573
 3858SOL    HW212260   2.976   4.362   2.149  0.2416 -1.4958 -0.4364
 3859SOL     OW12261   6.758   4.225   7.265  0.2438 -0.2611  0.3283
 3859SOL    HW112262   6.703   4.220   7.344  1.2067  1.1341  1.1110
 3859SOL    HW212263   6.848   4.222   7.298  0.6592  0.7219 -0.6771
 3860SOL     OW12264   0.478   4.845   4.451 -0.1483  0.0301 -0.1253
 3860SOL    HW112265   0.521   4.765   4.422 -0.4315  0.1167 -0.7845
 3860SOL    HW212266   0.483   4.841   4.547  0.2860 -0.5249 -0.1642
 3861SOL     OW12267   0.013   2.528   1.163  0.1032 -0.5673 -0.0118
 3861SOL    HW112268   0.068   2.599   1.196  0.3125 -0.6593 -0.1581
 3861SOL    HW212269  -0.054   2.516   1.230 -0.2103  0.0829 -0.1994
 3862SOL     OW12270   1.849   3.722   3.081  0.1480 -0.1504 -0.0052
 3862SOL    HW112271   1.814   3.650   3.132 -0.9520 -2.0196 -3.1051
 3862SOL    HW212272   1.929   3.687   3.041 -1.3372 -0.4466 -2.9806
 3863SOL     OW12273   7.255   3.567   2.062 -0.0041  0.2039  0.3570
 3863SOL    HW112274   7.312   3.607   2.129 -0.4849  0.4870  0.6003
 3863SOL    HW212275   7.276   3.473   2.067  1.0711  0.4005 -0.1632
 3864SOL     OW12276   4.886   7.459   1.287  0.3749 -0.3282 -0.4145
 3864SOL    HW112277   4.908   7.426   1.374 -1.4146 -1.4002 -0.3112
 3864SOL    HW212278   4.953   7.525   1.268  1.9258 -1.4421  0.9443
 3865SOL     OW12279   5.733   3.124   1.707  0.6346 -0.6182 -0.1899
 3865SOL    HW112280   5.787   3.195   1.673  1.8627 -0.8392  1.2334
 3865SOL    HW212281   5.728   3.061   1.635 -1.0005  1.1171 -1.7064
 3866SOL     OW12282   3.232   0.895   3.221  0.2629 -0.6336  0.0227
 3866SOL    HW112283   3.154   0.899   3.165  1.5042 -0.2173 -1.7604
 3866SOL    HW212284   3.219   0.965   3.285 -0.2310  0.3546 -1.1120
 3867SOL     OW12285   4.019   6.231   0.621  0.2087 -0.0694  0.7757
 3867SOL    HW112286   3.972   6.279   0.690 -0.8503 -0.3580  0.2826
 3867SOL    HW212287   3.994   6.140   0.634  1.9757 -0.4775  1.5197
 3868SOL     OW12288   3.485   6.287   1.796 -0.2314  0.5661 -0.3248
 3868SOL    HW112289   3.540   6.214   1.823 -0.7664  0.6232  0.9650
 3868SOL    HW212290   3.528   6.364   1.834  0.1668  0.9172 -1.4303
 3869SOL     OW12291   6.645   0.166   6.414  0.2615  0.3237  0.0687
 3869SOL    HW112292   6.672   0.137   6.501 -0.6562  1.1697  0.6531
 3869SOL    HW212293   6.719   0.143   6.357  1.0293  0.0973  1.1297
 3870SOL     OW12294   7.739   7.702   5.980  0.2775  1.1663 -0.1619
 3870SOL    HW112295   7.772   7.623   6.025  0.1806  1.9248  1.3029
 3870SOL    HW212296   7.697   7.668   5.901 -0.4303 -0.3415  0.8049
 3871SOL     OW12297   3.269   6.083   4.315  0.0333 -0.2327 -0.0888
 3871SOL    HW112298   3.241   6.113   4.229 -1.7587  1.1311  0.9127
 3871SOL    HW212299   3.347   6.135   4.335 -1.2632  1.6254  0.3209
 3872SOL     OW12300   1.495   5.309   3.049 -0.5428  0.2187 -0.5287
 3872SOL    HW112301   1.503   5.253   3.126 -1.4199 -1.3501 -1.5091
 3872SOL    HW212302   1.459   5.391   3.082  0.2968  0.0357  0.8962
 3873SOL     OW12303   5.952   4.573   4.806  0.6193 -0.1310 -0.3154
 3873SOL    HW112304   6.019   4.506   4.818  1.0894 -0.2018 -2.7784
 3873SOL    HW212305   5.889   4.556   4.876  2.1169 -1.3622  0.8170
 3874SOL     OW12306   6.765   0.260   2.537 -0.0185  0.3992 -0.2845
 3874SOL    HW112307   6.699   0.328   2.532  0.5321  1.0269  0.7533
 3874SOL    HW212308   6.829   0.283   2.469  0.3470  1.1268  0.2989
 3875SOL     OW12309   6.956   3.160   4.472  0.3660  0.4260  0.2976
 3875SOL    HW112310   6.925   3.139   4.384 -1.0164 -3.4573  1.4984
 3875SOL    HW212311   6.900   3.231   4.502 -0.4324  0.4807 -1.2711
 3876SOL     OW12312   7.273   1.711   5.361  0.3939  0.4621 -0.3555
 3876SOL    HW112313   7.227   1.643   5.410 -1.1683  0.3637 -1.8732
 3876SOL    HW212314   7.364   1.685   5.363  0.1102 -0.5309  0.8816
 3877SOL     OW12315   4.209   1.812   3.143  0.5006 -0.2139  0.2364
 3877SOL    HW112316   4.281   1.830   3.082 -1.2866 -0.6668 -2.1776
 3877SOL    HW212317   4.248   1.756   3.210  3.1388  2.1713  0.9059
 3878SOL     OW12318   1.605   1.242   1.050  0.4186 -0.1516 -0.1629
 3878SOL    HW112319   1.540   1.179   1.018 -0.1382  0.7218 -0.7740
 3878SOL    HW212320   1.664   1.189   1.104  0.8274 -1.5068 -1.8286
 3879SOL     OW12321   3.295   6.195   2.724 -0.2335  0.2958 -0.4516
 3879SOL    HW112322   3.289   6.113   2.674  0.4021  0.3086 -0.5582
 3879SOL    HW212323   3.305   6.167   2.815 -1.2585  0.2712 -0.3339
 3880SOL     OW12324   1.693   7.739   0.048 -0.4543 -0.1013  0.8205
 3880SOL    HW112325   1.666   7.827   0.023  1.9248 -0.2039 -2.6984
 3880SOL    HW212326   1.788   7.741   0.046 -0.3202 -2.8843 -0.1511
 3881SOL     OW12327   3.651   6.308   5.554 -0.6040  0.4128  0.3142
 3881SOL    HW112328   3.605   6.361   5.489 -0.0584  1.6896  0.9229
 3881SOL    HW212329   3.743   6.332   5.543 -0.4416  0.2055  1.1493
 3882SOL     OW12330   3.798   7.451   5.285  0.3808 -0.1299 -0.3813
 3882SOL    HW112331   3.782   7.485   5.197 -0.1237 -0.9592 -0.6277
 3882SOL    HW212332   3.870   7.504   5.319  0.3868  0.3881 -1.1836
 3883SOL     OW12333   7.447   0.985   1.854 -0.3739 -0.1289 -0.6655
 3883SOL    HW112334   7.520   0.925   1.838  0.8090  1.1654 -0.2910
 3883SOL    HW212335   7.412   1.005   1.768 -0.2307 -0.6904 -0.8560
 3884SOL     OW12336   4.030   0.256   1.881  0.0680  0.0294  0.7907
 3884SOL    HW112337   3.978   0.287   1.807  0.5145 -0.4911  0.2587
 3884SOL    HW212338   4.097   0.200   1.843 -0.5863 -1.4473  1.7047
 3885SOL     OW12339   2.355   1.361   5.965 -0.1474 -0.9642 -0.1076
 3885SOL    HW112340   2.296   1.425   6.004 -0.3363 -0.6462 -0.8884
 3885SOL    HW212341   2.379   1.303   6.037  0.3466  0.2208  0.7222
 3886SOL     OW12342   3.562   2.598   0.718 -0.3323 -0.8840 -0.3799
 3886SOL    HW112343   3.572   2.504   0.707 -2.0150 -1.1480  0.0651
 3886SOL    HW212344   3.485   2.620   0.667 -1.0316 -0.0798  0.9525
 3887SOL     OW12345   6.545   6.549   0.288 -0.3312 -0.2868  0.4077
 3887SOL    HW112346   6.603   6.503   0.228 -0.5008 -0.4321  0.3548
 3887SOL    HW212347   6.478   6.484   0.312  0.3225 -0.5690  1.5699
 3888SOL     OW12348   7.113   7.394   3.155  0.2598 -0.3472 -0.7366
 3888SOL    HW112349   7.180   7.436   3.209  1.5429 -1.9338 -1.0042
 3888SOL    HW212350   7.096   7.457   3.084  0.0277  0.8965  0.3943
 3889SOL     OW12351   5.883   2.455   1.103 -0.1075  0.0882  0.1366
 3889SOL    HW112352   5.879   2.370   1.146  0.1942  0.3052  0.6000
 3889SOL    HW212353   5.967   2.492   1.130 -0.9482  1.2477  1.3176
 3890SOL     OW12354   6.782   2.298   7.430 -0.3665  0.1501 -0.1642
 3890SOL    HW112355   6.774   2.390   7.406 -2.0081  0.1187  0.1639
 3890SOL    HW212356   6.811   2.255   7.350  0.2137  0.9083 -0.3749
 3891SOL     OW12357   0.464   4.054   4.989 -0.0663  0.0014 -0.3328
 3891SOL    HW112358   0.485   4.067   4.897  1.7267  0.2207  0.0684
 3891SOL    HW212359   0.458   3.959   5.000  0.2957 -0.0484 -0.5649
 3892SOL     OW12360   5.376   0.652   0.538  0.2422  0.4117 -0.6355
 3892SOL    HW112361   5.283   0.639   0.557  0.0117 -1.7922 -2.7304
 3892SOL    HW212362   5.419   0.579   0.581  0.7458  0.3591 -1.2158
 3893SOL     OW12363   4.316   5.068   3.840 -0.2844  0.4480 -0.0273
 3893SOL    HW112364   4.293   5.100   3.752 -2.1119 -1.3171 -0.2666
 3893SOL    HW212365   4.405   5.100   3.854 -0.0534  1.0718 -2.3856
 3894SOL     OW12366   5.103   7.615   5.881  0.7322 -0.0921  0.0247
 3894SOL    HW112367   5.092   7.606   5.975 -0.8999 -0.4989 -0.1861
 3894SOL    HW212368   5.035   7.677   5.854  0.8819 -0.3268 -0.9520
 3895SOL     OW12369   5.654   6.689   0.203 -0.0139 -0.5548  0.7001
 3895SOL    HW112370   5.697   6.606   0.225  0.1268 -0.5869  0.3094
 3895SOL    HW212371   5.695   6.753   0.262  0.7898 -0.5305  0.1374
 3896SOL     OW12372   5.413   2.411   3.712  0.1297  0.0728 -0.3844
 3896SOL    HW112373   5.429   2.321   3.737  1.1183  0.4296  0.3569
 3896SOL    HW212374   5.341   2.440   3.767  0.4455  0.0177  0.0612
 3897SOL     OW12375   3.829   4.460   6.297  0.3950 -0.1366  0.1474
 3897SOL    HW112376   3.886   4.406   6.242  0.3650 -0.5861  0.5546
 3897SOL    HW212377   3.790   4.398   6.359 -2.0897 -0.2231 -1.3623
 3898SOL     OW12378   3.433   3.942   1.083  0.5103 -0.3696 -0.1509
 3898SOL    HW112379   3.457   3.883   1.154 -1.6052 -0.0532  0.9160
 3898SOL    HW212380   3.383   3.887   1.022  1.1587 -0.3363 -0.7255
 3899SOL     OW12381   5.302   1.764   2.699  0.0354  0.0375  0.4510
 3899SOL    HW112382   5.304   1.677   2.659 -0.4570 -1.0189  2.5970
 3899SOL    HW212383   5.294   1.824   2.624  1.1875 -1.6777 -1.1400
 3900SOL     OW12384   5.127   3.046   3.809  0.2624 -0.0760  0.4435
 3900SOL    HW112385   5.046   3.002   3.784 -0.2570  0.1928  1.6085
 3900SOL    HW212386   5.194   2.977   3.808 -0.2267 -0.5566  0.6754
 3901SOL     OW12387   2.430   4.104   3.904 -0.5189  0.1158 -0.0717
 3901SOL    HW112388   2.410   4.015   3.933 -0.2347 -0.2690 -1.0018
 3901SOL    HW212389   2.511   4.094   3.853 -1.5256  0.5705 -1.8388
 3902SOL     OW12390   6.330   6.200   7.678  0.4422 -0.2573  0.2787
 3902SOL    HW112391   6.300   6.220   7.589  1.6001 -2.6723 -0.7549
 3902SOL    HW212392   6.425   6.194   7.670  0.5052 -1.3412  1.4781
 3903SOL     OW12393   4.048   0.305   0.162  0.2027  0.0612 -0.0935
 3903SOL    HW112394   3.990   0.245   0.117  0.5694 -1.2193  1.0570
 3903SOL    HW212395   4.010   0.392   0.149  0.2982 -0.2326 -2.7936
 3904SOL     OW12396   4.010   6.542   3.392 -0.4564  0.1737  0.0581
 3904SOL    HW112397   4.069   6.475   3.428  0.1146  1.3163  1.3097
 3904SOL    HW212398   4.039   6.552   3.301  1.7244  1.1050  0.7800
 3905SOL     OW12399   2.139   2.693   2.447  0.6973  0.2695  0.4083
 3905SOL    HW112400   2.173   2.768   2.397  0.1056  0.6930  0.6232
 3905SOL    HW212401   2.079   2.650   2.387 -1.1713  1.6400  1.1823
 3906SOL     OW12402   7.130   7.572   5.157  0.2954  0.2692 -0.3199
 3906SOL    HW112403   7.048   7.602   5.194  0.7622  0.1191  0.8618
 3906SOL    HW212404   7.104   7.511   5.087 -0.6006  1.2257 -0.8537
 3907SOL     OW12405   6.073   4.919   2.691 -0.4449 -0.5765  0.3881
 3907SOL    HW112406   6.018   4.990   2.724  0.8847  0.7894 -0.2015
 3907SOL    HW212407   6.131   4.897   2.764  0.8022  0.7062 -0.1620
 3908SOL     OW12408   0.812   1.327   4.227  0.3640  0.3594  0.5581
 3908SOL    HW112409   0.746   1.298   4.289  1.3556  0.8720  1.8960
 3908SOL    HW212410   0.814   1.422   4.235  0.9848  0.3817  0.2530
 3909SOL     OW12411   3.551   5.829   6.549 -0.0205  0.2731  0.2802
 3909SOL    HW112412   3.574   5.854   6.459  2.3686  0.4341  0.8604
 3909SOL    HW212413   3.555   5.733   6.548 -0.1470  0.2687  0.1822
 3910SOL     OW12414   7.547   5.103   7.243  0.0184  0.2114  0.3238
 3910SOL    HW112415   7.589   5.187   7.224 -0.3729  0.4720  0.5873
 3910SOL    HW212416   7.522   5.108   7.335 -1.0187  0.2694  0.0613
 3911SOL     OW12417   6.746   6.085   0.317 -0.1782  0.3271  0.1279
 3911SOL    HW112418   6.808   6.118   0.382  0.8117 -1.9407  0.4271
 3911SOL    HW212419   6.798   6.073   0.238  0.0510 -2.3674  0.6059
 3912SOL     OW12420   5.414   3.280   6.010  0.1937  0.1376 -0.1256
 3912SOL    HW112421   5.350   3.276   6.081 -0.4285 -0.2427 -0.6983
 3912SOL    HW212422   5.441   3.188   5.998 -0.2832  0.0959 -0.8976
 3913SOL     OW12423   1.275   4.716   7.069 -0.3622  0.3562  0.2286
 3913SOL    HW112424   1.303   4.631   7.103 -0.5891  0.1754 -0.0320
 3913SOL    HW212425   1.275   4.774   7.145  0.9650  0.4242  0.1912
 3914SOL     OW12426   7.038   4.464   6.145 -0.0129  0.4323 -0.3720
 3914SOL    HW112427   6.957   4.466   6.197  0.9014  0.6058  1.0887
 3914SOL    HW212428   7.081   4.383   6.173  1.1134  1.1862  0.1324
 3915SOL     OW12429   0.268   4.832   7.672  0.0087  0.4056  0.2353
 3915SOL    HW112430   0.360   4.808   7.664 -0.5319 -1.7827 -0.0524
 3915SOL    HW212431   0.258   4.908   7.614  1.5802  0.5423  0.1124
 3916SOL     OW12432   1.224   0.244   6.895  0.1962  0.1549  0.2029
 3916SOL    HW112433   1.187   0.215   6.812  1.2081  0.8672 -0.5074
 3916SOL    HW212434   1.313   0.273   6.874 -0.1293  2.0311  1.1957
 3917SOL     OW12435   6.861   0.852   6.101 -0.2978  0.3725 -0.1044
 3917SOL    HW112436   6.780   0.895   6.129 -0.6127 -0.8617  1.0018
 3917SOL    HW212437   6.913   0.845   6.181  0.1896 -0.3437 -0.4703
 3918SOL     OW12438   5.407   0.195   6.269 -0.0287  0.6104  0.0388
 3918SOL    HW112439   5.438   0.280   6.299 -0.3944  0.7105  0.1333
 3918SOL    HW212440   5.331   0.215   6.214 -0.3091  0.3254  0.3219
 3919SOL     OW12441   3.356   2.981   5.125 -0.1558  0.4519  0.2326
 3919SOL    HW112442   3.278   3.028   5.156 -0.5068  1.4321 -1.9089
 3919SOL    HW212443   3.429   3.027   5.165 -0.5780  1.7371 -0.4154
 3920SOL     OW12444   3.516   7.090   1.887  0.1216  0.1606  0.1164
 3920SOL    HW112445   3.608   7.067   1.898  0.2789  0.5376 -0.3751
 3920SOL    HW212446   3.509   7.115   1.795 -0.7282 -1.0418 -0.1697
 3921SOL     OW12447   2.981   7.204   4.956  0.5533 -0.1705 -1.2704
 3921SOL    HW112448   3.076   7.204   4.944  0.9096  1.4918  0.9737
 3921SOL    HW212449   2.960   7.293   4.983 -1.2557 -1.1693  0.8931
 3922SOL     OW12450   7.459   4.034   3.048  0.4689  0.3300  0.1933
 3922SOL    HW112451   7.548   4.043   3.081  0.5763 -2.2662  0.8303
 3922SOL    HW212452   7.465   4.057   2.955  1.8516 -0.0653  0.1665
 3923SOL     OW12453   1.305   6.600   2.455  0.1809  0.3301  0.0145
 3923SOL    HW112454   1.283   6.509   2.477  0.9787  0.3538  0.9963
 3923SOL    HW212455   1.316   6.643   2.540  1.1744  0.9920 -0.4357
 3924SOL     OW12456   2.188   4.181   3.748 -0.1425  0.0732 -0.6589
 3924SOL    HW112457   2.113   4.133   3.783  1.2997 -1.5906  0.2914
 3924SOL    HW212458   2.264   4.145   3.794  1.2921  1.4702 -1.8118
 3925SOL     OW12459   0.459   6.305   1.464 -0.6273 -0.1690  0.5243
 3925SOL    HW112460   0.418   6.278   1.382  0.1410  0.1324  0.0291
 3925SOL    HW212461   0.389   6.349   1.513 -1.3004 -1.0721  0.3884
 3926SOL     OW12462   7.149   5.239   4.534  0.0057  0.0291  0.0688
 3926SOL    HW112463   7.198   5.184   4.472  0.8376  1.8676 -0.9866
 3926SOL    HW212464   7.141   5.323   4.489  0.7091  1.4747  2.4929
 3927SOL     OW12465   1.924   3.076   2.225 -0.1811  0.0213  0.0491
 3927SOL    HW112466   1.855   3.027   2.269 -1.8712  1.4519 -0.9015
 3927SOL    HW212467   1.884   3.106   2.144  1.4408  1.2422 -0.3429
 3928SOL     OW12468   5.001   5.624   5.783 -0.1321 -0.2058  0.4187
 3928SOL    HW112469   5.043   5.600   5.866 -1.7486 -2.5734  0.6755
 3928SOL    HW212470   5.061   5.593   5.716  1.2195  1.7842  0.6376
 3929SOL     OW12471   1.021   6.553   7.560 -0.0387  0.3697  0.2349
 3929SOL    HW112472   0.951   6.491   7.580 -0.4312  0.9437  0.6675
 3929SOL    HW212473   0.975   6.631   7.527  0.5043  0.0406 -1.3640
 3930SOL     OW12474   3.395   2.349   0.091 -0.3209  0.2160  0.6581
 3930SOL    HW112475   3.420   2.286   0.023 -0.6281 -0.3267  1.0476
 3930SOL    HW212476   3.444   2.321   0.168 -1.8748 -0.6844  1.3538
 3931SOL     OW12477   4.445   3.804   4.340 -0.0932 -0.5188 -0.0191
 3931SOL    HW112478   4.436   3.754   4.259 -0.0079 -0.6475  0.0517
 3931SOL    HW212479   4.355   3.829   4.362  0.1121  2.6842 -2.1424
 3932SOL     OW12480   0.826   5.631   5.715  0.1225  0.1474  0.6194
 3932SOL    HW112481   0.797   5.711   5.759 -0.2178  0.9990 -1.0556
 3932SOL    HW212482   0.873   5.662   5.638 -2.8011 -1.1616 -1.8874
 3933SOL     OW12483   6.280   6.108   2.763 -0.7623 -0.2972 -0.2026
 3933SOL    HW112484   6.270   6.197   2.799 -1.8400 -1.0632  1.5487
 3933SOL    HW212485   6.267   6.118   2.669  0.1300  1.5377 -0.1766
 3934SOL     OW12486   4.509   4.643   2.452 -0.3866  0.6231 -0.3383
 3934SOL    HW112487   4.422   4.606   2.439 -0.4143  0.4561  0.2948
 3934SOL    HW212488   4.538   4.667   2.364 -1.7178  2.1850 -0.4115
 3935SOL     OW12489   4.835   3.452   0.029 -0.8556  0.0595 -0.0927
 3935SOL    HW112490   4.759   3.424  -0.022 -0.4607  0.9705 -1.2344
 3935SOL    HW212491   4.801   3.468   0.117 -1.6973 -0.8689 -0.2318
 3936SOL     OW12492   4.676   7.048   3.556  0.4327  0.2847 -0.3230
 3936SOL    HW112493   4.683   6.977   3.620 -0.4034 -0.5034 -1.0742
 3936SOL    HW212494   4.618   7.014   3.488 -1.0667  2.1278 -0.0834
 3937SOL     OW12495   5.193   6.932   1.937 -0.1951  0.2071  0.1751
 3937SOL    HW112496   5.226   6.885   2.013  0.1765  1.2959  0.7011
 3937SOL    HW212497   5.158   7.014   1.971 -2.8651 -0.5796 -0.4569
 3938SOL     OW12498   3.358   1.551   1.200 -0.0370 -0.4328 -0.3300
 3938SOL    HW112499   3.334   1.459   1.196 -0.1938 -0.4518  0.7702
 3938SOL    HW212500   3.275   1.597   1.215  0.2855 -0.3094  1.2601
 3939SOL     OW12501   3.569   6.766   3.078 -0.4674 -0.2967  0.4593
 3939SOL    HW112502   3.557   6.684   3.126 -2.6740 -1.0414 -1.2175
 3939SOL    HW212503   3.506   6.762   3.007  0.9457  1.8683 -1.0486
 3940SOL     OW12504   6.518   4.444   0.689 -0.4349 -0.4158  0.0541
 3940SOL    HW112505   6.525   4.402   0.775  0.2848 -0.7920 -0.1816
 3940SOL    HW212506   6.427   4.472   0.684 -0.4871 -0.3830  0.9440
 3941SOL     OW12507   7.076   0.988   5.938  0.4403 -0.0084  0.7934
 3941SOL    HW112508   7.034   1.067   5.904 -1.3407 -0.1543  2.5244
 3941SOL    HW212509   7.020   0.959   6.010  1.0964 -2.8062  0.3016
 3942SOL     OW12510   2.824   4.618   6.946  0.3840 -0.5004  0.1360
 3942SOL    HW112511   2.857   4.704   6.921  0.5862 -0.6107  0.0164
 3942SOL    HW212512   2.870   4.597   7.027  1.4779 -1.1405 -0.6113
 3943SOL     OW12513   0.791   1.249   1.152  0.4745  0.0044 -0.1876
 3943SOL    HW112514   0.775   1.314   1.083  1.8537  0.0516 -0.4954
 3943SOL    HW212515   0.873   1.208   1.127 -0.1544 -1.5831  0.2428
 3944SOL     OW12516   2.967   7.407   0.357 -0.1901  0.0095 -0.8558
 3944SOL    HW112517   2.988   7.438   0.269  2.3110  1.4625  0.1268
 3944SOL    HW212518   2.982   7.313   0.355  0.7327  0.1691 -1.7726
 3945SOL     OW12519   4.380   6.466   3.929  0.1241  0.2441  0.3154
 3945SOL    HW112520   4.426   6.482   3.847 -0.7842  0.5149 -0.1462
 3945SOL    HW212521   4.301   6.519   3.924 -2.9050 -3.8097 -1.1497
 3946SOL     OW12522   5.015   7.252   5.901 -0.1980  0.3153  0.3055
 3946SOL    HW112523   5.020   7.169   5.855 -0.8455  0.1164  0.5735
 3946SOL    HW212524   5.042   7.317   5.836 -3.3289  0.3111 -1.2160
 3947SOL     OW12525   0.345   4.204   7.615  0.0637  0.7273 -0.1239
 3947SOL    HW112526   0.309   4.201   7.704 -0.3022 -0.9054 -0.3047
 3947SOL    HW212527   0.400   4.283   7.615  0.2408  0.6498  1.6098
 3948SOL     OW12528   2.067   5.997   4.353 -0.0219  0.4973  0.2562
 3948SOL    HW112529   2.073   5.911   4.396  1.2552  0.5432  0.2345
 3948SOL    HW212530   2.088   5.980   4.261 -1.1014  0.6476 -0.0311
 3949SOL     OW12531   3.713   2.320   5.107 -0.0897  0.2554  0.3984
 3949SOL    HW112532   3.622   2.349   5.112 -0.4829 -0.7656 -0.3956
 3949SOL    HW212533   3.725   2.267   5.186 -0.2231  0.3024  0.4499
 3950SOL     OW12534   5.939   0.530   6.474  0.4965  0.0567  0.1939
 3950SOL    HW112535   6.003   0.499   6.539 -0.4744  1.2107  1.7901
 3950SOL    HW212536   5.972   0.615   6.445 -0.7437  1.1578  1.8141
 3951SOL     OW12537   0.259   3.660   1.012  0.0144  0.0858 -0.4773
 3951SOL    HW112538   0.324   3.589   1.015  1.4756  1.3901  0.2823
 3951SOL    HW212539   0.191   3.628   0.953  2.2085 -0.6534 -2.7546
 3952SOL     OW12540   7.256   7.513   0.524 -0.3785 -0.1554  0.1684
 3952SOL    HW112541   7.309   7.581   0.564 -0.0686  0.0068 -0.4996
 3952SOL    HW212542   7.315   7.468   0.463 -1.2548  0.7222 -1.3830
 3953SOL     OW12543   6.074   2.062   4.634  0.1340 -0.0333  0.6825
 3953SOL    HW112544   6.152   2.006   4.631  0.9239  1.0504  0.6339
 3953SOL    HW212545   6.069   2.092   4.724 -0.2957 -0.1770  0.7101
 3954SOL     OW12546   1.973   2.474   6.836 -0.4112 -0.3702  0.1054
 3954SOL    HW112547   1.960   2.399   6.894 -1.0433  1.7677  2.9548
 3954SOL    HW212548   2.048   2.520   6.874 -2.0444  2.1527  0.4908
 3955SOL     OW12549   4.476   7.432   4.565  0.3042 -0.2755 -0.0157
 3955SOL    HW112550   4.473   7.336   4.562 -1.3749 -0.2496 -0.3609
 3955SOL    HW212551   4.436   7.454   4.649 -2.2170  0.1269 -1.2095
 3956SOL     OW12552   6.502   2.448   4.686 -0.4404 -0.0096  0.2325
 3956SOL    HW112553   6.441   2.375   4.675 -1.7501  1.0292  0.4150
 3956SOL    HW212554   6.449   2.526   4.671  0.9571  0.9169 -0.0701
 3957SOL     OW12555   7.422   4.747   3.757  0.4249 -0.4029 -0.1238
 3957SOL    HW112556   7.443   4.832   3.719 -2.1553  0.2071 -0.3849
 3957SOL    HW212557   7.492   4.731   3.820  0.5932  2.2685  0.4986
 3958SOL     OW12558   2.374   2.260   3.276  0.1703  0.1266 -0.6008
 3958SOL    HW112559   2.436   2.290   3.209  0.7434 -0.7714 -0.4966
 3958SOL    HW212560   2.405   2.301   3.357 -0.0454  0.5761 -0.7438
 3959SOL     OW12561   1.169   1.005   0.816 -0.1019 -0.5243 -0.1606
 3959SOL    HW112562   1.112   0.929   0.826 -0.5654 -0.5259 -2.2933
 3959SOL    HW212563   1.158   1.031   0.724  1.8034  0.7085 -0.0935
 3960SOL     OW12564   0.892   3.340   4.212  0.2230 -0.1067 -0.2498
 3960SOL    HW112565   0.954   3.395   4.260 -0.7212 -0.3442  1.3252
 3960SOL    HW212566   0.943   3.264   4.185  0.5534 -0.5200  1.4241
 3961SOL     OW12567   3.345   3.838   1.679  0.2383 -0.2529 -0.0508
 3961SOL    HW112568   3.334   3.828   1.773  1.6192 -0.9397  0.0740
 3961SOL    HW212569   3.256   3.841   1.644 -0.3251  1.7778  1.4048
 3962SOL     OW12570   1.431   4.467   2.163  0.2840 -0.3050 -0.1294
 3962SOL    HW112571   1.385   4.383   2.167  0.2051 -0.2624 -0.1395
 3962SOL    HW212572   1.361   4.533   2.167  0.3802 -0.2343  0.4856
 3963SOL     OW12573   3.588   3.516   5.790 -0.1445 -0.7665  0.4871
 3963SOL    HW112574   3.650   3.578   5.752 -1.2387 -0.9364 -1.8114
 3963SOL    HW212575   3.642   3.450   5.832  1.2238 -0.4347 -0.6543
 3964SOL     OW12576   7.624   0.024   0.564  0.4268 -0.2994 -0.1766
 3964SOL    HW112577   7.631  -0.068   0.537  1.3373 -0.8461  1.7237
 3964SOL    HW212578   7.661   0.025   0.652  0.1468  1.8573 -0.0471
 3965SOL     OW12579   5.027   1.650   2.355 -0.1212  0.5294  0.0574
 3965SOL    HW112580   4.936   1.621   2.350  0.2610 -0.9435  0.9743
 3965SOL    HW212581   5.036   1.682   2.445  0.5127 -0.2336  0.2713
 3966SOL     OW12582   6.499   4.935   7.527  0.6657 -0.0009  0.0740
 3966SOL    HW112583   6.564   4.946   7.597  0.4730  2.2349 -0.0300
 3966SOL    HW212584   6.551   4.921   7.448  1.0638  1.5319  0.0335
 3967SOL     OW12585   7.717   3.743   1.695 -0.2078 -0.1207  0.0253
 3967SOL    HW112586   7.797   3.724   1.647 -0.4151 -0.5232 -0.1619
 3967SOL    HW212587   7.713   3.676   1.764 -1.4184 -1.3995 -1.2101
 3968SOL     OW12588   5.647   6.758   6.648 -0.0451  0.8450 -0.5683
 3968SOL    HW112589   5.638   6.673   6.606  0.3152 -0.5083  1.9128
 3968SOL    HW212590   5.647   6.821   6.576 -3.8418 -0.8930 -2.3270
 3969SOL     OW12591   3.964   4.118   0.473  0.1161 -0.6885  0.6421
 3969SOL    HW112592   3.980   4.142   0.382 -0.4202  0.8562  0.9223
 3969SOL    HW212593   4.048   4.133   0.517  0.7906 -2.7964  0.1847
 3970SOL     OW12594   7.458   1.182   7.466  0.0172  0.3341 -0.3318
 3970SOL    HW112595   7.471   1.171   7.561 -0.9766 -0.2156 -0.2449
 3970SOL    HW212596   7.368   1.154   7.451 -0.1900  1.4370 -1.2900
 3971SOL     OW12597   3.437   0.144   2.139  0.0807 -0.5204  0.0130
 3971SOL    HW112598   3.358   0.198   2.134  1.3388  1.4591  0.4989
 3971SOL    HW212599   3.430   0.099   2.224 -0.2795  0.0371  0.2834
 3972SOL     OW12600   2.612   5.416   5.446 -0.2994  0.1990 -0.0541
 3972SOL    HW112601   2.590   5.411   5.353  0.0195  0.0763 -0.1214
 3972SOL    HW212602   2.554   5.351   5.487 -0.7370  0.5450 -0.1087
 3973SOL     OW12603   4.545   5.680   2.712  0.1958  0.3070  0.7495
 3973SOL    HW112604   4.636   5.651   2.707  0.0892  0.0278  0.3926
 3973SOL    HW212605   4.550   5.767   2.752  0.6668  0.5308  0.2135
 3974SOL     OW12606   4.180   5.430   0.908  0.3265 -0.7832  0.1632
 3974SOL    HW112607   4.257   5.410   0.960  0.0309  2.3089  2.0319
 3974SOL    HW212608   4.203   5.509   0.859 -1.1666 -0.6409 -0.3671
 3975SOL     OW12609   5.177   5.213   3.384 -0.1442  0.1682  0.2005
 3975SOL    HW112610   5.248   5.151   3.364 -1.0116 -0.9306  0.4098
 3975SOL    HW212611   5.193   5.239   3.474 -0.8238 -1.2507  0.7616
 3976SOL     OW12612   5.369   7.495   6.558  0.8789 -0.0748 -0.0698
 3976SOL    HW112613   5.379   7.552   6.481  1.8986  1.9092  1.4502
 3976SOL    HW212614   5.274   7.484   6.567  0.7134  0.2940 -1.1673
 3977SOL     OW12615   6.452   4.032   2.607  0.2392 -0.2128 -0.0936
 3977SOL    HW112616   6.362   4.007   2.582 -0.3632  0.9890  0.8173
 3977SOL    HW212617   6.451   4.127   2.608  0.6680 -0.1705  2.8855
 3978SOL     OW12618   7.249   1.453   4.539  0.9076  1.3652  0.3505
 3978SOL    HW112619   7.315   1.519   4.517 -0.6481  3.3623  1.3187
 3978SOL    HW212620   7.173   1.476   4.486  0.0755  0.8286  1.2677
 3979SOL     OW12621   2.258   0.594   5.046 -0.0169 -0.5031 -0.2290
 3979SOL    HW112622   2.336   0.606   4.991 -0.9436  0.7114 -1.3712
 3979SOL    HW212623   2.185   0.617   4.988 -1.0545  0.8051  1.4956
 3980SOL     OW12624   0.316   1.954   1.471 -0.4850  0.6094 -0.1654
 3980SOL    HW112625   0.362   1.908   1.401 -1.6257  1.3959 -1.4769
 3980SOL    HW212626   0.363   2.037   1.481  0.4654 -0.0298  0.9420
 3981SOL     OW12627   0.023   6.332   4.232  0.0685 -0.3546  0.5518
 3981SOL    HW112628  -0.035   6.277   4.284  1.2244 -3.0333 -0.7893
 3981SOL    HW212629  -0.034   6.371   4.165 -0.9362  0.9518  2.0944
 3982SOL     OW12630   6.548   6.507   3.765 -0.4701 -0.1344 -0.3866
 3982SOL    HW112631   6.504   6.561   3.830 -3.2545 -1.3624 -1.1151
 3982SOL    HW212632   6.577   6.429   3.813  0.0035  0.2101 -0.1063
 3983SOL     OW12633   6.480   7.554   5.240  0.5214 -0.3748  0.4478
 3983SOL    HW112634   6.517   7.601   5.166  2.4334 -2.2678  0.0889
 3983SOL    HW212635   6.535   7.475   5.248 -0.1570 -0.6712  3.3201
 3984SOL     OW12636   2.805   1.048   0.889 -0.1166  0.1586 -0.8025
 3984SOL    HW112637   2.781   1.134   0.855  1.7293  0.9278 -0.3000
 3984SOL    HW212638   2.899   1.055   0.907  0.2409 -2.2058 -1.4399
 3985SOL     OW12639   2.131   5.990   4.087 -0.0092  0.5346 -0.8921
 3985SOL    HW112640   2.153   5.898   4.074  1.7349  0.9334 -0.9984
 3985SOL    HW212641   2.113   6.024   4.000 -0.5682  0.3276 -0.8621
 3986SOL     OW12642   1.040   2.807   2.623 -0.2333  0.1561 -0.3950
 3986SOL    HW112643   1.120   2.848   2.657  0.0787  1.3513 -2.3550
 3986SOL    HW212644   1.009   2.869   2.556 -1.1539 -1.6832 -1.7478
 3987SOL     OW12645   4.511   0.977   6.721 -0.4071  0.0704 -0.0961
 3987SOL    HW112646   4.542   1.004   6.634 -2.1504 -0.6510 -0.9983
 3987SOL    HW212647   4.586   0.930   6.759  0.2757  0.0705 -1.3622
 3988SOL     OW12648   3.451   3.842   7.577 -0.1559  0.2454  0.2393
 3988SOL    HW112649   3.409   3.892   7.507  1.4138  1.5416  0.1561
 3988SOL    HW212650   3.379   3.799   7.623 -1.4527  1.4793 -0.5666
 3989SOL     OW12651   1.790   1.795   6.287  0.1140  0.6720 -0.1041
 3989SOL    HW112652   1.729   1.855   6.244 -1.1895 -0.1947  0.4953
 3989SOL    HW212653   1.772   1.804   6.380 -0.0016 -0.5112  0.0106
 3990SOL     OW12654   1.099   0.140   5.521 -0.1913 -0.0377  0.4822
 3990SOL    HW112655   1.116   0.231   5.546  0.4722  0.4335 -1.5382
 3990SOL    HW212656   1.033   0.145   5.453  0.3704 -0.9939 -0.1655
 3991SOL     OW12657   6.113   2.882   2.107  0.3274 -0.3198 -0.5132
 3991SOL    HW112658   6.044   2.903   2.045 -0.4918  1.0664  0.8075
 3991SOL    HW212659   6.143   2.966   2.140  0.9401 -0.9990  0.7530
 3992SOL     OW12660   6.473   0.379   1.235  0.7515  0.3063  0.1327
 3992SOL    HW112661   6.464   0.290   1.270 -0.0145 -0.4832 -1.8988
 3992SOL    HW212662   6.448   0.436   1.308  0.1769 -1.1913  1.1617
 3993SOL     OW12663   3.419   4.908   1.567 -0.2427  0.1617 -0.0697
 3993SOL    HW112664   3.415   5.004   1.560  1.0153  0.1834 -0.7081
 3993SOL    HW212665   3.475   4.892   1.642 -0.5719 -0.0856  0.1256
 3994SOL     OW12666   2.505   3.850   1.078 -0.0200  0.2088 -0.8820
 3994SOL    HW112667   2.596   3.877   1.065 -0.3550  1.1181 -1.4353
 3994SOL    HW212668   2.501   3.823   1.170  0.9344 -0.4031 -1.0049
 3995SOL     OW12669   7.528   0.762   6.084  0.0289 -0.0223  0.7954
 3995SOL    HW112670   7.499   0.835   6.029 -2.2131 -1.0792  0.4633
 3995SOL    HW212671   7.605   0.727   6.039 -1.2130 -0.3066 -1.2377
 3996SOL     OW12672   5.496   1.992   5.128  0.6864  0.2424  0.6475
 3996SOL    HW112673   5.458   2.069   5.170 -1.4866  0.2285 -1.0943
 3996SOL    HW212674   5.542   2.027   5.052  1.3414 -0.0401  0.9104
 3997SOL     OW12675   1.541   1.492   0.736  0.2736 -0.2497  0.0050
 3997SOL    HW112676   1.537   1.535   0.650  1.5312 -1.9716 -0.9846
 3997SOL    HW212677   1.450   1.480   0.761 -0.1227  2.2881  0.0141
 3998SOL     OW12678   7.606   1.483   7.763  0.0654  0.1512 -0.6328
 3998SOL    HW112679   7.553   1.441   7.695  1.9090 -1.6539 -1.0773
 3998SOL    HW212680   7.694   1.489   7.725  0.6169  1.3359  0.7266
 3999SOL     OW12681   6.831   1.082   7.113  0.1242  0.4356  0.4932
 3999SOL    HW112682   6.916   1.059   7.076  0.9201  2.0930  1.2151
 3999SOL    HW212683   6.787   1.131   7.043  0.2687  0.6788  0.5746
 4000SOL     OW12684   0.350   3.969   1.459 -0.0502  0.3122 -0.3593
 4000SOL    HW112685   0.412   3.950   1.388  0.4771 -0.0318  0.1847
 4000SOL    HW212686   0.404   3.980   1.537 -0.6833 -0.2189  0.1743
 4001SOL     OW12687   3.635   3.908   4.918 -0.2127 -0.1481 -0.0267
 4001SOL    HW112688   3.724   3.940   4.906 -0.3126  0.0404 -0.2592
 4001SOL    HW212689   3.579   3.973   4.876 -0.4043 -0.7543 -0.7268
 4002SOL     OW12690   2.349   5.698   6.296  0.5384  0.4828  0.2031
 4002SOL    HW112691   2.329   5.787   6.324 -0.8094  0.2893 -0.0311
 4002SOL    HW212692   2.265   5.652   6.304  1.0056 -0.5253 -0.5313
 4003SOL     OW12693   5.961   6.293   3.673 -0.5363  0.0552 -0.3829
 4003SOL    HW112694   5.947   6.370   3.619  2.1472  1.6701  0.9752
 4003SOL    HW212695   5.932   6.320   3.761  1.8185  0.1854  0.4331
 4004SOL     OW12696   4.500   3.017   6.668  0.1737  0.3818  0.3745
 4004SOL    HW112697   4.453   3.100   6.659  0.0118  0.3759  1.0822
 4004SOL    HW212698   4.558   3.014   6.592  0.7080  1.4895  0.7079
 4005SOL     OW12699   4.747   6.404   0.232  0.6339  0.0843 -0.4618
 4005SOL    HW112700   4.652   6.420   0.236  0.2550 -2.0243  0.6599
 4005SOL    HW212701   4.785   6.479   0.277 -0.6306  0.3312  0.2608
 4006SOL     OW12702   7.677   7.402   1.043 -0.1506  0.0632 -0.6260
 4006SOL    HW112703   7.587   7.370   1.041 -1.1013  2.5419 -1.4912
 4006SOL    HW212704   7.684   7.448   1.127 -0.2127  1.1231 -1.1789
 4007SOL     OW12705   5.446   6.136   2.525 -0.2418  0.5735  0.2928
 4007SOL    HW112706   5.486   6.207   2.474  0.3618 -0.1584 -0.2764
 4007SOL    HW212707   5.496   6.058   2.501 -1.2489 -0.1558  0.4833
 4008SOL     OW12708   3.010   4.339   7.457  0.1274  0.3452  0.0616
 4008SOL    HW112709   2.988   4.309   7.545 -1.0723 -0.3723 -0.4615
 4008SOL    HW212710   3.031   4.432   7.469 -2.3220  0.8925  0.8055
 4009SOL     OW12711   5.700   0.774   2.063 -0.3202 -0.0650  0.1876
 4009SOL    HW112712   5.784   0.733   2.042  0.0142  0.4645  0.4708
 4009SOL    HW212713   5.654   0.780   1.979  1.2651  2.6142 -0.6135
 4010SOL     OW12714   5.671   3.580   5.292 -0.1915 -0.4200  0.1610
 4010SOL    HW112715   5.678   3.498   5.244  0.1544  0.2302 -0.9220
 4010SOL    HW212716   5.580   3.607   5.282 -0.2580 -0.5697  0.3552
 4011SOL     OW12717   2.962   6.544   5.654  0.1935  0.2973 -0.2304
 4011SOL    HW112718   2.996   6.487   5.585 -0.9433 -1.5468  0.6446
 4011SOL    HW212719   3.039   6.582   5.694  0.9588 -0.1427 -1.2388
 4012SOL     OW12720   0.025   6.910   1.556 -0.0505  0.2647 -0.2464
 4012SOL    HW112721  -0.006   6.860   1.631  1.3988 -0.9407 -0.4034
 4012SOL    HW212722   0.110   6.944   1.585 -0.3105  1.3400 -0.7091
 4013SOL     OW12723   0.691   5.613   0.951  0.2836 -0.5026 -0.1436
 4013SOL    HW112724   0.688   5.681   1.018  0.2406 -0.2388 -0.4107
 4013SOL    HW212725   0.706   5.532   1.000 -0.2347 -0.3830  0.2327
 4014SOL     OW12726   3.551   7.288   0.158  0.1524  0.2311 -0.0191
 4014SOL    HW112727   3.645   7.300   0.149  0.6362 -2.5404  0.2178
 4014SOL    HW212728   3.539   7.266   0.251 -0.9472  1.8570  0.2610
 4015SOL     OW12729   3.517   1.895   0.982 -0.1405  0.8518 -0.4328
 4015SOL    HW112730   3.487   1.920   1.069 -0.3011  0.4115 -0.3609
 4015SOL    HW212731   3.559   1.810   0.995  1.8617  1.7714 -0.3713
 4016SOL     OW12732   0.196   3.687   1.863  0.1847 -0.1044 -0.8603
 4016SOL    HW112733   0.273   3.729   1.902 -0.9941  3.9459 -2.3963
 4016SOL    HW212734   0.204   3.595   1.888  2.4519  1.0473  3.9887
 4017SOL     OW12735   0.342   3.805   0.250 -0.5488  0.3975 -0.7227
 4017SOL    HW112736   0.341   3.723   0.298 -0.4172 -0.3887 -2.0246
 4017SOL    HW212737   0.402   3.791   0.178 -0.0430  1.8575 -0.6307
 4018SOL     OW12738   1.641   3.794   2.839  0.3124 -0.1781 -0.2469
 4018SOL    HW112739   1.702   3.794   2.914  1.6177  0.2436 -1.2613
 4018SOL    HW212740   1.565   3.843   2.870  0.6670 -0.3477  0.9329
 4019SOL     OW12741   5.553   7.357   5.726 -0.2381 -0.1474  0.2819
 4019SOL    HW112742   5.585   7.268   5.712 -1.7685 -0.7404  0.4098
 4019SOL    HW212743   5.597   7.409   5.658  0.6801 -0.9736  0.2189
 4020SOL     OW12744   6.742   4.434   0.517  0.9389 -0.4746 -0.2870
 4020SOL    HW112745   6.670   4.424   0.579  0.2130  1.3295 -0.7859
 4020SOL    HW212746   6.818   4.398   0.564  0.4303  0.8402  1.6786
 4021SOL     OW12747   5.246   1.706   5.678  0.1020  0.3705 -0.2684
 4021SOL    HW112748   5.213   1.743   5.760  2.2436  3.0294 -0.4701
 4021SOL    HW212749   5.169   1.701   5.621 -1.2907 -0.8717  1.5830
 4022SOL     OW12750   5.083   2.096   3.078  0.3878  0.3806 -0.3745
 4022SOL    HW112751   5.062   2.180   3.118 -1.9422 -0.2645 -0.0940
 4022SOL    HW212752   5.097   2.116   2.985 -2.2018  0.8841 -0.7258
 4023SOL     OW12753   0.422   3.595   0.018  0.5211 -0.2460 -0.6570
 4023SOL    HW112754   0.359   3.537  -0.026 -0.7076  1.9915 -2.0727
 4023SOL    HW212755   0.474   3.632  -0.053  0.9219  0.7393  0.1212
 4024SOL     OW12756   5.343   0.759   3.525 -0.1063  0.1959  0.1786
 4024SOL    HW112757   5.390   0.758   3.442  0.1150 -0.1457  0.3067
 4024SOL    HW212758   5.275   0.826   3.513 -1.5169 -1.3929 -1.0761
 4025SOL     OW12759   0.411   5.378   5.209 -0.4513 -0.0522  0.1244
 4025SOL    HW112760   0.382   5.466   5.182 -1.1749 -0.1391  0.5754
 4025SOL    HW212761   0.389   5.322   5.135  0.2564  0.1840 -0.2735
 4026SOL     OW12762   4.896   4.676   6.751  0.6724 -0.1701 -0.4251
 4026SOL    HW112763   4.833   4.686   6.680  1.5217  0.6175 -1.0989
 4026SOL    HW212764   4.945   4.759   6.752  2.9582 -1.3999 -1.2006
 4027SOL     OW12765   5.323   4.534   1.318 -0.3893 -0.2230  0.2105
 4027SOL    HW112766   5.275   4.451   1.316  0.2875 -0.6046 -1.0739
 4027SOL    HW212767   5.298   4.579   1.238  0.4343  0.1257  0.1377
 4028SOL     OW12768   3.920   6.871   0.727  0.0286  0.1256 -0.2014
 4028SOL    HW112769   3.830   6.873   0.760  0.2099  2.7540  0.3125
 4028SOL    HW212770   3.967   6.816   0.790 -1.1533 -1.2404 -0.4546
 4029SOL     OW12771   5.380   6.916   7.026  0.2807 -0.0327  0.1772
 4029SOL    HW112772   5.470   6.949   7.018  0.7711 -1.5039 -0.7778
 4029SOL    HW212773   5.345   6.921   6.937 -0.0413 -0.9181  0.2496
 4030SOL     OW12774   6.579   3.586   4.005 -0.2093 -0.2178 -0.4547
 4030SOL    HW112775   6.596   3.654   3.940 -1.2370  0.3729 -0.1354
 4030SOL    HW212776   6.646   3.599   4.072  1.2011 -1.1745 -1.6164
 4031SOL     OW12777   5.359   3.819   3.155 -0.4082 -0.9959  0.4627
 4031SOL    HW112778   5.394   3.865   3.078  0.7602 -2.7554 -0.1431
 4031SOL    HW212779   5.425   3.831   3.222 -2.0093  1.6271  1.7283
 4032SOL     OW12780   3.535   0.996   7.097 -0.3611  0.0638 -0.3313
 4032SOL    HW112781   3.585   0.945   7.161  0.0100  0.5113 -0.2568
 4032SOL    HW212782   3.452   1.015   7.142  0.0505  0.7129  0.1815
 4033SOL     OW12783   3.856   6.279   2.129  0.5487 -0.1675 -0.2121
 4033SOL    HW112784   3.942   6.305   2.097 -0.0420  3.0409  0.5261
 4033SOL    HW212785   3.871   6.254   2.221  0.8008 -0.5357 -0.3479
 4034SOL     OW12786   3.517   4.560   1.787  0.3480 -0.0678  0.2908
 4034SOL    HW112787   3.442   4.505   1.809  1.6090 -1.6223  0.8886
 4034SOL    HW212788   3.592   4.501   1.790  1.4803  1.1846 -1.4198
 4035SOL     OW12789   2.842   6.244   1.671 -0.1875 -0.4897 -0.0310
 4035SOL    HW112790   2.797   6.244   1.755  0.0890 -0.4795  0.1182
 4035SOL    HW212791   2.818   6.327   1.630  0.0313 -0.2968  0.2294
 4036SOL     OW12792   7.102   6.287   4.804 -0.3362  0.1280 -0.1637
 4036SOL    HW112793   7.132   6.200   4.780 -0.3395  0.2128 -0.4813
 4036SOL    HW212794   7.145   6.345   4.741  0.3449  0.4458  0.5837
 4037SOL     OW12795   7.394   2.506   5.949 -0.6222 -0.3514 -0.5554
 4037SOL    HW112796   7.330   2.454   5.900  1.6606 -2.2098 -1.7552
 4037SOL    HW212797   7.446   2.442   5.997  0.3947  1.0872  0.3497
 4038SOL     OW12798   1.200   4.760   1.488  0.3266 -0.3506  0.1513
 4038SOL    HW112799   1.176   4.805   1.569 -0.6416 -0.6387  0.0384
 4038SOL    HW212800   1.288   4.791   1.468 -0.0049  0.8738  0.5139
 4039SOL     OW12801   5.390   3.782   7.052  0.1816  0.4633 -0.0857
 4039SOL    HW112802   5.402   3.689   7.073 -0.0192  0.6571  0.9397
 4039SOL    HW212803   5.338   3.781   6.971 -0.2655 -0.3220  0.1921
 4040SOL     OW12804   0.312   6.437   4.589 -0.4981  0.2362 -0.0716
 4040SOL    HW112805   0.398   6.478   4.579 -0.7966  1.1283  0.8318
 4040SOL    HW212806   0.263   6.464   4.512  0.0041 -0.2426 -0.5700
 4041SOL     OW12807   3.538   1.172   6.896  0.0894 -0.0658  0.2282
 4041SOL    HW112808   3.536   1.116   6.974  0.4505  0.7065  0.8022
 4041SOL    HW212809   3.476   1.131   6.836  0.5820 -1.2747  0.5028
 4042SOL     OW12810   6.573   4.362   0.960 -0.0023 -0.1654  0.1598
 4042SOL    HW112811   6.540   4.278   0.991  1.7015 -1.6100 -1.6745
 4042SOL    HW212812   6.667   4.350   0.952  0.5661  2.5646  1.5888
 4043SOL     OW12813   5.654   1.631   4.924 -0.0664  0.1457 -0.8198
 4043SOL    HW112814   5.739   1.585   4.925  0.3853  0.9431 -1.3519
 4043SOL    HW212815   5.641   1.659   5.015 -0.2508 -0.8497 -0.5300
 4044SOL     OW12816   3.623   2.183   0.191 -0.3155  0.1391 -0.0336
 4044SOL    HW112817   3.651   2.274   0.174 -0.0601 -0.1468 -1.3014
 4044SOL    HW212818   3.620   2.143   0.104 -1.2501 -0.8449  0.4282
 4045SOL     OW12819   3.731   4.965   3.982 -0.2467 -0.4797 -0.1382
 4045SOL    HW112820   3.765   5.033   3.924 -0.3509  0.2144  0.6013
 4045SOL    HW212821   3.807   4.909   3.999  0.8468  1.5021  2.1310
 4046SOL     OW12822   4.553   4.912   3.716 -0.2982 -0.5292 -0.2160
 4046SOL    HW112823   4.577   4.992   3.764 -0.4454  0.0598 -1.1033
 4046SOL    HW212824   4.478   4.938   3.663 -0.9615 -1.5332  0.2152
 4047SOL     OW12825   3.104   5.684   4.229  0.4133  0.2129  0.1374
 4047SOL    HW112826   3.128   5.592   4.244  0.0890  0.2692  1.0946
 4047SOL    HW212827   3.025   5.696   4.281  1.0281  1.3094  0.8559
 4048SOL     OW12828   2.173   2.827   0.518  0.0108  0.0131 -0.6590
 4048SOL    HW112829   2.162   2.740   0.480 -2.0754  0.5155 -1.3425
 4048SOL    HW212830   2.092   2.842   0.568  0.7248  1.1945  0.1988
 4049SOL     OW12831   0.630   4.678   4.261 -0.1030 -0.2315  0.7623
 4049SOL    HW112832   0.577   4.605   4.228  1.4807 -0.7008 -0.9073
 4049SOL    HW212833   0.686   4.702   4.188 -1.0961  3.2494  0.9888
 4050SOL     OW12834   4.328   4.923   4.722 -0.0486 -0.0899  0.0032
 4050SOL    HW112835   4.372   4.843   4.750 -0.5680 -0.2614  0.3499
 4050SOL    HW212836   4.348   4.987   4.791 -0.1728 -0.1118  0.0610
 4051SOL     OW12837   4.564   6.435   6.944  0.5795 -0.1475 -0.6240
 4051SOL    HW112838   4.573   6.428   7.039  2.0521 -1.8159 -0.8531
 4051SOL    HW212839   4.488   6.381   6.923 -1.2516  2.1051 -0.2214
 4052SOL     OW12840   3.771   1.151   5.857  0.3892 -0.0380 -0.0609
 4052SOL    HW112841   3.760   1.124   5.949  0.3840 -0.2593 -0.1252
 4052SOL    HW212842   3.798   1.071   5.812 -0.3031 -0.0995 -0.3851
 4053SOL     OW12843   0.229   0.060   5.819 -0.0196 -0.0249 -0.2170
 4053SOL    HW112844   0.214  -0.027   5.783  0.6299 -0.6655  0.9902
 4053SOL    HW212845   0.237   0.117   5.743  1.2868 -1.3168 -1.0979
 4054SOL     OW12846   5.129   5.757   0.754 -0.5322  0.3763 -0.6106
 4054SOL    HW112847   5.045   5.739   0.713  0.2433 -0.3350 -1.9603
 4054SOL    HW212848   5.194   5.722   0.693  0.7696  1.3123  0.1719
 4055SOL     OW12849   3.430   3.898   6.725  0.1860  0.4602 -0.1550
 4055SOL    HW112850   3.508   3.927   6.678  1.0186 -1.5933 -0.1120
 4055SOL    HW212851   3.460   3.887   6.816 -0.6175  1.3329  0.2332
 4056SOL     OW12852   5.828   6.452   0.197  0.4590 -0.7027 -0.0061
 4056SOL    HW112853   5.789   6.434   0.112  0.0506  0.1038  0.0015
 4056SOL    HW212854   5.884   6.377   0.214  0.3170 -1.0099 -0.8526
 4057SOL     OW12855   3.718   6.288   0.901 -0.0908  0.3590  0.1862
 4057SOL    HW112856   3.713   6.223   0.971  1.5921 -0.1925 -0.1419
 4057SOL    HW212857   3.803   6.330   0.914  0.5004 -0.1030 -1.7818
 4058SOL     OW12858   3.795   6.727   3.419  1.1794 -0.3120 -0.4052
 4058SOL    HW112859   3.850   6.649   3.423  0.7754 -0.5426  1.1183
 4058SOL    HW212860   3.747   6.728   3.502  0.4741  1.0462 -0.7901
 4059SOL     OW12861   3.358   7.678   3.617  0.1666  0.5403  0.8486
 4059SOL    HW112862   3.279   7.629   3.642 -0.6762 -1.0029 -3.8723
 4059SOL    HW212863   3.421   7.611   3.592  0.6407  1.7435 -1.4312
 4060SOL     OW12864   1.343   2.323   4.025  0.1104 -0.0964 -0.2647
 4060SOL    HW112865   1.407   2.275   4.078  0.2849 -0.2858 -0.6426
 4060SOL    HW212866   1.259   2.307   4.069  0.2615 -0.1916 -0.0057
 4061SOL     OW12867   3.501   5.585   2.437 -0.1171  0.2638  0.5199
 4061SOL    HW112868   3.460   5.550   2.358 -1.8088  0.0863  1.4147
 4061SOL    HW212869   3.582   5.534   2.447 -0.0743  0.0259 -0.8639
 4062SOL     OW12870   2.975   0.222   0.352 -0.4327 -0.3695 -0.5329
 4062SOL    HW112871   2.968   0.127   0.346  1.1778 -0.4787 -1.1384
 4062SOL    HW212872   3.025   0.237   0.433  1.2796 -0.1945 -1.5659
 4063SOL     OW12873   2.639   3.525   1.207  0.4613 -0.5938  0.2580
 4063SOL    HW112874   2.716   3.474   1.231 -0.5543 -1.6303  1.4332
 4063SOL    HW212875   2.585   3.464   1.155  0.9062  0.4619 -1.5354
 4064SOL     OW12876   4.510   0.000   4.741 -0.1792 -0.9357  0.5256
 4064SOL    HW112877   4.431  -0.051   4.722 -0.6587  0.3418 -1.2373
 4064SOL    HW212878   4.480   0.091   4.737  1.6396 -0.3461 -1.7623
 4065SOL     OW12879   5.288   1.943   0.981  0.2491  0.1622  0.1067
 4065SOL    HW112880   5.361   1.940   1.043  0.8095  0.3211 -0.5323
 4065SOL    HW212881   5.223   1.883   1.017  0.3217  0.6931  1.1485
 4066SOL     OW12882   4.079   5.249   1.956 -0.1748 -0.3442 -0.3013
 4066SOL    HW112883   4.011   5.295   1.907  2.9646  1.8200 -3.1125
 4066SOL    HW212884   4.126   5.197   1.890  0.8711 -1.8646  1.5118
 4067SOL     OW12885   1.073   4.910   7.452  0.2177  0.2440 -0.3895
 4067SOL    HW112886   1.027   4.972   7.395  0.0560 -0.6177 -1.2175
 4067SOL    HW212887   1.164   4.912   7.421  0.5166  1.0970  0.5031
 4068SOL     OW12888   6.400   3.688   5.622 -0.5229 -0.0855 -0.1760
 4068SOL    HW112889   6.323   3.704   5.677 -1.3742  0.1952 -1.3966
 4068SOL    HW212890   6.472   3.731   5.668 -1.3903  0.9623  0.2460
 4069SOL     OW12891   1.261   6.556   4.829 -0.1856 -0.4137  0.2835
 4069SOL    HW112892   1.295   6.477   4.873 -0.5022 -1.6529 -1.6044
 4069SOL    HW212893   1.169   6.536   4.811 -0.5536  0.8233  0.6457
 4070SOL     OW12894   2.186   1.767   4.191 -0.3095  0.2553 -0.4287
 4070SOL    HW112895   2.109   1.767   4.133 -1.3306 -0.4712  0.8854
 4070SOL    HW212896   2.199   1.859   4.213 -1.3249  0.3154 -0.0209
 4071SOL     OW12897   1.833   6.350   5.719  0.4092 -0.0809 -0.0613
 4071SOL    HW112898   1.805   6.438   5.694  0.4305 -0.3140 -0.9525
 4071SOL    HW212899   1.846   6.355   5.813 -1.6102  0.3286  0.2490
 4072SOL     OW12900   2.993   6.118   3.717  0.2789 -0.2834  0.5597
 4072SOL    HW112901   2.923   6.165   3.763 -0.5017 -1.8734  1.0386
 4072SOL    HW212902   3.065   6.182   3.712 -0.5735  0.8018  1.6033
 4073SOL     OW12903   2.834   2.557   7.387  0.4274  0.0199 -0.2177
 4073SOL    HW112904   2.820   2.554   7.481 -0.0916  1.3255 -0.2265
 4073SOL    HW212905   2.929   2.569   7.377  0.2816  1.7657  0.2251
 4074SOL     OW12906   4.979   0.500   0.405  0.3178 -0.3816  0.1328
 4074SOL    HW112907   5.001   0.527   0.316 -0.0506 -0.1771  0.1003
 4074SOL    HW212908   5.059   0.515   0.456  0.5650 -0.6151 -0.1889
 4075SOL     OW12909   5.709   1.801   3.862  0.1906 -0.2119  0.1701
 4075SOL    HW112910   5.739   1.711   3.852 -1.5602 -0.6727 -1.4848
 4075SOL    HW212911   5.637   1.810   3.800  0.7979  2.5716 -0.2919
 4076SOL     OW12912   5.769   4.564   5.010  0.2014 -0.1423 -0.3904
 4076SOL    HW112913   5.690   4.553   5.063 -0.3345 -0.5717 -1.2434
 4076SOL    HW212914   5.766   4.654   4.980  0.2215 -0.0572 -0.1377
 4077SOL     OW12915   5.393   1.083   3.753 -0.3376 -0.0085 -0.1256
 4077SOL    HW112916   5.457   1.037   3.808 -0.9049 -0.6153  0.0339
 4077SOL    HW212917   5.440   1.099   3.671  0.0140 -0.4747 -0.0222
 4078SOL     OW12918   5.506   1.651   3.106 -0.0949  0.1572 -0.0777
 4078SOL    HW112919   5.548   1.578   3.151 -0.4696 -0.7505 -1.1251
 4078SOL    HW212920   5.517   1.726   3.164  0.2672 -0.7444  1.0495
 4079SOL     OW12921   4.639   0.672   4.747 -0.4647  0.1201  0.0523
 4079SOL    HW112922   4.712   0.703   4.800 -0.2719  2.0387 -1.2432
 4079SOL    HW212923   4.680   0.623   4.676 -0.6187 -0.8101  0.5790
 4080SOL     OW12924   1.624   4.992   4.611  0.2149  0.5689 -0.4204
 4080SOL    HW112925   1.583   5.054   4.549  0.5775  0.5574 -0.6743
 4080SOL    HW212926   1.612   5.033   4.697 -2.4431 -0.5276 -0.1640
 4081SOL     OW12927   3.553   3.500   6.589  0.0187 -0.1867 -0.1151
 4081SOL    HW112928   3.463   3.532   6.587  0.4445  1.2323  1.2730
 4081SOL    HW212929   3.556   3.439   6.662  0.2346 -0.0391  0.0015
 4082SOL     OW12930   3.334   5.009   2.744 -0.4107  0.2466  0.2515
 4082SOL    HW112931   3.292   5.051   2.668 -0.4856  0.0415  0.1796
 4082SOL    HW212932   3.390   4.942   2.706  0.8727  1.2589  0.2689
 4083SOL     OW12933   6.921   7.096   6.566 -0.4550  0.0359 -0.1566
 4083SOL    HW112934   6.920   7.029   6.634  1.4987 -0.1678 -0.2795
 4083SOL    HW212935   6.849   7.072   6.507 -0.2333 -1.5563  0.1789
 4084SOL     OW12936   4.372   3.811   4.865 -0.4093 -0.0594 -0.6356
 4084SOL    HW112937   4.360   3.905   4.853  0.0330  0.1062  0.1508
 4084SOL    HW212938   4.354   3.773   4.779 -1.6877  0.6341 -0.6927
 4085SOL     OW12939   3.351   2.054   2.393  0.3288  0.4299 -0.1700
 4085SOL    HW112940   3.429   2.110   2.396  0.8026 -0.2382  0.2934
 4085SOL    HW212941   3.289   2.097   2.452  0.3883  0.8935 -0.4349
 4086SOL     OW12942   5.723   5.640   0.113  0.5667 -0.4428 -0.3434
 4086SOL    HW112943   5.769   5.657   0.195  1.7167 -0.9231 -0.8794
 4086SOL    HW212944   5.655   5.708   0.110 -1.4697 -2.1348  2.3966
 4087SOL     OW12945   6.704   1.030   0.461  0.0536 -0.1560  0.4280
 4087SOL    HW112946   6.614   1.027   0.493 -0.5828 -1.1642 -1.3157
 4087SOL    HW212947   6.738   0.943   0.477  1.0219  0.4514  1.8070
 4088SOL     OW12948   6.552   2.269   0.994  0.6223 -0.0032  0.6302
 4088SOL    HW112949   6.601   2.349   0.974 -0.5234  0.5442 -0.0819
 4088SOL    HW212950   6.520   2.239   0.909 -0.8894  0.0612  1.1573
 4089SOL     OW12951   1.383   3.251   3.984  0.6277  0.4302 -0.5045
 4089SOL    HW112952   1.416   3.294   3.905  0.1937 -1.4959 -1.8104
 4089SOL    HW212953   1.329   3.179   3.951  2.4027 -1.9805  1.5132
 4090SOL     OW12954   2.787   1.596   1.666 -0.3501  0.2477  0.2917
 4090SOL    HW112955   2.754   1.651   1.738 -1.3802  0.4973 -0.3426
 4090SOL    HW212956   2.761   1.643   1.587 -0.4899 -0.7396 -0.2592
 4091SOL     OW12957   2.842   0.803   4.836 -0.0311  0.2212  0.6637
 4091SOL    HW112958   2.843   0.772   4.926 -1.7531  0.8531  0.9315
 4091SOL    HW212959   2.921   0.766   4.797  0.3600 -0.6573  2.2211
 4092SOL     OW12960   2.242   5.134   2.074  0.3900 -0.0459  0.3178
 4092SOL    HW112961   2.180   5.083   2.021 -0.4955  0.6699  0.6313
 4092SOL    HW212962   2.327   5.117   2.034 -0.0258 -0.8893 -0.2590
 4093SOL     OW12963   5.714   5.108   1.508  0.1067  0.4001  0.2919
 4093SOL    HW112964   5.662   5.054   1.567 -4.2588  0.8650 -2.6423
 4093SOL    HW212965   5.735   5.051   1.434  2.7070  0.6744  0.7004
 4094SOL     OW12966   4.004   6.011   4.085  0.4426 -0.0017  0.3884
 4094SOL    HW112967   3.964   5.957   4.152 -0.1298  0.7705  0.6840
 4094SOL    HW212968   3.965   5.981   4.003  0.7815 -0.6201  0.4527
 4095SOL     OW12969   3.007   0.476   5.070 -0.0019 -0.5116  0.3442
 4095SOL    HW112970   2.913   0.471   5.082 -0.1405  0.3130 -0.3684
 4095SOL    HW212971   3.019   0.497   4.978  0.8059  1.3209  0.8257
 4096SOL     OW12972   4.901   5.847   1.208 -0.5427 -0.0995 -0.2338
 4096SOL    HW112973   4.826   5.787   1.204  1.3264 -2.6043 -0.2444
 4096SOL    HW212974   4.941   5.840   1.121  0.5731 -0.0514  0.2627
 4097SOL     OW12975   2.049   6.066   6.481  0.0318 -0.5873 -0.4703
 4097SOL    HW112976   2.063   6.139   6.540  1.1171 -1.3743  0.2802
 4097SOL    HW212977   2.113   6.000   6.507  0.5478 -0.9805 -2.5062
 4098SOL     OW12978   4.125   6.088   7.417  0.3190 -0.0404  0.2576
 4098SOL    HW112979   4.098   6.070   7.327  1.6067 -0.3938 -0.0810
 4098SOL    HW212980   4.219   6.067   7.418  0.4394  0.5043  1.5366
 4099SOL     OW12981   2.174   7.599   2.210 -0.0407 -0.3158  0.1377
 4099SOL    HW112982   2.236   7.635   2.147  0.4042 -3.8025 -1.6161
 4099SOL    HW212983   2.227   7.573   2.285 -0.0383  0.3978  0.3969
 4100SOL     OW12984   4.080   1.885   2.068 -0.0054 -0.1324 -0.0762
 4100SOL    HW112985   3.998   1.839   2.085 -0.1133  0.0582 -0.0727
 4100SOL    HW212986   4.077   1.908   1.975  0.4364 -0.8848 -0.2858
 4101SOL     OW12987   2.868   2.878   6.939 -0.3486 -0.7370 -0.3255
 4101SOL    HW112988   2.924   2.956   6.935 -1.7676  0.6143  2.6504
 4101SOL    HW212989   2.850   2.857   6.847  2.5382  0.5570 -1.3029
 4102SOL     OW12990   4.184   1.009   0.794 -0.4516  0.3420 -0.2152
 4102SOL    HW112991   4.132   1.073   0.842 -0.7254 -0.6116  0.8163
 4102SOL    HW212992   4.234   0.963   0.862 -1.8214 -1.9464 -0.6333
 4103SOL     OW12993   7.240   6.177   5.095  0.2301 -0.1473  0.4704
 4103SOL    HW112994   7.287   6.133   5.166 -0.1305 -0.3278  0.6010
 4103SOL    HW212995   7.232   6.111   5.026  2.4989  0.6623 -0.6541
 4104SOL     OW12996   6.965   2.375   6.564 -0.4223 -0.0291 -0.1699
 4104SOL    HW112997   6.929   2.352   6.478  0.9620  0.1136 -0.8123
 4104SOL    HW212998   7.005   2.460   6.551  3.1250 -1.5718 -0.4711
 4105SOL     OW12999   2.652   0.543   7.214  0.4851 -0.6150  0.0148
 4105SOL    HW113000   2.604   0.617   7.177 -0.8696 -0.5487  1.8077
 4105SOL    HW213001   2.735   0.542   7.165 -0.1655  1.0104 -1.2149
 4106SOL     OW13002   5.801   0.662   7.275 -0.5839  0.0956 -0.1258
 4106SOL    HW113003   5.727   0.602   7.262 -0.4721 -0.1966  0.5902
 4106SOL    HW213004   5.878   0.608   7.259 -0.4868  0.0940  0.3613
 4107SOL     OW13005   3.115   5.845   0.520  0.3430 -0.0323 -0.4972
 4107SOL    HW113006   3.107   5.827   0.427  2.0425 -2.5421 -0.2571
 4107SOL    HW213007   3.088   5.763   0.563 -0.1021  0.9615  1.2257
 4108SOL     OW13008   1.496   7.114   4.104 -0.0296  0.1664  0.2044
 4108SOL    HW113009   1.482   7.152   4.017 -2.0767 -2.2977 -0.6542
 4108SOL    HW213010   1.408   7.113   4.143  0.7153  0.3658  1.9553
 4109SOL     OW13011   3.154   5.636   1.140 -0.5220  0.3928 -0.5692
 4109SOL    HW113012   3.176   5.612   1.231 -2.1890  1.8550  0.2663
 4109SOL    HW213013   3.189   5.564   1.088  1.7065  0.1623  1.0787
 4110SOL     OW13014   5.520   7.667   4.437  0.0132 -0.3452  0.5387
 4110SOL    HW113015   5.594   7.698   4.490  1.6162 -1.1883 -1.0879
 4110SOL    HW213016   5.498   7.743   4.382 -0.0225 -0.2313  0.7096
 4111SOL     OW13017   0.284   3.433   6.239  0.3914  0.2918  0.2656
 4111SOL    HW113018   0.363   3.381   6.244 -1.0808 -2.0456  0.6204
 4111SOL    HW213019   0.236   3.397   6.164 -0.9450  0.7589  0.8648
 4112SOL     OW13020   6.420   5.011   6.432  0.8756  0.2388  0.6044
 4112SOL    HW113021   6.441   5.025   6.525 -2.3118 -0.7165  1.5841
 4112SOL    HW213022   6.410   4.916   6.424  0.0147  0.4049 -0.4442
 4113SOL     OW13023   0.848   6.555   0.582  0.2672  0.4541 -0.1860
 4113SOL    HW113024   0.847   6.651   0.590 -0.4125  0.5272 -0.9970
 4113SOL    HW213025   0.939   6.531   0.598  0.3278  1.1681  0.6691
 4114SOL     OW13026   6.173   2.093   2.961 -0.5459 -0.1640 -0.4617
 4114SOL    HW113027   6.101   2.143   3.000 -0.9468  1.6851 -3.2539
 4114SOL    HW213028   6.246   2.155   2.958  0.2638 -1.0840 -0.3384
 4115SOL     OW13029   0.362   6.363   2.683  0.1151 -0.1232 -0.1429
 4115SOL    HW113030   0.371   6.285   2.739  0.1727 -0.7847 -1.0577
 4115SOL    HW213031   0.269   6.385   2.687  0.1903  0.0949  0.5488
 4116SOL     OW13032   6.447   7.541   4.758  0.0974 -0.2096  0.0042
 4116SOL    HW113033   6.377   7.584   4.806  0.9221  1.5277 -0.2799
 4116SOL    HW213034   6.415   7.534   4.668 -0.0494 -0.2395  0.0586
 4117SOL     OW13035   7.007   5.451   5.694 -0.3658 -0.3480 -0.6732
 4117SOL    HW113036   7.044   5.531   5.731 -0.2152 -1.3922  1.6248
 4117SOL    HW213037   7.083   5.397   5.673 -0.4782 -1.1821  0.9436
 4118SOL     OW13038   2.410   5.266   5.534 -0.4585  0.0859  0.2229
 4118SOL    HW113039   2.421   5.289   5.627  0.0265  1.5940 -0.1723
 4118SOL    HW213040   2.316   5.263   5.521 -0.5333 -0.1773  0.7663
 4119SOL     OW13041   0.162   1.437   4.915  0.2049  0.3157  0.4975
 4119SOL    HW113042   0.150   1.367   4.851 -0.7731  1.0046 -0.1023
 4119SOL    HW213043   0.155   1.393   5.000 -1.4803 -0.1812  0.1413
 4120SOL     OW13044   6.096   6.279   1.078  0.1734  0.3527  0.1190
 4120SOL    HW113045   6.142   6.282   0.995  1.9182 -0.7938  0.9703
 4120SOL    HW213046   6.101   6.187   1.105 -0.3964  0.6846  1.4494
 4121SOL     OW13047   4.071   3.720   0.523 -0.1370  0.1351  0.0626
 4121SOL    HW113048   4.032   3.661   0.587  0.6654 -0.0330  0.4136
 4121SOL    HW213049   4.000   3.779   0.498 -0.5110  0.1090  1.0050
 4122SOL     OW13050   3.699   7.488   1.907  0.1133 -0.7907 -0.2607
 4122SOL    HW113051   3.628   7.439   1.866  0.2196 -1.1541 -0.0147
 4122SOL    HW213052   3.655   7.560   1.952 -0.0910 -0.9509 -0.1997
 4123SOL     OW13053   3.923   4.644   5.140  0.2732 -0.0740  0.2106
 4123SOL    HW113054   3.831   4.654   5.167 -0.2149 -1.7202 -0.7468
 4123SOL    HW213055   3.924   4.673   5.049  0.4868 -0.9474 -0.0733
 4124SOL     OW13056   7.096   7.079   5.804 -0.2039 -0.2294  0.2731
 4124SOL    HW113057   7.181   7.079   5.759  0.1570 -0.0184  0.9361
 4124SOL    HW213058   7.037   7.036   5.743  0.2239  0.2354 -0.4921
 4125SOL     OW13059   5.329   3.717   7.472  0.5587  0.1218  0.3945
 4125SOL    HW113060   5.278   3.748   7.397  1.6792  0.3210 -0.3168
 4125SOL    HW213061   5.286   3.755   7.548 -0.5155  0.0439 -0.1573
 4126SOL     OW13062   5.654   4.429   1.227 -0.4650  0.4837 -0.7680
 4126SOL    HW113063   5.574   4.379   1.211  0.0781 -1.1771  1.2727
 4126SOL    HW213064   5.636   4.515   1.191 -1.9696 -0.7359 -3.2086
 4127SOL     OW13065   1.596   3.680   7.505  0.3674  0.1270  0.1257
 4127SOL    HW113066   1.574   3.672   7.412 -2.1601 -0.5096  0.7049
 4127SOL    HW213067   1.664   3.614   7.519  2.2027  1.5212 -1.6014
 4128SOL     OW13068   1.332   7.618   7.570 -0.5817  0.4926 -0.1914
 4128SOL    HW113069   1.425   7.595   7.560 -0.2800  0.8527  1.5644
 4128SOL    HW213070   1.304   7.640   7.481  0.4033 -1.7452 -1.1554
 4129SOL     OW13071   6.680   2.422   5.533  0.1165 -0.0372 -0.3104
 4129SOL    HW113072   6.734   2.391   5.459 -0.6702 -0.7442 -0.6021
 4129SOL    HW213073   6.597   2.448   5.493  0.0519  0.5841  0.2021
 4130SOL     OW13074   4.235   2.322   2.584 -0.1843 -0.2266  0.2181
 4130SOL    HW113075   4.194   2.398   2.541  1.3531  1.4795  1.5827
 4130SOL    HW213076   4.318   2.311   2.539 -0.1003 -0.6701  0.4820
 4131SOL     OW13077   1.485   0.495   3.673  0.4653 -0.7151  0.1228
 4131SOL    HW113078   1.488   0.564   3.740  1.4944 -0.1871 -0.4470
 4131SOL    HW213079   1.552   0.433   3.699 -0.4679 -1.5368  0.6388
 4132SOL     OW13080   7.232   6.571   3.424  0.9190  0.2806 -0.1977
 4132SOL    HW113081   7.167   6.615   3.369  1.3428 -1.0515 -1.8437
 4132SOL    HW213082   7.270   6.641   3.477 -0.4371  1.4043 -0.6452
 4133SOL     OW13083   4.623   3.839   0.846  0.2047  0.5963  1.4085
 4133SOL    HW113084   4.606   3.772   0.780 -2.4820  2.2062  0.3102
 4133SOL    HW213085   4.611   3.795   0.930 -0.1703 -0.5950  0.7496
 4134SOL     OW13086   0.579   5.571   7.655  0.8460 -0.2276  0.0079
 4134SOL    HW113087   0.535   5.640   7.606  1.1632  0.8111  1.1282
 4134SOL    HW213088   0.658   5.612   7.691  0.3541 -0.7584  1.8337
 4135SOL     OW13089   0.327   0.516   6.006 -0.0680  0.1922  0.0662
 4135SOL    HW113090   0.421   0.518   6.023 -0.1893  2.5364  0.8153
 4135SOL    HW213091   0.291   0.462   6.076  0.6316  0.0107  0.2911
 4136SOL     OW13092   6.440   3.240   3.051 -0.5091  0.2767  0.1757
 4136SOL    HW113093   6.347   3.257   3.043 -0.6654 -1.1014 -1.4027
 4136SOL    HW213094   6.449   3.146   3.037  0.8372 -0.1437  3.0996
 4137SOL     OW13095   5.068   3.356   7.678 -0.2980 -0.5602 -0.3011
 4137SOL    HW113096   5.131   3.318   7.739 -0.4624 -1.0233 -0.4208
 4137SOL    HW213097   5.008   3.406   7.735  0.1627 -0.1212 -0.1875
 4138SOL     OW13098   4.730   1.636   1.636  0.3718  0.0882  0.3931
 4138SOL    HW113099   4.677   1.669   1.564  0.1949  0.3034  0.6205
 4138SOL    HW213100   4.671   1.638   1.712  0.2841 -0.9382  0.3769
 4139SOL     OW13101   5.812   0.656   0.445  0.1815  0.6068  0.3152
 4139SOL    HW113102   5.810   0.582   0.384 -0.5456  2.4691 -2.0431
 4139SOL    HW213103   5.903   0.660   0.474  0.1615 -1.4254  0.8486
 4140SOL     OW13104   6.069   4.090   0.824 -0.6056  0.0674 -0.1128
 4140SOL    HW113105   6.027   4.004   0.824  0.1910 -0.3295  0.4376
 4140SOL    HW213106   6.123   4.091   0.745  0.1835 -0.3453  0.4111
 4141SOL     OW13107   3.160   5.370   2.554  0.5763 -0.3628 -0.2509
 4141SOL    HW113108   3.155   5.381   2.459 -0.5495 -0.1313 -0.1763
 4141SOL    HW213109   3.231   5.429   2.582 -1.0396  1.8520 -0.6036
 4142SOL     OW13110   2.746   4.016   6.096  0.6886  0.0067  0.0815
 4142SOL    HW113111   2.833   4.019   6.057  0.3542  1.6063 -0.6672
 4142SOL    HW213112   2.761   4.023   6.190  1.3891 -0.5659  0.0222
 4143SOL     OW13113   2.720   1.938   4.223  0.0015 -0.0145 -0.0377
 4143SOL    HW113114   2.790   1.874   4.210  0.1335  0.2640 -0.7372
 4143SOL    HW213115   2.656   1.892   4.277  0.6560 -0.3186  0.4887
 4144SOL     OW13116   0.786   5.765   0.101 -0.4159  0.1997  0.5650
 4144SOL    HW113117   0.856   5.821   0.067 -1.2552  1.8136  1.4182
 4144SOL    HW213118   0.818   5.676   0.086  2.2861  0.8648  1.7730
 4145SOL     OW13119   7.130   6.195   6.801 -0.0157  0.2882 -0.0592
 4145SOL    HW113120   7.134   6.147   6.718  0.4582 -0.7985  0.5855
 4145SOL    HW213121   7.039   6.223   6.808  0.2591  1.8945 -1.7584
 4146SOL     OW13122   5.475   3.456   5.019 -0.1610 -0.2438 -0.3186
 4146SOL    HW113123   5.525   3.383   5.057  0.3704  0.4554  0.3664
 4146SOL    HW213124   5.397   3.415   4.982  0.5937 -1.2776 -0.8089
 4147SOL     OW13125   2.508   3.803   6.072  0.0279 -0.0371  0.1867
 4147SOL    HW113126   2.585   3.810   6.015 -0.3512 -1.3239 -0.5176
 4147SOL    HW213127   2.540   3.826   6.159  1.2961 -0.8628 -0.0418
 4148SOL     OW13128   2.734   5.224   0.082  0.5529 -0.5533 -0.0202
 4148SOL    HW113129   2.779   5.149   0.119 -0.0928 -1.2932 -0.7059
 4148SOL    HW213130   2.659   5.187   0.037  1.0701  0.3355 -1.6959
 4149SOL     OW13131   0.362   7.717   7.759 -1.0050  0.3239 -0.0254
 4149SOL    HW113132   0.301   7.667   7.813 -1.4319  0.9255  0.0690
 4149SOL    HW213133   0.309   7.790   7.725 -0.6393  0.1830 -0.9219
 4150SOL     OW13134   6.811   1.766   6.627 -0.0770 -0.1793  0.2498
 4150SOL    HW113135   6.725   1.799   6.652  0.5170  0.6265  1.2845
 4150SOL    HW213136   6.851   1.838   6.578 -0.5373 -1.0973 -1.5926
 4151SOL     OW13137   0.501   4.383   1.106  0.1303 -0.3248  0.1932
 4151SOL    HW113138   0.468   4.437   1.034 -0.4560 -0.4919  0.3321
 4151SOL    HW213139   0.462   4.297   1.092 -0.0293 -0.3456  0.7385
 4152SOL     OW13140   5.673   7.545   2.709 -0.1514 -0.3824 -0.4020
 4152SOL    HW113141   5.754   7.505   2.678 -1.4881 -2.0602 -1.9782
 4152SOL    HW213142   5.692   7.638   2.715  1.6961 -0.6661 -1.3553
 4153SOL     OW13143   6.064   5.520   2.115  0.2691 -0.5808  0.0398
 4153SOL    HW113144   6.109   5.452   2.165  1.1231  0.2157  0.3885
 4153SOL    HW213145   6.046   5.479   2.030  1.9572 -0.8455 -0.2304
 4154SOL     OW13146   4.087   3.252   5.321 -0.7629 -0.3764  0.0970
 4154SOL    HW113147   4.164   3.196   5.311 -0.2092 -0.0379  2.0651
 4154SOL    HW213148   4.101   3.322   5.257  1.3894  0.5103  1.4324
 4155SOL     OW13149   1.837   5.561   0.919  0.5978 -0.2694 -0.1184
 4155SOL    HW113150   1.856   5.574   0.826  0.5573 -0.7407 -0.1932
 4155SOL    HW213151   1.889   5.628   0.964 -1.3849  1.7313 -0.6354
 4156SOL     OW13152   3.531   4.158   1.511 -0.3218 -0.2153 -0.0242
 4156SOL    HW113153   3.447   4.161   1.465 -0.2805 -0.1496 -0.0960
 4156SOL    HW213154   3.577   4.085   1.469 -0.1027  0.1360 -0.4032
 4157SOL     OW13155   4.845   0.688   5.680  0.6829  0.1450 -0.0139
 4157SOL    HW113156   4.787   0.662   5.751  0.8060 -1.3772 -0.4353
 4157SOL    HW213157   4.795   0.669   5.600  1.1945  0.2205 -0.3571
 4158SOL     OW13158   1.657   6.565   3.108  0.6029  0.1040 -0.5133
 4158SOL    HW113159   1.673   6.641   3.052  0.0909 -0.8775 -2.0835
 4158SOL    HW213160   1.568   6.537   3.085  0.3059 -0.2436  0.9502
 4159SOL     OW13161   5.293   3.110   2.615  0.0009 -0.1828  0.5282
 4159SOL    HW113162   5.318   3.180   2.554  0.9052  1.5326  2.7396
 4159SOL    HW213163   5.253   3.156   2.689 -2.5586 -2.3193  0.5880
 4160SOL     OW13164   3.935   6.412   6.596 -0.7059 -0.1293 -0.4937
 4160SOL    HW113165   3.880   6.435   6.521 -2.9577 -0.5056  0.9210
 4160SOL    HW213166   3.978   6.493   6.621 -1.5390  0.4707 -0.9696
 4161SOL     OW13167   1.828   5.125   1.575  0.2596 -0.0703 -0.2258
 4161SOL    HW113168   1.825   5.211   1.532 -0.0130  1.0596  1.9062
 4161SOL    HW213169   1.737   5.103   1.590  0.2972 -1.1324 -1.4426
 4162SOL     OW13170   1.369   5.776   7.731  0.0302  0.1354  0.0018
 4162SOL    HW113171   1.320   5.763   7.812 -1.6302  0.3975 -0.9184
 4162SOL    HW213172   1.319   5.728   7.665  1.1935  0.1675 -0.9273
 4163SOL     OW13173   0.868   2.806   0.981  0.1233  0.5144  0.7883
 4163SOL    HW113174   0.785   2.768   1.011  0.6723 -2.3166 -0.9385
 4163SOL    HW213175   0.850   2.837   0.892  0.7316  0.6536  0.7090
 4164SOL     OW13176   2.763   0.537   5.796 -0.0476  0.9352 -0.1959
 4164SOL    HW113177   2.793   0.486   5.872 -0.6902 -1.2291 -1.3117
 4164SOL    HW213178   2.801   0.491   5.721 -1.3972  1.5811 -1.3050
 4165SOL     OW13179   7.241   5.065   3.834 -0.3867  0.1633 -0.4266
 4165SOL    HW113180   7.316   5.042   3.778  1.1982  0.1999  1.5685
 4165SOL    HW213181   7.165   5.037   3.784  1.0744 -2.6180 -1.3286
 4166SOL     OW13182   7.308   6.141   4.077  0.2517 -0.1371 -0.5996
 4166SOL    HW113183   7.333   6.198   4.005 -1.5163  2.2764  0.5745
 4166SOL    HW213184   7.219   6.168   4.100 -0.0458 -2.2883  1.0953
 4167SOL     OW13185   3.450   2.389   4.526 -0.3569 -0.0449  0.1661
 4167SOL    HW113186   3.416   2.312   4.573  1.9030 -1.4464 -0.3654
 4167SOL    HW213187   3.512   2.429   4.587 -0.5628  0.6290 -0.0545
 4168SOL     OW13188   1.610   4.657   7.368 -0.6412  0.6954 -0.2670
 4168SOL    HW113189   1.516   4.647   7.355 -0.7327 -1.3244  1.4421
 4168SOL    HW213190   1.618   4.687   7.459  0.3751 -1.1768  0.3079
 4169SOL     OW13191   1.052   0.670   5.601 -0.0846 -0.4232  0.0746
 4169SOL    HW113192   0.981   0.698   5.659 -1.1586  0.1471 -1.4346
 4169SOL    HW213193   1.036   0.718   5.520  0.3243 -2.4939 -1.2942
 4170SOL     OW13194   6.719   4.722   3.427 -0.5896  0.1844  0.0392
 4170SOL    HW113195   6.756   4.680   3.505 -1.4310 -0.5964  0.0256
 4170SOL    HW213196   6.749   4.668   3.354 -0.8659  0.1739 -0.0657
 4171SOL     OW13197   2.110   2.998   0.818 -0.0643  0.1287 -0.0793
 4171SOL    HW113198   2.153   2.912   0.825  1.5383  0.8135 -0.8319
 4171SOL    HW213199   2.145   3.048   0.892 -2.7383 -0.5023  1.7356
 4172SOL     OW13200   4.211   4.906   4.082  0.0993  0.1334  0.0290
 4172SOL    HW113201   4.249   4.949   4.159  0.3177  0.4283 -0.2405
 4172SOL    HW213202   4.282   4.906   4.017 -0.1695  0.1358 -0.2689
 4173SOL     OW13203   2.229   7.603   4.219 -0.2168 -0.1665  0.4316
 4173SOL    HW113204   2.283   7.659   4.275 -1.2511 -0.6077  1.9268
 4173SOL    HW213205   2.282   7.591   4.140  0.4554  2.0796  0.4638
 4174SOL     OW13206   2.292   5.802   3.424  0.1173  0.1434  0.1654
 4174SOL    HW113207   2.201   5.811   3.453 -0.0479  0.2708 -0.3927
 4174SOL    HW213208   2.297   5.713   3.389  0.3589 -0.0657  0.7234
 4175SOL     OW13209   3.613   1.463   4.823  0.4134  0.7577 -0.4855
 4175SOL    HW113210   3.705   1.474   4.849 -0.0033 -0.2499  1.6651
 4175SOL    HW213211   3.616   1.393   4.758  0.8815 -3.2988  3.3798
 4176SOL     OW13212   3.059   4.658   5.406  0.4877  0.3441  0.0877
 4176SOL    HW113213   3.068   4.641   5.500 -0.6673  0.7762  0.3028
 4176SOL    HW213214   3.078   4.752   5.397  1.6246  0.0851 -0.2766
 4177SOL     OW13215   6.553   6.444   7.348 -0.0216 -0.0197  0.2036
 4177SOL    HW113216   6.463   6.478   7.346 -0.3497 -0.8531  0.5548
 4177SOL    HW213217   6.588   6.473   7.432 -0.3488 -0.6531  0.5639
 4178SOL     OW13218   1.831   7.070   5.739 -0.0617 -0.0811  0.0819
 4178SOL    HW113219   1.871   7.154   5.720 -0.3391  0.0718  0.1787
 4178SOL    HW213220   1.769   7.087   5.809  0.0883 -0.4195  0.3010
 4179SOL     OW13221   4.729   2.780   4.317  0.1407  0.0981 -0.5998
 4179SOL    HW113222   4.712   2.830   4.237 -0.9078  0.8819  0.0858
 4179SOL    HW213223   4.689   2.695   4.300  1.4555 -0.3607 -1.5610
 4180SOL     OW13224   4.364   4.668   1.086  0.3414 -0.0875 -0.3557
 4180SOL    HW113225   4.336   4.683   0.996  0.6626 -0.2332 -0.4818
 4180SOL    HW213226   4.286   4.632   1.130 -0.3691  1.6607 -0.1021
 4181SOL     OW13227   1.081   0.426   7.700  0.2807 -0.4858  0.5390
 4181SOL    HW113228   0.992   0.410   7.669  0.3079 -0.4304  0.4302
 4181SOL    HW213229   1.069   0.476   7.781  0.2296  1.4937 -0.6144
 4182SOL     OW13230   6.589   3.941   7.296 -0.0370  0.5024 -0.0488
 4182SOL    HW113231   6.649   3.962   7.224  1.3959  0.7622  1.1759
 4182SOL    HW213232   6.585   4.022   7.348  0.5410 -0.2796  1.2467
 4183SOL     OW13233   4.988   0.456   6.019  0.4417 -0.7070  0.6233
 4183SOL    HW113234   5.010   0.382   5.963  0.7983 -0.4368  0.3998
 4183SOL    HW213235   5.048   0.525   5.992  0.0720 -0.3157  0.7871
 4184SOL     OW13236   7.463   6.588   2.893  0.1567 -0.3344  0.4847
 4184SOL    HW113237   7.413   6.622   2.967 -0.7811  2.6955 -1.3293
 4184SOL    HW213238   7.546   6.636   2.897  2.1995 -3.6900  2.1821
 4185SOL     OW13239   0.767   5.920   0.888  0.2763  0.3776  0.5935
 4185SOL    HW113240   0.765   5.869   0.969  1.5282  0.5928  0.7809
 4185SOL    HW213241   0.721   6.001   0.909  0.3240  0.2997  0.9953
 4186SOL     OW13242   5.360   5.346   3.040 -0.7380  0.1676 -0.1760
 4186SOL    HW113243   5.281   5.301   3.069 -1.3059  1.2962  0.0850
 4186SOL    HW213244   5.428   5.278   3.042 -1.4717 -0.5763  0.5821
 4187SOL     OW13245   2.647   2.384   6.595 -0.0142  0.3828 -0.3169
 4187SOL    HW113246   2.644   2.475   6.565  0.0319  0.0303 -1.4380
 4187SOL    HW213247   2.633   2.332   6.515 -0.4562 -0.5864  0.3734
 4188SOL     OW13248   6.010   2.860   2.685 -0.1239 -0.0538  0.0485
 4188SOL    HW113249   6.033   2.767   2.692 -1.0002 -0.2010  1.3900
 4188SOL    HW213250   5.946   2.863   2.615 -1.3024 -0.7521  1.0433
 4189SOL     OW13251   3.504   4.046   2.093  0.1953 -0.3165 -0.2842
 4189SOL    HW113252   3.419   4.071   2.128  0.2876 -0.3359 -0.0446
 4189SOL    HW213253   3.493   4.051   1.998  0.1913  0.5697 -0.2485
 4190SOL     OW13254   6.657   7.659   0.771 -0.3052 -0.2553 -0.3021
 4190SOL    HW113255   6.605   7.670   0.850 -1.4106  2.5109 -1.2794
 4190SOL    HW213256   6.655   7.565   0.754 -1.9645 -0.6479  1.6758
 4191SOL     OW13257   5.193   6.313   5.479  0.4302 -0.4444 -0.1184
 4191SOL    HW113258   5.176   6.377   5.548 -0.4128 -1.7754  0.9518
 4191SOL    HW213259   5.121   6.323   5.417 -0.0266 -0.7523  0.3590
 4192SOL     OW13260   7.083   6.761   0.733  0.0615 -0.0519  0.2774
 4192SOL    HW113261   7.034   6.680   0.720 -2.5091  1.4128  0.0830
 4192SOL    HW213262   7.016   6.825   0.758  1.7631  2.3289 -0.9060
 4193SOL     OW13263   3.733   4.869   1.208 -0.0251  0.2161 -0.3366
 4193SOL    HW113264   3.683   4.813   1.148  0.6851 -0.3706 -0.3919
 4193SOL    HW213265   3.691   4.955   1.200 -0.5598 -0.0859 -0.9338
 4194SOL     OW13266   3.977   5.891   2.795 -0.3154  0.2460  0.1406
 4194SOL    HW113267   3.885   5.907   2.817 -0.4053 -0.1838  0.0918
 4194SOL    HW213268   4.008   5.973   2.757 -1.2298 -0.1920 -1.6922
 4195SOL     OW13269   0.655   2.258   6.007  0.4057  0.6375  0.2122
 4195SOL    HW113270   0.715   2.273   6.080  0.4282  1.3356  0.0560
 4195SOL    HW213271   0.648   2.162   6.001  0.4745  0.5716  1.0591
 4196SOL     OW13272   1.772   2.764   5.956 -0.2162  0.5529  0.3738
 4196SOL    HW113273   1.712   2.757   5.881 -0.9460 -0.0035  0.9890
 4196SOL    HW213274   1.855   2.792   5.918 -0.4175 -0.2616 -0.7193
 4197SOL     OW13275   2.909   6.473   2.474  0.5351  0.4810 -0.0346
 4197SOL    HW113276   2.940   6.438   2.557 -0.5657  0.5990  0.4488
 4197SOL    HW213277   2.886   6.564   2.494  0.8130  0.6868 -0.6191
 4198SOL     OW13278   0.846   4.711   3.201 -0.3893  0.6018 -0.1321
 4198SOL    HW113279   0.840   4.794   3.248 -0.8486  0.9553 -0.7933
 4198SOL    HW213280   0.868   4.735   3.111  0.3128 -0.0529 -0.1455
 4199SOL     OW13281   0.825   6.931   4.845 -0.1062  0.2441 -0.0852
 4199SOL    HW113282   0.866   6.845   4.832 -0.7018 -0.0563  0.0193
 4199SOL    HW213283   0.897   6.993   4.834 -0.1932 -0.0605 -3.2849
 4200SOL     OW13284   0.764   6.780   5.636 -0.3652  0.4520  0.1979
 4200SOL    HW113285   0.792   6.802   5.724  2.4161  0.3172 -0.5623
 4200SOL    HW213286   0.800   6.849   5.581  1.3741 -1.4571 -1.2371
 4201SOL     OW13287   6.176   7.066   4.661  0.2818 -0.5218 -0.1777
 4201SOL    HW113288   6.080   7.064   4.665  0.1403  1.0667 -1.6220
 4201SOL    HW213289   6.204   7.032   4.746 -1.5448 -1.3508  0.1510
 4202SOL     OW13290   3.561   1.788   4.563 -0.0452  0.4584  0.3212
 4202SOL    HW113291   3.479   1.753   4.528 -0.2866 -0.0787  1.4016
 4202SOL    HW213292   3.559   1.881   4.540  0.0006  0.0585 -1.4279
 4203SOL     OW13293   0.977   5.740   5.491 -0.6095 -0.4002 -0.1121
 4203SOL    HW113294   1.026   5.658   5.486  0.3592  0.1904 -0.7071
 4203SOL    HW213295   0.967   5.768   5.400 -0.4496  0.4027  0.1095
 4204SOL     OW13296   6.062   0.621   3.552  0.0637  0.1450 -0.3104
 4204SOL    HW113297   5.987   0.606   3.495 -0.8513 -0.1229  0.9339
 4204SOL    HW213298   6.132   0.650   3.493 -0.7450 -0.4738 -1.6023
 4205SOL     OW13299   0.059   3.338   4.176  0.4333 -0.1606 -0.1017
 4205SOL    HW113300   0.022   3.414   4.133  1.5151 -1.1281 -3.0141
 4205SOL    HW213301   0.105   3.373   4.252 -0.4341  1.8640 -0.4588
 4206SOL     OW13302   0.202   5.726   7.292 -0.5000 -0.4606  0.0359
 4206SOL    HW113303   0.124   5.761   7.335  0.0870 -1.4352  2.0716
 4206SOL    HW213304   0.192   5.749   7.200 -3.2612 -0.6820  0.1900
 4207SOL     OW13305   3.199   1.345   2.706  0.0826 -1.1877 -0.9812
 4207SOL    HW113306   3.269   1.286   2.734  2.6016  1.8810 -0.1703
 4207SOL    HW213307   3.118   1.300   2.730  1.8547 -2.7026  3.0822
 4208SOL     OW13308   7.381   4.403   7.363  0.1680 -0.0600 -0.0120
 4208SOL    HW113309   7.430   4.330   7.400 -0.1275  0.1498  0.8199
 4208SOL    HW213310   7.315   4.363   7.307 -0.8470 -0.5261  1.4538
 4209SOL     OW13311   1.281   3.110   6.735  0.4816  0.0764 -0.0581
 4209SOL    HW113312   1.335   3.087   6.659  1.7018 -1.1857  1.1262
 4209SOL    HW213313   1.194   3.129   6.699  1.3048  0.6386 -1.8632
 4210SOL     OW13314   6.889   4.971   3.439  0.3942  0.1321 -0.0168
 4210SOL    HW113315   6.979   4.961   3.406  0.7285  0.8446  0.6510
 4210SOL    HW213316   6.900   4.987   3.533 -0.4034  0.7923 -0.0277
 4211SOL     OW13317   0.320   3.317   5.652  0.0449 -0.3227 -0.7113
 4211SOL    HW113318   0.317   3.380   5.724 -1.2169 -1.4592  0.2778
 4211SOL    HW213319   0.411   3.288   5.649  0.0373 -0.5327  0.6912
 4212SOL     OW13320   7.326   0.538   4.268  0.0874 -0.1322  0.0582
 4212SOL    HW113321   7.236   0.505   4.278 -1.0365  2.3613 -1.1231
 4212SOL    HW213322   7.375   0.493   4.337 -2.3038 -0.7286  1.4880
 4213SOL     OW13323   5.580   3.580   7.366 -0.5167  0.1017  0.1414
 4213SOL    HW113324   5.646   3.579   7.435 -0.4183 -0.5428  0.0500
 4213SOL    HW213325   5.498   3.603   7.410 -0.3338  0.3553  0.3517
 4214SOL     OW13326   7.477   4.164   2.796  0.4739 -0.5048 -0.1120
 4214SOL    HW113327   7.560   4.197   2.828  0.2284 -0.7882  0.8398
 4214SOL    HW213328   7.476   4.187   2.703  1.8109 -0.9041 -0.2452
 4215SOL     OW13329   2.252   4.159   2.225  0.3417 -0.0955 -0.2656
 4215SOL    HW113330   2.288   4.214   2.155  1.2330 -2.1321 -1.5045
 4215SOL    HW213331   2.325   4.148   2.286 -0.1920  1.0183  0.5952
 4216SOL     OW13332   2.121   1.765   1.092  0.2772 -0.4447 -0.0329
 4216SOL    HW113333   2.158   1.703   1.029  1.8510 -0.2698  0.6678
 4216SOL    HW213334   2.058   1.713   1.142 -0.9985 -0.5843 -1.7016
 4217SOL     OW13335   2.650   4.658   3.161  0.2761  0.6354 -0.0530
 4217SOL    HW113336   2.703   4.592   3.205  0.4461 -0.2268 -1.5118
 4217SOL    HW213337   2.652   4.734   3.220 -2.0692 -1.4190  2.9794
 4218SOL     OW13338   6.378   3.578   3.184 -0.1024 -0.6878 -0.6085
 4218SOL    HW113339   6.441   3.618   3.243 -0.3695 -0.8205 -0.2319
 4218SOL    HW213340   6.408   3.487   3.176 -0.5966 -0.9158  0.0642
 4219SOL     OW13341   0.060   3.192   2.061  0.0995  0.7002 -0.1071
 4219SOL    HW113342   0.010   3.193   1.980  0.4231  0.4197 -0.3155
 4219SOL    HW213343   0.066   3.099   2.084  0.5577  0.7233 -0.1118
 4220SOL     OW13344   2.562   1.303   5.404 -0.5170  0.3746  0.0500
 4220SOL    HW113345   2.517   1.219   5.392 -0.4122  0.4453 -0.8449
 4220SOL    HW213346   2.625   1.286   5.474  0.5343 -0.7209 -1.1196
 4221SOL     OW13347   0.566   2.209   4.248  0.1140  0.6455 -0.5179
 4221SOL    HW113348   0.657   2.235   4.261  0.7599 -1.4177 -0.5002
 4221SOL    HW213349   0.517   2.258   4.314  1.4855  0.4386  0.7045
 4222SOL     OW13350   4.396   5.689   1.620  0.2946  0.1483  0.3196
 4222SOL    HW113351   4.351   5.606   1.602 -2.6671  1.4939  0.8300
 4222SOL    HW213352   4.347   5.754   1.569  2.2492  1.6651  0.2639
 4223SOL     OW13353   2.895   5.108   4.493  0.1972  0.3662 -0.1806
 4223SOL    HW113354   2.939   5.026   4.518  1.3553  0.5766 -1.4167
 4223SOL    HW213355   2.848   5.087   4.413  0.5685  0.9292 -0.5498
 4224SOL     OW13356   0.254   5.450   4.915 -0.3992  0.6872 -0.0331
 4224SOL    HW113357   0.193   5.438   4.988 -1.1330  0.5295 -0.6733
 4224SOL    HW213358   0.290   5.363   4.900 -0.6141  0.6248 -0.1839
 4225SOL     OW13359   0.443   2.091   4.694  0.0953  0.2827  0.2524
 4225SOL    HW113360   0.536   2.071   4.688  0.1571  0.7539 -0.5959
 4225SOL    HW213361   0.404   2.047   4.618 -0.4306 -0.1912  0.7895
 4226SOL     OW13362   2.762   0.510   2.678  0.2592 -0.8115 -0.7827
 4226SOL    HW113363   2.739   0.472   2.763  0.9123  0.5663  0.0630
 4226SOL    HW213364   2.681   0.552   2.648  0.3673 -0.1023 -0.1353
 4227SOL     OW13365   5.040   4.810   7.650 -0.6900  0.8011  0.6358
 4227SOL    HW113366   5.008   4.721   7.635  0.4057  0.2069  1.6304
 4227SOL    HW213367   5.068   4.840   7.564  2.3532 -1.2528  0.7202
 4228SOL     OW13368   2.139   5.892   3.738 -0.1113  0.1788  0.1065
 4228SOL    HW113369   2.115   5.804   3.767 -1.6917  0.5537 -0.0042
 4228SOL    HW213370   2.105   5.899   3.649  0.8337  0.5866 -0.2406
 4229SOL     OW13371   3.324   3.806   4.527 -0.3823  0.1218  0.4840
 4229SOL    HW113372   3.273   3.871   4.480 -1.5316 -0.7433  0.5084
 4229SOL    HW213373   3.284   3.803   4.614  0.0008 -0.2346  0.6510
 4230SOL     OW13374   5.689   2.705   5.585 -0.0754 -0.0439 -0.1512
 4230SOL    HW113375   5.641   2.626   5.559  1.2751 -0.6962 -0.7909
 4230SOL    HW213376   5.716   2.744   5.502 -0.5530  0.9951  0.1720
 4231SOL     OW13377   2.838   3.473   0.021 -0.4847  0.1165  0.5214
 4231SOL    HW113378   2.766   3.416   0.046 -0.7512  0.5902  0.8574
 4231SOL    HW213379   2.843   3.466  -0.074 -3.1110  2.5316  0.0620
 4232SOL     OW13380   0.658   2.334   3.106 -0.2686 -0.1201 -0.2502
 4232SOL    HW113381   0.589   2.271   3.127 -0.4367  0.3988  0.8202
 4232SOL    HW213382   0.624   2.418   3.134  1.0640  0.0512  1.0343
 4233SOL     OW13383   2.182   5.389   6.880  0.3694  0.5098  0.3058
 4233SOL    HW113384   2.104   5.359   6.833  1.2989 -1.7169  0.0370
 4233SOL    HW213385   2.242   5.416   6.810  0.1989  1.3571  0.4724
 4234SOL     OW13386   2.578   7.470   7.279  0.0423 -0.0025 -0.1986
 4234SOL    HW113387   2.568   7.376   7.297 -0.4004 -0.0073 -0.4684
 4234SOL    HW213388   2.601   7.474   7.187 -0.6406  0.1952 -0.3626
 4235SOL     OW13389   0.973   2.298   5.708  0.3195 -0.0392  0.2491
 4235SOL    HW113390   1.046   2.358   5.725  1.0152 -1.0115  0.8083
 4235SOL    HW213391   0.909   2.351   5.661  0.5402  1.3742  1.4773
 4236SOL     OW13392   6.086   1.690   4.806 -0.3318 -0.5553  0.2191
 4236SOL    HW113393   6.097   1.599   4.780  0.7505 -1.2408  2.7557
 4236SOL    HW213394   6.081   1.687   4.901 -1.6954  1.9345  0.2956
 4237SOL     OW13395   7.175   4.695   4.182 -0.2133  0.1023  0.2548
 4237SOL    HW113396   7.150   4.771   4.129 -1.2295  0.3990  1.1157
 4237SOL    HW213397   7.164   4.621   4.123  0.1901  0.5622 -0.4150
 4238SOL     OW13398   7.496   1.307   6.412  0.4403 -0.9014 -0.2883
 4238SOL    HW113399   7.401   1.313   6.406  0.2763 -2.6567  0.0456
 4238SOL    HW213400   7.513   1.217   6.439  2.1868 -0.4943  0.1185
 4239SOL     OW13401   0.666   2.609   0.969 -0.1400 -0.0194 -0.3295
 4239SOL    HW113402   0.590   2.571   1.013 -1.3700  0.0444 -2.2454
 4239SOL    HW213403   0.730   2.538   0.964 -0.4077 -0.3272  0.5770
 4240SOL     OW13404   7.255   1.746   5.038 -0.1885  0.4260 -0.1169
 4240SOL    HW113405   7.297   1.706   5.115 -0.2591  0.5247 -0.0261
 4240SOL    HW213406   7.280   1.689   4.965 -1.4751 -0.6205  0.2181
 4241SOL     OW13407   3.677   2.430   6.567  0.0161  0.3547  0.0230
 4241SOL    HW113408   3.722   2.417   6.651 -0.6694  0.0381  0.3432
 4241SOL    HW213409   3.611   2.361   6.564 -1.3045  1.5784  0.1363
 4242SOL     OW13410   4.549   5.426   4.339  0.5124 -0.0194 -0.2822
 4242SOL    HW113411   4.454   5.419   4.336  0.4287  1.0929 -0.8732
 4242SOL    HW213412   4.575   5.444   4.249  1.2885 -0.3858 -0.1385
 4243SOL     OW13413   5.934   0.277   6.164 -0.8092  0.0022 -0.2568
 4243SOL    HW113414   5.842   0.300   6.178 -0.3638  0.2779  3.1745
 4243SOL    HW213415   5.951   0.208   6.229  0.9991 -1.3049 -2.0074
 4244SOL     OW13416   2.029   5.628   7.492 -0.0154 -0.1284  0.2881
 4244SOL    HW113417   2.111   5.602   7.534 -0.5719  0.2193  1.6482
 4244SOL    HW213418   1.978   5.547   7.485  0.7607 -0.4948 -1.3314
 4245SOL     OW13419   7.485   5.500   6.038  0.0466 -0.2401  0.0811
 4245SOL    HW113420   7.496   5.592   6.014  0.3631  0.0960  1.4369
 4245SOL    HW213421   7.526   5.492   6.124 -1.0974 -1.3537  0.5608
 4246SOL     OW13422   2.312   6.601   1.061  0.2481 -0.1508  0.2135
 4246SOL    HW113423   2.386   6.609   1.001  0.7910 -1.2817  0.7051
 4246SOL    HW213424   2.250   6.668   1.032 -0.0347 -1.3922 -2.3537
 4247SOL     OW13425   4.372   5.063   0.726  0.0559  0.0789  1.0231
 4247SOL    HW113426   4.441   5.055   0.792 -0.0101 -0.3797  1.0394
 4247SOL    HW213427   4.359   5.157   0.716 -0.2616  0.1421  2.0056
 4248SOL     OW13428   0.236   1.544   2.527 -0.2200 -0.0993  0.6251
 4248SOL    HW113429   0.142   1.528   2.538 -0.4896 -0.1649 -1.4393
 4248SOL    HW213430   0.247   1.637   2.547 -1.1407  0.4462 -1.1775
 4249SOL     OW13431   5.370   0.596   4.334 -0.0668 -0.2286  0.1980
 4249SOL    HW113432   5.312   0.617   4.408  1.2425 -0.8796  1.4530
 4249SOL    HW213433   5.456   0.626   4.361  0.5945 -1.1990 -0.7341
 4250SOL     OW13434   3.643   6.293   1.330 -0.3210  0.0742 -0.0945
 4250SOL    HW113435   3.569   6.274   1.387  0.3037 -0.9020  0.4070
 4250SOL    HW213436   3.712   6.326   1.388 -0.3804  1.1063 -0.5741
 4251SOL     OW13437   6.679   7.382   4.826 -0.5354  0.5186  0.0294
 4251SOL    HW113438   6.603   7.440   4.822 -0.0456  1.0985 -1.6127
 4251SOL    HW213439   6.738   7.424   4.888 -0.0473  2.0243 -1.3745
 4252SOL     OW13440   7.375   3.391   4.356 -0.1247  0.5072  0.0077
 4252SOL    HW113441   7.410   3.315   4.310  1.4037  0.4887  1.1356
 4252SOL    HW213442   7.374   3.461   4.290 -1.5277 -0.4548 -1.0309
 4253SOL     OW13443   6.731   3.042   0.509 -0.3402  0.0771  0.0047
 4253SOL    HW113444   6.782   3.019   0.587 -1.2015  0.0191  0.5625
 4253SOL    HW213445   6.767   2.986   0.440 -2.1874 -2.8726  1.2393
 4254SOL     OW13446   5.977   4.350   7.078  0.0719  0.9032 -0.4565
 4254SOL    HW113447   5.946   4.421   7.022 -1.6102 -0.6156 -1.5530
 4254SOL    HW213448   5.962   4.381   7.167 -0.1497  2.1102 -0.8954
 4255SOL     OW13449   3.751   6.654   1.359  0.3003  0.2662  0.1358
 4255SOL    HW113450   3.794   6.618   1.282 -1.1601  0.4880 -0.8397
 4255SOL    HW213451   3.777   6.746   1.360 -0.2570  0.4411 -0.5465
 4256SOL     OW13452   1.285   6.712   5.566  0.1199  0.0786 -0.0891
 4256SOL    HW113453   1.198   6.727   5.529 -0.2124  1.1071  1.0563
 4256SOL    HW213454   1.271   6.646   5.635 -0.0386  1.2485  1.0457
 4257SOL     OW13455   3.817   3.556   5.443  0.3659  0.0035  0.0321
 4257SOL    HW113456   3.764   3.478   5.430  1.0578 -0.1926 -2.1516
 4257SOL    HW213457   3.773   3.605   5.513 -0.3522 -2.0649  1.0925
 4258SOL     OW13458   5.172   5.485   5.543 -0.0474  0.3568 -0.3405
 4258SOL    HW113459   5.206   5.397   5.532 -0.4453  0.1547 -0.0086
 4258SOL    HW213460   5.247   5.542   5.529  0.3234 -0.0559 -0.0681
 4259SOL     OW13461   2.391   3.593   5.909  0.4158 -0.0575 -0.1691
 4259SOL    HW113462   2.315   3.545   5.942 -1.5032  2.5550 -0.5436
 4259SOL    HW213463   2.420   3.645   5.984  0.3595  0.7023 -0.6666
 4260SOL     OW13464   1.757   2.658   2.631 -0.5577  0.0819  0.3807
 4260SOL    HW113465   1.780   2.575   2.591  1.2262  0.7936 -0.1835
 4260SOL    HW213466   1.784   2.650   2.722 -0.2712  0.0959  0.2952
 4261SOL     OW13467   6.912   2.074   2.847 -0.1757 -0.3174 -0.2956
 4261SOL    HW113468   6.990   2.018   2.849 -0.4014 -0.6280 -0.2433
 4261SOL    HW213469   6.946   2.159   2.818  0.3876 -0.1079  0.8989
 4262SOL     OW13470   5.819   6.302   7.288  0.0458 -0.1263  0.3675
 4262SOL    HW113471   5.807   6.314   7.194  2.3007 -0.9157 -0.0962
 4262SOL    HW213472   5.866   6.381   7.316  0.7816 -0.5967  0.4879
 4263SOL     OW13473   1.991   7.707   4.011 -0.6877  0.0531  0.6381
 4263SOL    HW113474   2.071   7.661   4.036  0.0596 -0.1471 -1.9169
 4263SOL    HW213475   1.997   7.791   4.057  1.2330  0.2256  0.1586
 4264SOL     OW13476   6.661   0.296   5.535 -0.6899  0.6001  0.2495
 4264SOL    HW113477   6.575   0.273   5.571 -0.4051  0.6186  0.9585
 4264SOL    HW213478   6.650   0.287   5.441 -1.0396 -0.9143  0.4024
 4265SOL     OW13479   3.894   2.867   0.969  0.3362 -0.5440 -0.3583
 4265SOL    HW113480   3.873   2.856   0.877 -0.3075 -0.3652 -0.2330
 4265SOL    HW213481   3.810   2.865   1.014  0.6981 -1.4882  0.3140
 4266SOL     OW13482   1.691   0.727   2.729  0.2383  0.5021 -0.2749
 4266SOL    HW113483   1.720   0.642   2.695 -1.7942 -0.1517 -0.4916
 4266SOL    HW213484   1.756   0.789   2.696  0.4462 -0.6363 -2.1501
 4267SOL     OW13485   0.379   5.788   2.437  0.3735  0.5654  0.0264
 4267SOL    HW113486   0.292   5.830   2.439  0.0594 -0.0523 -0.4006
 4267SOL    HW213487   0.438   5.855   2.470 -0.6335  0.0582  3.2044
 4268SOL     OW13488   0.031   0.670   4.067 -0.7091 -0.2060  0.0724
 4268SOL    HW113489   0.059   0.726   3.995 -1.7860 -0.5112 -0.6010
 4268SOL    HW213490  -0.005   0.592   4.025 -1.2687 -0.4308  0.9308
 4269SOL     OW13491   7.132   5.931   4.988  0.3250  0.0210  0.6564
 4269SOL    HW113492   7.152   5.838   4.977 -1.2664 -0.4242  1.2984
 4269SOL    HW213493   7.076   5.935   5.065 -0.7708  1.3549 -0.1642
 4270SOL     OW13494   7.670   5.354   5.506  0.0008  0.5329  0.0531
 4270SOL    HW113495   7.743   5.385   5.560 -0.0712 -0.1301  0.5481
 4270SOL    HW213496   7.657   5.423   5.441 -0.2926  1.6383  1.2449
 4271SOL     OW13497   4.734   2.371   2.241 -0.5987 -0.3461  0.6590
 4271SOL    HW113498   4.754   2.461   2.267  0.4565 -0.2524 -0.3754
 4271SOL    HW213499   4.646   2.376   2.204 -0.5603  0.2659  0.6318
 4272SOL     OW13500   4.792   5.555   2.684 -0.0479 -0.4053  0.3761
 4272SOL    HW113501   4.860   5.620   2.705  0.8579 -1.1717 -0.1132
 4272SOL    HW213502   4.818   5.519   2.599 -1.9132  0.3612 -0.5817
 4273SOL     OW13503   3.625   4.540   0.107 -0.4336  0.1617 -0.1676
 4273SOL    HW113504   3.678   4.619   0.122 -0.7955  0.2063  0.9323
 4273SOL    HW213505   3.590   4.518   0.193 -2.2778  0.1746 -0.8675
 4274SOL     OW13506   3.352   7.133   4.544 -0.6378  0.1080 -0.1718
 4274SOL    HW113507   3.263   7.146   4.514 -0.8177  0.8416  0.6345
 4274SOL    HW213508   3.395   7.217   4.529  0.4254 -0.7310 -2.1432
 4275SOL     OW13509   0.279   2.909   4.838  0.0405  0.0707  0.9004
 4275SOL    HW113510   0.267   2.917   4.932 -1.3935 -0.1399  0.7552
 4275SOL    HW213511   0.191   2.893   4.803  0.8264 -2.1930 -0.2480
 4276SOL     OW13512   2.127   7.367   2.477 -0.0815  0.4950 -0.5044
 4276SOL    HW113513   2.208   7.408   2.448 -0.4354  0.1332 -2.1352
 4276SOL    HW213514   2.148   7.274   2.485  0.1437  0.6532  0.9894
 4277SOL     OW13515   0.672   0.739   6.744 -0.4509 -0.3268 -0.3301
 4277SOL    HW113516   0.710   0.822   6.773 -1.9201  0.5674 -0.8754
 4277SOL    HW213517   0.591   0.731   6.794  0.3984 -2.2554  0.8933
 4278SOL     OW13518   0.424   7.756   4.402  0.1357 -0.2363  0.6509
 4278SOL    HW113519   0.397   7.739   4.312 -1.5901 -0.1088  1.1185
 4278SOL    HW213520   0.408   7.673   4.448  3.5107 -1.2027  0.3571
 4279SOL     OW13521   1.241   4.216   7.044  0.5140  0.8067 -0.0610
 4279SOL    HW113522   1.234   4.121   7.060 -0.3663  0.7274 -0.8361
 4279SOL    HW213523   1.268   4.223   6.953 -0.7435  1.3024 -0.4192
 4280SOL     OW13524   1.872   3.810   0.519  0.1365  0.0112 -0.3800
 4280SOL    HW113525   1.825   3.728   0.530 -1.0954  0.6202 -0.9623
 4280SOL    HW213526   1.867   3.853   0.605 -1.1047  0.4374 -0.6504
 4281SOL     OW13527   6.706   1.237   6.933 -0.5263  0.4723 -0.3148
 4281SOL    HW113528   6.731   1.282   6.852 -0.9017 -1.2807 -1.4695
 4281SOL    HW213529   6.616   1.207   6.917  0.0788 -1.6109 -0.0742
 4282SOL     OW13530   3.694   6.157   5.234 -0.4960  0.5002 -0.6258
 4282SOL    HW113531   3.662   6.230   5.287  0.0503  0.5422 -0.3381
 4282SOL    HW213532   3.625   6.091   5.239 -1.3016  1.2523 -1.4477
 4283SOL     OW13533   0.203   4.918   2.521  0.5146 -0.2444  0.0999
 4283SOL    HW113534   0.158   4.842   2.485  0.9051 -1.1512  1.4468
 4283SOL    HW213535   0.246   4.959   2.446 -1.9874  0.3057 -1.1215
 4284SOL     OW13536   7.718   3.011   5.496 -0.6862  0.0604 -0.3693
 4284SOL    HW113537   7.801   3.033   5.539 -0.3490 -1.7340 -0.0465
 4284SOL    HW213538   7.661   2.983   5.568 -1.8969  2.0415 -0.4726
 4285SOL     OW13539   2.770   3.026   3.147  0.3618  0.1358  0.2496
 4285SOL    HW113540   2.688   3.036   3.196  1.1702 -0.6202  1.8515
 4285SOL    HW213541   2.830   2.984   3.209  1.9218  0.5137 -0.9329
 4286SOL     OW13542   0.650   7.417   3.828  0.2692  0.1925 -0.0480
 4286SOL    HW113543   0.738   7.413   3.865  0.8195  0.0965 -1.3143
 4286SOL    HW213544   0.662   7.454   3.741 -0.6998 -1.3923 -0.9108
 4287SOL     OW13545   4.858   6.572   5.286  0.0611 -0.4926 -0.0652
 4287SOL    HW113546   4.801   6.498   5.306  0.3489 -1.3483 -2.1450
 4287SOL    HW213547   4.947   6.535   5.287  0.1634 -0.3875 -1.7208
 4288SOL     OW13548   6.511   4.329   1.615 -0.2668  0.1453 -0.0774
 4288SOL    HW113549   6.496   4.419   1.589  0.9098  0.5642  0.6258
 4288SOL    HW213550   6.511   4.280   1.532 -2.1353  0.5673 -0.3637
 4289SOL     OW13551   6.750   2.640   7.641 -0.3526  0.1821 -0.4931
 4289SOL    HW113552   6.713   2.603   7.721 -0.0766  0.0938 -0.4082
 4289SOL    HW213553   6.806   2.711   7.671  0.8572 -0.7437 -0.5094
 4290SOL     OW13554   7.371   4.486   2.868 -0.5232  0.0214 -0.0904
 4290SOL    HW113555   7.448   4.481   2.925  0.1149 -0.1540 -0.9402
 4290SOL    HW213556   7.299   4.451   2.921  0.1711 -0.6793  0.4087
 4291SOL     OW13557   1.338   1.604   3.517 -0.4650 -0.2654 -0.1314
 4291SOL    HW113558   1.433   1.592   3.514 -0.6297 -1.8276  0.0695
 4291SOL    HW213559   1.326   1.691   3.554  0.8858 -0.6194  1.2346
 4292SOL     OW13560   4.956   4.853   4.846  0.3723 -0.0058  0.2486
 4292SOL    HW113561   4.949   4.865   4.751  0.2709  1.3503  0.3984
 4292SOL    HW213562   4.995   4.935   4.877  2.0165 -1.0930  1.1999
 4293SOL     OW13563   0.764   5.426   6.149 -0.5787  0.2224 -0.4284
 4293SOL    HW113564   0.808   5.371   6.213 -0.0168  0.0171 -0.9771
 4293SOL    HW213565   0.735   5.503   6.198  0.5446  0.4427 -0.0794
 4294SOL     OW13566   6.085   3.647   5.450 -0.6326  0.4046 -0.3249
 4294SOL    HW113567   6.058   3.558   5.472  0.5684  0.3906  1.2522
 4294SOL    HW213568   6.127   3.640   5.365  2.1720 -1.1345  1.0728
 4295SOL     OW13569   0.659   5.308   3.288  0.5272  0.0295 -0.6553
 4295SOL    HW113570   0.652   5.400   3.263  0.6385 -0.4346 -2.5294
 4295SOL    HW213571   0.748   5.283   3.264  0.2869 -0.7228 -0.7902
 4296SOL     OW13572   0.046   4.167   2.709  0.0997  0.5489 -0.4910
 4296SOL    HW113573  -0.004   4.211   2.777 -0.3030 -1.4375  0.5856
 4296SOL    HW213574   0.136   4.198   2.720 -0.3392  1.9008 -0.5201
 4297SOL     OW13575   3.712   2.857   6.450 -0.1656  0.7364  0.0455
 4297SOL    HW113576   3.779   2.909   6.408 -1.1916  1.1769 -1.0954
 4297SOL    HW213577   3.703   2.895   6.538 -0.2454  1.8868 -0.4496
 4298SOL     OW13578   2.720   3.128   5.258 -0.5457 -0.2565  0.6599
 4298SOL    HW113579   2.698   3.035   5.270 -0.7038 -0.0063  2.5224
 4298SOL    HW213580   2.721   3.140   5.163 -1.0987 -2.0282  0.3954
 4299SOL     OW13581   0.482   5.635   1.618  0.2355 -0.2117  0.4255
 4299SOL    HW113582   0.447   5.693   1.686 -2.9392 -2.0418  0.5833
 4299SOL    HW213583   0.459   5.679   1.536  0.9460  0.3619  0.5288
 4300SOL     OW13584   1.989   1.089   7.741 -0.8132  0.3119 -0.4103
 4300SOL    HW113585   1.935   1.139   7.802 -1.0379 -0.3740 -0.0424
 4300SOL    HW213586   1.927   1.044   7.684 -0.6093  0.5791 -0.8547
 4301SOL     OW13587   6.815   6.204   1.109  0.2480 -0.2738  0.2955
 4301SOL    HW113588   6.801   6.280   1.166  0.2051  0.2587 -0.4224
 4301SOL    HW213589   6.744   6.144   1.132  0.3022 -0.1174  0.8906
 4302SOL     OW13590   5.040   1.426   1.240 -0.1081  0.2901  0.3260
 4302SOL    HW113591   4.956   1.419   1.285 -1.0416  0.3737 -1.3318
 4302SOL    HW213592   5.019   1.418   1.147  1.7833 -0.1589 -0.1164
 4303SOL     OW13593   7.493   6.429   0.535 -0.0460  0.3691 -0.1544
 4303SOL    HW113594   7.504   6.344   0.492 -0.1494  0.4634 -0.3660
 4303SOL    HW213595   7.416   6.417   0.591 -2.4249  1.4025 -2.9439
 4304SOL     OW13596   1.934   3.757   0.252 -0.5012 -0.0037  0.2109
 4304SOL    HW113597   1.911   3.675   0.207 -0.7039 -0.3760  0.9674
 4304SOL    HW213598   1.898   3.746   0.340 -0.6491  0.9631  0.2777
 4305SOL     OW13599   6.943   4.224   4.220 -0.3164 -0.1284  0.6054
 4305SOL    HW113600   6.907   4.171   4.150  1.0781 -0.5913  0.1983
 4305SOL    HW213601   6.893   4.200   4.298 -1.4647 -0.0650 -0.1007
 4306SOL     OW13602   6.341   0.580   6.988  0.0903  0.6045  0.9074
 4306SOL    HW113603   6.389   0.535   6.919  0.3764 -0.7224  1.9149
 4306SOL    HW213604   6.346   0.672   6.965  1.4555  0.3259 -0.0484
 4307SOL     OW13605   4.764   6.019   7.408 -0.1519  0.3275 -0.4817
 4307SOL    HW113606   4.714   5.939   7.392  0.0272  0.0166  0.4192
 4307SOL    HW213607   4.751   6.036   7.502  0.5482  0.8502 -0.4733
 4308SOL     OW13608   2.572   7.284   3.813  0.0365  0.8192  0.3055
 4308SOL    HW113609   2.524   7.287   3.896 -2.7044 -0.2930 -1.1071
 4308SOL    HW213610   2.621   7.202   3.817 -0.7403  0.3541  0.5039
 4309SOL     OW13611   3.545   5.410   1.283  0.3962  0.6027  0.2185
 4309SOL    HW113612   3.478   5.465   1.325 -0.2727 -0.9329  1.2313
 4309SOL    HW213613   3.626   5.460   1.291 -0.2525  1.5929  0.8012
 4310SOL     OW13614   3.686   1.954   5.395 -0.0361 -0.5562 -0.2255
 4310SOL    HW113615   3.685   1.918   5.306 -0.4072  0.4896 -0.6621
 4310SOL    HW213616   3.777   1.945   5.424  0.3203  0.0565 -1.1184
 4311SOL     OW13617   6.620   3.510   1.833  0.0502  0.0275  0.0093
 4311SOL    HW113618   6.715   3.516   1.831  0.0009  1.0045 -0.0567
 4311SOL    HW213619   6.591   3.601   1.843 -0.8579 -0.3419  0.8126
 4312SOL     OW13620   4.877   5.692   0.671 -0.5377  0.1179 -0.1643
 4312SOL    HW113621   4.828   5.711   0.591 -0.3014  0.2673 -0.2742
 4312SOL    HW213622   4.815   5.644   0.726  0.1560 -2.5117 -1.5234
 4313SOL     OW13623   3.067   2.410   1.700 -0.2283 -0.4794 -0.3298
 4313SOL    HW113624   2.985   2.394   1.746 -0.6458 -0.7030 -1.1348
 4313SOL    HW213625   3.119   2.464   1.760 -0.1263 -2.0454  1.0569
 4314SOL     OW13626   7.586   6.375   4.056 -0.9535  0.3212 -0.0567
 4314SOL    HW113627   7.652   6.411   3.998 -0.1360  0.9719  1.2312
 4314SOL    HW213628   7.516   6.346   3.998  0.4903 -0.4951 -1.4650
 4315SOL     OW13629   0.873   5.496   2.895 -0.0551  0.0458 -0.1630
 4315SOL    HW113630   0.952   5.467   2.940 -0.2202  0.5944  0.4929
 4315SOL    HW213631   0.818   5.418   2.891  1.3146 -0.9290 -2.4809
 4316SOL     OW13632   0.221   1.291   1.734 -0.4527 -0.2318 -0.0132
 4316SOL    HW113633   0.313   1.267   1.726 -0.6469 -0.7482 -0.8511
 4316SOL    HW213634   0.211   1.365   1.674 -0.3098  0.6809  1.0489
 4317SOL     OW13635   0.610   0.700   1.880  0.4854 -0.3422  0.1964
 4317SOL    HW113636   0.618   0.617   1.834  0.3036 -1.0425  1.4088
 4317SOL    HW213637   0.518   0.724   1.873  0.6195 -0.0173 -0.5209
 4318SOL     OW13638   4.144   0.179   0.706  0.1452 -0.1907  0.4051
 4318SOL    HW113639   4.217   0.240   0.708 -0.8985  1.1490 -0.8905
 4318SOL    HW213640   4.089   0.206   0.780  0.9140 -1.2003  1.3816
 4319SOL     OW13641   0.239   0.755   6.052 -0.0510 -0.1415  0.0871
 4319SOL    HW113642   0.320   0.791   6.089  1.0483 -0.5153 -1.8190
 4319SOL    HW213643   0.257   0.662   6.041 -1.2412 -0.4773  0.8438
 4320SOL     OW13644   0.498   6.797   1.054  0.0536 -0.5343 -0.1509
 4320SOL    HW113645   0.474   6.774   0.964  1.8722  0.5659 -0.9711
 4320SOL    HW213646   0.463   6.885   1.066  0.4362 -0.3968 -0.0368
 4321SOL     OW13647   3.220   2.322   3.582 -0.9439 -0.4364 -0.1172
 4321SOL    HW113648   3.178   2.244   3.547 -0.0439 -0.7353 -0.5654
 4321SOL    HW213649   3.301   2.290   3.623  0.5908  0.4636 -2.2602
 4322SOL     OW13650   0.926   6.232   1.270 -0.3810  0.1041  0.1541
 4322SOL    HW113651   0.944   6.326   1.280 -0.2954 -0.1020  2.3173
 4322SOL    HW213652   0.974   6.207   1.191  1.0870  1.5351  0.5326
 4323SOL     OW13653   6.575   7.266   1.109 -0.0766  0.0809  0.3716
 4323SOL    HW113654   6.502   7.233   1.058 -0.5107  1.4770  0.0363
 4323SOL    HW213655   6.651   7.256   1.052 -0.0532 -1.0099  0.5712
 4324SOL     OW13656   1.086   5.740   7.384 -0.4626 -0.1151 -0.3127
 4324SOL    HW113657   1.110   5.751   7.292  0.1819 -2.5155 -0.4827
 4324SOL    HW213658   1.063   5.829   7.413 -0.6005  0.7176 -2.7327
 4325SOL     OW13659   4.635   7.692   7.203 -0.2346 -0.4159 -0.6690
 4325SOL    HW113660   4.710   7.687   7.263  1.7584 -0.5149 -2.9802
 4325SOL    HW213661   4.589   7.772   7.227  1.4614  0.4149 -0.0596
 4326SOL     OW13662   0.105   6.155   4.474 -0.2331 -0.0026  0.1783
 4326SOL    HW113663   0.082   6.238   4.516  0.3410  0.0724  0.3488
 4326SOL    HW213664   0.021   6.116   4.452 -0.6412 -0.7570  2.7670
 4327SOL     OW13665   4.380   3.687   4.607 -0.6522 -0.5614  0.0455
 4327SOL    HW113666   4.443   3.619   4.631 -0.4488 -0.8122 -1.1452
 4327SOL    HW213667   4.420   3.731   4.532 -1.3945 -0.0078 -0.0307
 4328SOL     OW13668   0.220   4.848   6.817  0.3838  0.9515  0.4535
 4328SOL    HW113669   0.205   4.910   6.888  1.3154  0.7036  0.8899
 4328SOL    HW213670   0.308   4.868   6.786  1.1971 -0.8632  1.3827
 4329SOL     OW13671   4.563   4.243   5.265 -0.4039 -0.1813  0.2249
 4329SOL    HW113672   4.524   4.239   5.178 -0.5916 -1.9245  0.3595
 4329SOL    HW213673   4.611   4.326   5.266  0.8814 -0.8024 -2.0820
 4330SOL     OW13674   4.047   1.228   3.193  0.1397 -0.0228 -0.5957
 4330SOL    HW113675   3.966   1.178   3.179 -0.2623  0.5372 -0.3199
 4330SOL    HW213676   4.065   1.217   3.287  0.8891 -0.8816 -0.8208
 4331SOL     OW13677   0.935   2.138   4.997 -0.4106 -0.1706  0.2004
 4331SOL    HW113678   0.891   2.105   5.075 -2.2602  1.2359 -0.1604
 4331SOL    HW213679   0.994   2.205   5.029  2.2534 -2.6021  0.7758
 4332SOL     OW13680   4.774   6.322   7.460  0.1793  0.1033  0.2239
 4332SOL    HW113681   4.868   6.341   7.468  0.3257 -0.8112  0.7269
 4332SOL    HW213682   4.767   6.266   7.382  0.1224 -0.3015  0.5187
 4333SOL     OW13683   0.431   7.552   5.965 -0.3201  0.2344 -0.2682
 4333SOL    HW113684   0.512   7.561   6.015 -1.1378  2.2057  0.7839
 4333SOL    HW213685   0.443   7.470   5.916  2.8553  1.1156 -1.2141
 4334SOL     OW13686   2.424   2.656   6.310  0.1277  0.0064 -0.0863
 4334SOL    HW113687   2.344   2.648   6.361 -0.0041 -1.5414 -0.4778
 4334SOL    HW213688   2.394   2.662   6.219  0.3960  1.7195 -0.0876
 4335SOL     OW13689   1.508   1.255   6.869  0.4419  0.1726 -0.0078
 4335SOL    HW113690   1.417   1.273   6.843 -0.0313 -1.4855  0.4418
 4335SOL    HW213691   1.546   1.342   6.880 -1.6558  0.9587  1.7782
 4336SOL     OW13692   0.435   4.596   2.561  0.3702  0.2839 -0.0928
 4336SOL    HW113693   0.517   4.551   2.584  0.7392  1.4112  0.8742
 4336SOL    HW213694   0.458   4.650   2.486  0.0871 -0.6163 -0.8470
 4337SOL     OW13695   4.391   4.532   0.026  0.0304 -0.1447  0.1121
 4337SOL    HW113696   4.352   4.530  -0.062 -0.4490 -3.7581  0.2291
 4337SOL    HW213697   4.485   4.532   0.010  0.0153 -3.1791 -0.6378
 4338SOL     OW13698   6.071   3.411   2.717 -0.2721 -0.6533  0.2615
 4338SOL    HW113699   6.140   3.463   2.759 -0.1153 -0.0747 -0.6829
 4338SOL    HW213700   5.995   3.421   2.775  0.5235 -1.6249  1.5211
 4339SOL     OW13701   2.074   6.641   4.350 -0.4418  0.5120  0.1713
 4339SOL    HW113702   2.089   6.557   4.307  0.1944  0.8173 -0.2212
 4339SOL    HW213703   1.981   6.659   4.337 -1.0614 -1.0636  1.9672
 4340SOL     OW13704   6.423   2.292   3.187 -0.5290  0.5902 -0.6009
 4340SOL    HW113705   6.342   2.328   3.224 -0.0797 -0.1049  1.1909
 4340SOL    HW213706   6.427   2.203   3.222  0.6379  0.3541 -1.2885
 4341SOL     OW13707   2.766   7.312   7.770 -0.5708 -0.2934  0.0787
 4341SOL    HW113708   2.809   7.386   7.729 -1.8025  0.8212  0.6957
 4341SOL    HW213709   2.675   7.318   7.742 -0.4133 -2.5236 -1.1303
 4342SOL     OW13710   7.614   0.293   7.726  0.3891 -0.4200 -0.9595
 4342SOL    HW113711   7.528   0.260   7.700 -0.1133 -0.2735  0.4274
 4342SOL    HW213712   7.664   0.295   7.645 -0.6909 -1.1799 -1.6792
 4343SOL     OW13713   3.530   0.195   2.807 -0.0724 -0.0398  0.5189
 4343SOL    HW113714   3.481   0.246   2.871  1.5965  1.4464  0.7136
 4343SOL    HW213715   3.582   0.134   2.860 -3.1453 -3.2221  0.2475
 4344SOL     OW13716   3.681   3.423   5.170 -0.1339  0.2508 -0.3879
 4344SOL    HW113717   3.745   3.479   5.127 -1.3866  2.0076 -0.0871
 4344SOL    HW213718   3.731   3.375   5.236  0.6900  2.6480  0.8487
 4345SOL     OW13719   5.873   2.059   3.618  1.2732  0.3004 -0.2801
 4345SOL    HW113720   5.875   2.027   3.528  1.2020 -0.5221 -0.0062
 4345SOL    HW213721   5.781   2.079   3.634  0.2829 -4.0989  1.0590
 4346SOL     OW13722   1.887   2.806   7.632 -0.0433 -0.5476  0.6273
 4346SOL    HW113723   1.902   2.899   7.618 -1.7119 -0.5183 -1.3825
 4346SOL    HW213724   1.806   2.802   7.683 -1.0310 -0.8751 -0.9003
 4347SOL     OW13725   3.486   7.374   5.965  0.2432 -0.4104  0.1232
 4347SOL    HW113726   3.571   7.345   6.001  0.5273 -0.6790 -0.7476
 4347SOL    HW213727   3.473   7.320   5.887  0.5659  1.4681 -1.3037
 4348SOL     OW13728   1.064   4.669   2.380 -0.6067 -0.1283 -0.3995
 4348SOL    HW113729   1.002   4.635   2.316  0.4144 -0.2930 -1.3368
 4348SOL    HW213730   1.011   4.689   2.457 -1.6428 -1.3294 -0.7671
 4349SOL     OW13731   1.778   7.148   3.573  0.2738 -0.2415  0.0274
 4349SOL    HW113732   1.863   7.115   3.603  1.7685  1.1925 -2.4133
 4349SOL    HW213733   1.741   7.191   3.651  2.1574 -0.1286  0.9266
 4350SOL     OW13734   3.623   3.842   0.329 -0.0827  0.2014 -0.1399
 4350SOL    HW113735   3.603   3.826   0.237  0.9064 -0.9287 -0.1800
 4350SOL    HW213736   3.565   3.914   0.354 -2.0409 -0.9997 -1.0136
 4351SOL     OW13737   4.234   7.011   5.046  0.2125 -0.2133 -0.0231
 4351SOL    HW113738   4.299   6.942   5.033  1.5628  1.0314 -0.2154
 4351SOL    HW213739   4.278   7.091   5.016 -0.5778  1.0517  1.9892
 4352SOL     OW13740   5.743   5.891   1.510 -0.9129 -0.6671 -0.3702
 4352SOL    HW113741   5.780   5.804   1.494  0.2516 -0.0472 -1.1927
 4352SOL    HW213742   5.702   5.914   1.426  0.5229  0.3861 -0.8057
 4353SOL     OW13743   2.243   4.291   4.243  0.0974  0.0463  0.6270
 4353SOL    HW113744   2.178   4.221   4.241 -1.1800  1.1870 -1.0425
 4353SOL    HW213745   2.191   4.370   4.259  0.7956  1.1734 -2.1097
 4354SOL     OW13746   0.631   6.972   6.111 -0.4440 -0.3874  0.4200
 4354SOL    HW113747   0.693   6.930   6.051 -1.1435 -1.7003  0.5597
 4354SOL    HW213748   0.619   6.908   6.181 -1.7826 -0.0830  0.5040
 4355SOL     OW13749   2.932   2.378   0.952 -0.4313  0.6000  0.1285
 4355SOL    HW113750   2.930   2.398   1.046 -0.7000 -1.4672  0.6319
 4355SOL    HW213751   3.024   2.378   0.929 -0.3786  1.3788  0.3373
 4356SOL     OW13752   5.186   3.376   0.614  0.3364 -0.0910  0.7474
 4356SOL    HW113753   5.227   3.304   0.661  0.5079  0.8137  2.0185
 4356SOL    HW213754   5.092   3.355   0.614  0.4535 -0.6493  0.4793
 4357SOL     OW13755   3.370   0.376   7.557  0.1246  0.1354 -0.5015
 4357SOL    HW113756   3.428   0.308   7.593 -0.4498 -0.4183 -0.5938
 4357SOL    HW213757   3.414   0.458   7.576  0.8946 -0.2696 -0.4824
 4358SOL     OW13758   3.453   5.260   2.099 -0.2431 -0.2995  0.5201
 4358SOL    HW113759   3.457   5.187   2.038 -1.7186  0.1069 -0.1132
 4358SOL    HW213760   3.529   5.248   2.156  1.4653 -0.4118 -1.6740
 4359SOL     OW13761   7.157   6.949   3.057 -0.2864  0.3578  0.3967
 4359SOL    HW113762   7.250   6.948   3.077 -0.6085  0.5656  2.0434
 4359SOL    HW213763   7.114   6.930   3.140 -1.7536  1.6418 -0.0031
 4360SOL     OW13764   7.742   7.283   6.983  0.1334  0.0306  0.0693
 4360SOL    HW113765   7.656   7.324   6.989 -0.1200 -0.5928  1.1874
 4360SOL    HW213766   7.749   7.254   6.892 -0.2672  1.2676 -0.3708
 4361SOL     OW13767   7.482   0.286   3.581 -0.8768  0.2290 -0.3419
 4361SOL    HW113768   7.515   0.199   3.559 -1.6959 -0.1953  0.0616
 4361SOL    HW213769   7.549   0.322   3.639 -1.0341 -0.5615  0.3577
 4362SOL     OW13770   5.845   3.718   1.241 -0.1078  0.2101  0.0443
 4362SOL    HW113771   5.935   3.728   1.209 -0.0204 -1.4217 -0.2981
 4362SOL    HW213772   5.797   3.679   1.168 -0.6819 -0.5292  0.7968
 4363SOL     OW13773   5.716   0.139   6.414 -0.0365 -0.5158 -0.6483
 4363SOL    HW113774   5.707   0.233   6.426  0.2857 -0.7010  1.5328
 4363SOL    HW213775   5.641   0.102   6.460 -0.1180 -1.3367 -1.4183
 4364SOL     OW13776   7.625   2.032   0.207  0.1435 -0.4462 -0.6340
 4364SOL    HW113777   7.536   2.061   0.183  0.1268 -0.6035 -0.7586
 4364SOL    HW213778   7.615   1.940   0.230  0.2385 -0.4096 -0.4493
 4365SOL     OW13779   7.195   5.541   5.466  0.2398 -0.4357 -0.0146
 4365SOL    HW113780   7.205   5.449   5.439  3.2179  0.0851 -1.1340
 4365SOL    HW213781   7.259   5.551   5.537  1.6393  1.2308 -1.4142
 4366SOL     OW13782   1.238   4.486   6.147  0.0025  0.5508 -0.2937
 4366SOL    HW113783   1.210   4.453   6.233  0.8328 -0.8321 -0.5250
 4366SOL    HW213784   1.291   4.563   6.167  2.0506 -1.0017  0.6391
 4367SOL     OW13785   4.239   1.187   5.416  0.1404  0.0932  0.0431
 4367SOL    HW113786   4.241   1.242   5.337  2.0679 -0.7784 -0.5708
 4367SOL    HW213787   4.212   1.247   5.486 -1.5484  0.8969 -1.2189
 4368SOL     OW13788   1.814   3.303   0.742 -0.3323 -0.5307 -0.7229
 4368SOL    HW113789   1.889   3.362   0.744 -0.8955  0.2034 -1.0553
 4368SOL    HW213790   1.780   3.309   0.653 -0.2855 -1.4983 -0.8144
 4369SOL     OW13791   2.106   5.486   3.336  0.1352 -0.5910 -0.0008
 4369SOL    HW113792   2.072   5.402   3.368  0.3071 -1.1593 -1.2480
 4369SOL    HW213793   2.036   5.520   3.281 -0.1080  0.3190  0.8378
 4370SOL     OW13794   7.440   5.381   2.266  0.0314 -0.2998 -0.0516
 4370SOL    HW113795   7.381   5.456   2.275  0.2335 -0.1829  0.3024
 4370SOL    HW213796   7.411   5.319   2.333 -0.0590 -0.4932 -0.2643
 4371SOL     OW13797   5.218   0.517   3.039 -0.7020 -0.1314  0.1229
 4371SOL    HW113798   5.231   0.612   3.045  1.8439 -0.4772  2.2247
 4371SOL    HW213799   5.283   0.489   2.974 -1.2535 -0.4590 -0.2866
 4372SOL     OW13800   2.049   6.270   0.043 -0.0740 -0.3320 -0.2072
 4372SOL    HW113801   2.085   6.281  -0.045 -0.1169 -0.9334 -0.3052
 4372SOL    HW213802   2.011   6.182   0.043 -0.9746  0.0491  0.0999
 4373SOL     OW13803   4.027   0.754   7.108  0.4369  0.4707 -0.0898
 4373SOL    HW113804   4.056   0.730   7.196 -0.9133 -2.3100 -0.2995
 4373SOL    HW213805   4.089   0.822   7.080  1.4335  0.8072  2.6269
 4374SOL     OW13806   0.659   6.194   1.185  0.1933  0.0248 -0.4470
 4374SOL    HW113807   0.625   6.184   1.274  1.8038  1.2552  0.3501
 4374SOL    HW213808   0.748   6.225   1.196 -0.0856  1.8020 -2.5145
 4375SOL     OW13809   0.277   4.404   6.423  0.2198 -0.3205 -0.0630
 4375SOL    HW113810   0.193   4.377   6.459 -0.4529 -0.0284 -1.3413
 4375SOL    HW213811   0.272   4.499   6.418  0.6415 -0.2984 -0.1079
 4376SOL     OW13812   3.273   5.029   7.311 -0.1189 -0.1044 -0.1265
 4376SOL    HW113813   3.365   5.033   7.337 -0.3466  1.9021  0.5559
 4376SOL    HW213814   3.224   5.042   7.392 -1.0253 -1.3349 -0.4537
 4377SOL     OW13815   5.975   7.067   5.367  0.3666  0.1723  0.1929
 4377SOL    HW113816   6.031   6.990   5.355  1.6426  1.1944 -0.7845
 4377SOL    HW213817   5.968   7.076   5.462  0.5229 -0.9197  0.3225
 4378SOL     OW13818   2.705   6.150   6.206  0.0665 -0.3189  0.1802
 4378SOL    HW113819   2.751   6.085   6.153 -2.2582 -1.7153 -0.2907
 4378SOL    HW213820   2.690   6.224   6.147 -0.0855 -0.7206 -0.2886
 4379SOL     OW13821   7.771   0.885   5.719 -0.1385 -0.5468  0.1241
 4379SOL    HW113822   7.818   0.929   5.790 -0.6057 -2.9142  2.0226
 4379SOL    HW213823   7.833   0.822   5.683 -0.0330  0.3677 -1.3879
 4380SOL     OW13824   6.260   6.718   3.723  0.6004 -0.0502  0.0228
 4380SOL    HW113825   6.288   6.684   3.808 -0.1431  0.4107  0.4671
 4380SOL    HW213826   6.310   6.799   3.712  0.5554 -0.0121  0.1036
 4381SOL     OW13827   4.103   4.048   7.518  0.3235 -0.5016  0.2428
 4381SOL    HW113828   4.115   4.052   7.423  1.2297 -0.4822  0.3566
 4381SOL    HW213829   4.083   3.956   7.536  0.3768 -0.5473  0.0662
 4382SOL     OW13830   5.610   0.266   3.843  0.4544  0.1416  0.2127
 4382SOL    HW113831   5.526   0.222   3.830  0.5322 -0.0852  0.4734
 4382SOL    HW213832   5.671   0.196   3.864  1.0785  0.0996 -1.5673
 4383SOL     OW13833   2.425   2.710   3.877 -0.3485 -0.2572 -0.3615
 4383SOL    HW113834   2.446   2.724   3.969 -2.3456  0.6185  0.0119
 4383SOL    HW213835   2.429   2.615   3.866  1.9539 -0.2693  0.0498
 4384SOL     OW13836   2.234   1.507   6.173  0.0316 -0.3915 -0.4889
 4384SOL    HW113837   2.268   1.593   6.149 -0.0950 -0.0938  0.3530
 4384SOL    HW213838   2.143   1.523   6.197  0.6124 -0.3127  1.9234
 4385SOL     OW13839   0.161   4.670   4.614 -0.1671  0.1459 -0.1109
 4385SOL    HW113840   0.210   4.648   4.534  1.2233  1.0179  0.4665
 4385SOL    HW213841   0.099   4.598   4.624  1.1696 -1.1470 -0.7444
 4386SOL     OW13842   3.492   0.705   2.177 -0.0079 -0.2191  0.0944
 4386SOL    HW113843   3.451   0.775   2.228 -0.5119 -1.2658  1.1756
 4386SOL    HW213844   3.440   0.699   2.097 -0.3334  0.2214  0.2706
 4387SOL     OW13845   6.055   3.238   0.910 -0.6110  0.5895  0.0200
 4387SOL    HW113846   5.993   3.208   0.844 -1.3418  2.0067  0.0317
 4387SOL    HW213847   6.015   3.211   0.993 -0.5379  0.3232 -0.0288
 4388SOL     OW13848   6.406   5.819   2.657  0.3263 -0.0384 -0.2903
 4388SOL    HW113849   6.318   5.856   2.669  1.4991  2.4083  1.6356
 4388SOL    HW213850   6.442   5.866   2.582  0.0249 -1.0971 -1.1291
 4389SOL     OW13851   4.214   5.335   1.262 -0.0189 -0.1719 -0.0106
 4389SOL    HW113852   4.202   5.425   1.232 -0.1436 -0.9697 -2.6161
 4389SOL    HW213853   4.156   5.326   1.337 -1.2215  1.4556 -0.6932
 4390SOL     OW13854   5.091   3.277   4.414 -0.2825  0.1484 -0.6286
 4390SOL    HW113855   5.089   3.369   4.387  0.6457  0.4853  0.3853
 4390SOL    HW213856   5.182   3.262   4.438 -1.1548  0.1686  3.2507
 4391SOL     OW13857   2.310   6.224   1.422 -0.1834 -0.0787  0.2244
 4391SOL    HW113858   2.281   6.139   1.388 -3.6942  0.5523  1.3147
 4391SOL    HW213859   2.283   6.287   1.355 -2.3144  0.6242  1.6597
 4392SOL     OW13860   3.401   4.836   0.851 -0.2338  0.3358 -0.1271
 4392SOL    HW113861   3.409   4.910   0.792 -2.7607  0.6317 -0.1927
 4392SOL    HW213862   3.363   4.872   0.931 -0.0095 -0.6312  0.4401
 4393SOL     OW13863   6.683   7.706   4.617 -0.8157 -0.0454  0.1884
 4393SOL    HW113864   6.619   7.651   4.661 -0.9164  0.0113  0.1136
 4393SOL    HW213865   6.646   7.794   4.622 -0.1342  0.1974  1.2952
 4394SOL     OW13866   5.547   1.832   2.378 -0.7057 -0.4309  0.0061
 4394SOL    HW113867   5.504   1.879   2.307 -0.6234  0.0789  0.2936
 4394SOL    HW213868   5.580   1.752   2.337 -1.4881 -0.5938 -0.3213
 4395SOL     OW13869   3.748   5.310   0.986 -0.0653  0.0169  0.1194
 4395SOL    HW113870   3.767   5.218   1.008  0.6417  0.2836  0.6703
 4395SOL    HW213871   3.683   5.305   0.916 -0.4319 -0.9020  0.5051
 4396SOL     OW13872   2.247   4.607   5.014  0.0392 -0.4871 -0.1756
 4396SOL    HW113873   2.259   4.530   5.070 -0.5279 -1.2649 -1.0808
 4396SOL    HW213874   2.211   4.674   5.073 -1.3316 -1.5426  0.2376
 4397SOL     OW13875   3.793   7.293   1.655  0.5440 -0.6935  0.0300
 4397SOL    HW113876   3.703   7.324   1.647  0.6737 -0.5057 -0.7692
 4397SOL    HW213877   3.847   7.363   1.618  1.0601 -0.6281  0.8644
 4398SOL     OW13878   2.749   6.560   4.263 -0.8790 -0.5593 -0.2513
 4398SOL    HW113879   2.792   6.547   4.178  0.2436  1.9875 -0.1503
 4398SOL    HW213880   2.663   6.595   4.241 -0.3799  0.6272 -0.3467
 4399SOL     OW13881   0.077   1.817   3.599 -0.3254  0.0544  0.9502
 4399SOL    HW113882   0.022   1.818   3.521  1.6082 -0.4579 -0.5179
 4399SOL    HW213883   0.026   1.770   3.665 -2.0039  0.4988  0.0048
 4400SOL     OW13884   5.505   5.525   2.411  0.1426 -0.0791  0.4927
 4400SOL    HW113885   5.590   5.495   2.445  0.0477 -0.0609  0.7462
 4400SOL    HW213886   5.485   5.604   2.461  0.6718  0.7583 -0.5858
 4401SOL     OW13887   4.591   2.377   6.718 -0.0911 -0.0237  0.4323
 4401SOL    HW113888   4.563   2.438   6.650  0.5706  2.0910  1.9570
 4401SOL    HW213889   4.533   2.394   6.791  1.4070  0.2408  1.5956
 4402SOL     OW13890   3.627   0.240   5.742  0.3246  0.5023 -0.1969
 4402SOL    HW113891   3.536   0.216   5.724  0.6400 -0.8416 -0.0972
 4402SOL    HW213892   3.622   0.329   5.778 -0.7836  1.1578 -1.8258
 4403SOL     OW13893   4.050   7.070   6.711 -0.3838 -0.2705 -0.0582
 4403SOL    HW113894   4.139   7.098   6.731  0.0307  0.0523 -2.1670
 4403SOL    HW213895   4.003   7.151   6.688 -0.5880 -0.6742 -1.1307
 4404SOL     OW13896   1.133   2.686   6.789  0.7599 -0.3827  0.0717
 4404SOL    HW113897   1.054   2.632   6.792 -0.0641  0.7608 -0.3655
 4404SOL    HW213898   1.121   2.743   6.713  1.3594  0.7509  0.7936
 4405SOL     OW13899   6.950   6.810   1.409 -0.0738 -0.2344  0.6300
 4405SOL    HW113900   7.005   6.867   1.463  0.3748 -1.0007  1.0116
 4405SOL    HW213901   6.976   6.721   1.435 -0.4638 -0.6105 -0.2406
 4406SOL     OW13902   3.210   5.116   3.260 -0.9028  0.3848  0.3947
 4406SOL    HW113903   3.203   5.145   3.170 -1.6683  0.6700  0.5412
 4406SOL    HW213904   3.292   5.065   3.263 -1.1355 -0.0618 -0.5706
 4407SOL     OW13905   5.870   7.691   3.641 -0.1951 -0.4173 -0.4447
 4407SOL    HW113906   5.885   7.644   3.723 -0.6890 -0.5340 -0.4191
 4407SOL    HW213907   5.877   7.624   3.573  1.1485 -0.1562 -0.5856
 4408SOL     OW13908   0.238   3.574   6.469 -0.5365  0.1484  0.1100
 4408SOL    HW113909   0.260   3.517   6.396 -1.3788 -1.7950  1.3001
 4408SOL    HW213910   0.166   3.628   6.437  0.5299  0.8959 -1.1558
 4409SOL     OW13911   2.475   0.698   3.255 -0.2465 -0.0871  0.1864
 4409SOL    HW113912   2.510   0.660   3.175 -1.8731  0.0777 -0.6592
 4409SOL    HW213913   2.460   0.791   3.233  2.0795  0.7097  1.6690
 4410SOL     OW13914   5.199   3.238   6.479 -0.2442 -0.3779 -1.1788
 4410SOL    HW113915   5.129   3.174   6.484  0.1481 -0.7460 -0.0489
 4410SOL    HW213916   5.269   3.193   6.432 -0.1100 -0.6623 -0.7185
 4411SOL     OW13917   3.239   0.238   3.920 -0.0111  0.5878 -0.3107
 4411SOL    HW113918   3.252   0.214   3.828 -0.6869 -0.2736 -0.1918
 4411SOL    HW213919   3.269   0.329   3.925  0.0134  0.6538 -1.3881
 4412SOL     OW13920   6.807   0.541   5.189  0.2135  0.3080  0.1155
 4412SOL    HW113921   6.842   0.589   5.264 -1.3217  2.2025 -0.2886
 4412SOL    HW213922   6.833   0.593   5.113  1.3350 -1.3254 -0.6710
 4413SOL     OW13923   2.619   5.683   5.515  0.6297 -0.7626  0.3082
 4413SOL    HW113924   2.709   5.714   5.514  0.8992 -1.1423 -3.8749
 4413SOL    HW213925   2.625   5.589   5.498 -0.5249 -0.6555 -0.8856
 4414SOL     OW13926   5.217   6.469   7.254 -0.1435  0.6159 -0.2397
 4414SOL    HW113927   5.268   6.515   7.320  0.2135  0.5883 -0.4949
 4414SOL    HW213928   5.277   6.457   7.181 -0.0328 -0.7878  0.0362
 4415SOL     OW13929   7.167   6.164   1.281  0.1823  0.0614 -0.1197
 4415SOL    HW113930   7.203   6.180   1.369  0.6151  0.8963 -0.4373
 4415SOL    HW213931   7.220   6.092   1.247 -0.4097 -0.7052  0.5381
 4416SOL     OW13932   2.685   7.095   0.923 -0.5984  0.3956  0.2402
 4416SOL    HW113933   2.616   7.129   0.867  0.8173  0.6551 -1.4150
 4416SOL    HW213934   2.706   7.168   0.982  0.0631  1.2310 -1.0069
 4417SOL     OW13935   6.405   4.433   5.404 -0.3985  0.9834  0.0143
 4417SOL    HW113936   6.497   4.454   5.391 -0.0628  0.0196  0.6914
 4417SOL    HW213937   6.403   4.384   5.487 -1.6427  1.8249  0.5074
 4418SOL     OW13938   4.834   7.489   5.500 -0.1219 -0.3462 -0.0827
 4418SOL    HW113939   4.770   7.520   5.436  0.7089 -0.1741 -0.8549
 4418SOL    HW213940   4.872   7.570   5.536  1.7738 -0.3771 -1.8178
 4419SOL     OW13941   4.974   2.478   1.252 -0.0277 -0.1299 -0.0549
 4419SOL    HW113942   4.894   2.526   1.273 -0.0576 -0.0161 -0.4147
 4419SOL    HW213943   4.969   2.463   1.158  0.4734  0.0598 -0.1161
 4420SOL     OW13944   6.524   0.893   4.558  0.5471  0.3693 -0.1712
 4420SOL    HW113945   6.445   0.849   4.589  1.8931 -0.7659  1.8715
 4420SOL    HW213946   6.574   0.824   4.514  1.1262  0.6774 -0.0096
 4421SOL     OW13947   4.765   6.828   5.313 -0.4852 -0.2449  0.2299
 4421SOL    HW113948   4.730   6.835   5.224  0.0619  0.7082  0.0699
 4421SOL    HW213949   4.800   6.739   5.318  0.7863  0.1299 -1.0268
 4422SOL     OW13950   2.445   2.499   4.645 -0.0228  0.1529  0.2125
 4422SOL    HW113951   2.510   2.500   4.575 -0.6924  2.3199 -0.4525
 4422SOL    HW213952   2.367   2.462   4.604  0.3365 -1.1152  0.6173
 4423SOL     OW13953   5.779   1.373   1.757 -0.4540  0.2356 -0.3432
 4423SOL    HW113954   5.867   1.373   1.719  0.7844 -0.9351  2.1997
 4423SOL    HW213955   5.794   1.357   1.851 -3.2045  2.8096  0.7270
 4424SOL     OW13956   1.623   0.224   1.736 -0.5052  0.8777  0.3229
 4424SOL    HW113957   1.589   0.179   1.659  0.8336  2.4532 -1.2784
 4424SOL    HW213958   1.666   0.302   1.702  1.8902  0.6502  2.4654
 4425SOL     OW13959   4.987   6.680   4.265 -0.0133  0.5016  0.0624
 4425SOL    HW113960   4.969   6.588   4.283  1.5119  0.0956 -0.2911
 4425SOL    HW213961   4.903   6.724   4.276 -0.4444 -0.6744  1.8763
 4426SOL     OW13962   4.040   0.953   1.460  0.5573  0.0863  0.4214
 4426SOL    HW113963   3.966   1.000   1.498  0.5223  0.5649 -0.2210
 4426SOL    HW213964   4.111   0.966   1.523  0.8890  2.0143 -0.2693
 4427SOL     OW13965   7.608   1.771   0.258  0.3403 -0.1155  0.1839
 4427SOL    HW113966   7.539   1.716   0.220 -1.2500  1.1844  1.0562
 4427SOL    HW213967   7.688   1.743   0.214 -1.1651  0.4508 -3.2862
 4428SOL     OW13968   1.731   2.467   4.225  0.1375 -0.3687 -0.2071
 4428SOL    HW113969   1.715   2.439   4.315 -2.2858 -1.2417 -0.8385
 4428SOL    HW213970   1.711   2.560   4.224 -0.4002 -0.4812  0.0349
 4429SOL     OW13971   4.234   5.943   4.194 -0.1744  0.2566 -0.2541
 4429SOL    HW113972   4.249   5.851   4.171 -0.1594 -0.4118  2.2219
 4429SOL    HW213973   4.159   5.969   4.139  0.2176 -1.0102 -1.4520
 4430SOL     OW13974   1.666   2.762   2.263 -0.0733 -0.8362  0.2178
 4430SOL    HW113975   1.632   2.679   2.296 -0.5503 -0.9358 -0.4982
 4430SOL    HW213976   1.591   2.821   2.261  0.0844 -0.6402 -0.0737
 4431SOL     OW13977   5.295   2.211   6.798 -0.4704  0.1823 -0.2850
 4431SOL    HW113978   5.377   2.211   6.748 -0.8808  3.4503 -1.1274
 4431SOL    HW213979   5.230   2.247   6.738 -1.6201  1.5053  1.6553
 4432SOL     OW13980   4.839   7.593   7.418  0.1334  0.4432 -0.0745
 4432SOL    HW113981   4.828   7.497   7.415 -0.1243  0.4550  0.4000
 4432SOL    HW213982   4.799   7.619   7.501 -0.3410  1.0366 -0.4849
 4433SOL     OW13983   3.012   6.552   7.718  0.3507 -0.0292  0.6220
 4433SOL    HW113984   3.048   6.636   7.748 -1.8548  0.2136  3.0492
 4433SOL    HW213985   2.933   6.576   7.669  1.5401 -0.6374 -1.7031
 4434SOL     OW13986   1.083   0.534   5.095  0.1498  0.4409 -0.2019
 4434SOL    HW113987   1.158   0.487   5.059 -0.1567  0.6066 -1.0711
 4434SOL    HW213988   1.112   0.562   5.182  1.3550  1.1263 -0.8036
 4435SOL     OW13989   4.870   4.985   6.558 -0.1486 -0.0981 -0.0425
 4435SOL    HW113990   4.883   5.042   6.483 -1.1590 -0.3895 -0.4530
 4435SOL    HW213991   4.870   4.896   6.521  1.2403 -0.3754  0.5600
 4436SOL     OW13992   4.523   3.468   4.477  0.2065 -0.5159  0.4918
 4436SOL    HW113993   4.583   3.396   4.456  0.7845  0.4101 -1.2140
 4436SOL    HW213994   4.569   3.519   4.544  1.4435  0.2528 -0.8856
 4437SOL     OW13995   7.426   3.024   4.575  0.2556  0.1129 -0.0958
 4437SOL    HW113996   7.408   3.086   4.645  1.4818 -1.5438  1.8075
 4437SOL    HW213997   7.521   3.025   4.564  0.4955 -2.3421  0.9995
 4438SOL     OW13998   1.851   3.233   5.841  0.0633  0.6446 -0.2743
 4438SOL    HW113999   1.768   3.196   5.869  1.6050 -2.6537  0.4223
 4438SOL    HW214000   1.893   3.263   5.922  0.5492  0.0230 -0.2905
 4439SOL     OW14001   7.273   1.362   5.311 -0.0717 -0.2139  0.3647
 4439SOL    HW114002   7.266   1.370   5.406  1.7199 -2.5513  0.7942
 4439SOL    HW214003   7.183   1.357   5.280 -0.6682  0.2415  1.9605
 4440SOL     OW14004   7.533   2.900   5.674 -0.0262  0.1703 -0.2815
 4440SOL    HW114005   7.471   2.830   5.694 -0.6004  0.7286 -0.0933
 4440SOL    HW214006   7.484   2.963   5.621  1.0649 -0.5639 -2.2937
 4441SOL     OW14007   7.490   3.374   4.004 -0.2971 -0.2721  0.6642
 4441SOL    HW114008   7.572   3.343   3.964 -1.8502 -1.5420 -1.7550
 4441SOL    HW214009   7.457   3.298   4.052 -0.9738 -0.3951  0.0240
 4442SOL     OW14010   6.152   0.182   0.402  0.0284  0.4779 -0.2460
 4442SOL    HW114011   6.240   0.160   0.431  0.4694 -1.0992 -2.4853
 4442SOL    HW214012   6.132   0.266   0.445  1.3940 -0.5454  2.5972
 4443SOL     OW14013   7.031   4.451   7.055  0.4012  0.7049  0.1342
 4443SOL    HW114014   7.060   4.428   7.143 -0.6644 -0.4724  0.2044
 4443SOL    HW214015   7.103   4.503   7.019  1.4337  0.0667  1.2131
 4444SOL     OW14016   0.540   1.300   5.118  0.2407 -0.6234 -0.0174
 4444SOL    HW114017   0.519   1.360   5.046 -1.2551 -1.8672 -0.6979
 4444SOL    HW214018   0.633   1.282   5.109  0.7499  1.6727  0.2979
 4445SOL     OW14019   3.184   0.767   7.622  1.1663 -0.2796  0.4491
 4445SOL    HW114020   3.132   0.788   7.700  0.5609 -0.4912  0.1081
 4445SOL    HW214021   3.182   0.847   7.570 -1.6126 -1.2041 -1.1166
 4446SOL     OW14022   4.292   3.362   1.907  0.9086 -0.1390  0.2534
 4446SOL    HW114023   4.199   3.343   1.915  1.0967 -0.9505  0.5876
 4446SOL    HW214024   4.300   3.455   1.929  0.1394  0.0228 -0.1297
 4447SOL     OW14025   7.243   4.858   2.918  0.4047  0.5090 -0.1306
 4447SOL    HW114026   7.227   4.801   2.843  1.1891  0.5160 -0.3108
 4447SOL    HW214027   7.278   4.939   2.880  0.0196  0.8301  0.1806
 4448SOL     OW14028   2.730   0.152   7.343  0.1773 -0.6938 -0.0520
 4448SOL    HW114029   2.812   0.199   7.362  0.4369 -0.7808 -0.9464
 4448SOL    HW214030   2.745   0.110   7.259 -0.0171 -2.4756  0.7650
 4449SOL     OW14031   6.512   4.151   6.676 -0.8584 -0.1373  0.3758
 4449SOL    HW114032   6.541   4.066   6.709 -1.3172 -0.0571  1.0081
 4449SOL    HW214033   6.512   4.207   6.754  0.4796  0.7371 -0.2170
 4450SOL     OW14034   2.550   4.584   0.156 -0.4861  0.3407  0.0101
 4450SOL    HW114035   2.559   4.678   0.138 -0.6687  0.8813  2.4016
 4450SOL    HW214036   2.461   4.574   0.189  0.0439 -0.3947  1.2719
 4451SOL     OW14037   4.143   4.470   7.121 -0.5209 -0.0483  0.8429
 4451SOL    HW114038   4.053   4.441   7.103  0.0298 -1.0517 -0.3854
 4451SOL    HW214039   4.186   4.472   7.036 -0.4281  4.4425  0.7215
 4452SOL     OW14040   4.045   6.224   2.609 -0.4407  0.1287 -0.5020
 4452SOL    HW114041   4.021   6.264   2.692 -0.4687  1.4876 -1.1387
 4452SOL    HW214042   4.112   6.159   2.632 -0.0062  0.9106  0.5038
 4453SOL     OW14043   5.344   2.296   4.318  0.0626  0.0389  0.0726
 4453SOL    HW114044   5.394   2.241   4.259 -0.1501 -0.2760  0.1794
 4453SOL    HW214045   5.377   2.274   4.405 -0.6307 -0.5715  0.1889
 4454SOL     OW14046   7.217   6.676   6.109  0.2710  0.9088  0.0461
 4454SOL    HW114047   7.191   6.600   6.159  2.0424  1.1351  1.4071
 4454SOL    HW214048   7.263   6.640   6.032 -0.7338  0.5954 -0.4185
 4455SOL     OW14049   2.740   4.963   4.757  0.1294 -0.1392  0.0227
 4455SOL    HW114050   2.662   4.908   4.765 -0.3432  0.2916 -1.2722
 4455SOL    HW214051   2.802   4.909   4.708  0.4146 -0.2347  0.4780
 4456SOL     OW14052   4.726   4.047   7.008  0.4809 -0.5565  0.0292
 4456SOL    HW114053   4.676   3.966   7.020 -0.6936  0.3140  1.3525
 4456SOL    HW214054   4.698   4.104   7.080  2.4434  0.4688  0.0558
 4457SOL     OW14055   1.597   1.824   1.441 -0.7296 -0.0468 -0.1583
 4457SOL    HW114056   1.603   1.791   1.351 -1.0135  1.5716 -0.7868
 4457SOL    HW214057   1.675   1.788   1.484 -0.0511 -0.0348 -1.3202
 4458SOL     OW14058   7.256   4.646   6.705 -0.0912  0.4956 -0.1248
 4458SOL    HW114059   7.199   4.722   6.715 -1.3664 -0.5586  0.9521
 4458SOL    HW214060   7.207   4.587   6.647 -0.5749 -0.8143  1.5449
 4459SOL     OW14061   4.160   6.817   0.049 -0.0024  0.2009  0.1776
 4459SOL    HW114062   4.160   6.742  -0.011  0.3077  0.0463  0.3679
 4459SOL    HW214063   4.203   6.784   0.128 -0.3903  0.4078  0.4774
 4460SOL     OW14064   5.532   5.390   5.442 -0.2038  0.1868 -0.2818
 4460SOL    HW114065   5.623   5.399   5.471  0.0069 -0.7127 -0.6263
 4460SOL    HW214066   5.491   5.473   5.466  0.8120  0.7728 -0.4966
 4461SOL     OW14067   7.409   3.125   1.343 -0.1891 -0.1624 -0.3011
 4461SOL    HW114068   7.373   3.136   1.431 -1.2275 -1.4204 -0.5348
 4461SOL    HW214069   7.380   3.038   1.316  1.8452 -0.6564 -1.1013
 4462SOL     OW14070   6.136   2.648   5.743  0.1832  0.4284 -0.3348
 4462SOL    HW114071   6.071   2.596   5.790  1.4511 -0.6033  0.3575
 4462SOL    HW214072   6.104   2.738   5.749 -0.7613  0.0511  0.6850
 4463SOL     OW14073   0.883   0.322   1.100  0.1784  0.4595 -0.8496
 4463SOL    HW114074   0.969   0.282   1.115 -0.3235 -0.5843 -0.7473
 4463SOL    HW214075   0.824   0.249   1.086 -0.9567  1.0951  0.3899
 4464SOL     OW14076   0.373   4.113   3.806  0.4614 -0.3422 -0.0372
 4464SOL    HW114077   0.399   4.085   3.893  0.1631  3.4352  1.4534
 4464SOL    HW214078   0.454   4.113   3.755  1.0596 -0.4661  0.8933
 4465SOL     OW14079   4.585   0.142   6.340  0.0934  0.4630 -0.3487
 4465SOL    HW114080   4.594   0.047   6.344  0.9248  0.5215 -0.5640
 4465SOL    HW214081   4.620   0.166   6.254 -1.8592  0.7979 -1.0970
 4466SOL     OW14082   1.363   5.067   4.397 -0.5879  0.5308  0.1410
 4466SOL    HW114083   1.309   5.087   4.320 -0.9492 -2.4147 -0.4924
 4466SOL    HW214084   1.359   4.972   4.405 -1.0698  0.7163  4.2453
 4467SOL     OW14085   5.615   2.607   6.220 -0.2442  0.0551  0.3205
 4467SOL    HW114086   5.679   2.543   6.251  1.2378  1.6692  0.7541
 4467SOL    HW214087   5.603   2.667   6.294  0.4706  1.8010 -0.9129
 4468SOL     OW14088   0.087   6.540   6.996  0.3373 -0.3370  0.1609
 4468SOL    HW114089  -0.005   6.567   6.991 -0.2704 -2.0683  1.3097
 4468SOL    HW214090   0.099   6.483   6.920  0.8379  0.8363 -0.6735
 4469SOL     OW14091   2.390   3.844   2.774 -0.4070 -0.2738 -0.2016
 4469SOL    HW114092   2.481   3.873   2.789 -0.1487 -0.2848 -1.6100
 4469SOL    HW214093   2.337   3.922   2.791 -0.0145  0.0765 -0.5495
 4470SOL     OW14094   2.127   0.214   2.049  0.2917  0.0079  0.1955
 4470SOL    HW114095   2.059   0.277   2.073 -0.8543 -1.5542  1.3029
 4470SOL    HW214096   2.205   0.267   2.035 -1.0317  1.8279 -0.7042
 4471SOL     OW14097   1.251   0.420   0.314  0.4016 -0.3030 -0.3371
 4471SOL    HW114098   1.283   0.343   0.267 -1.2162 -0.6248 -0.9982
 4471SOL    HW214099   1.191   0.462   0.252  0.8103  1.1752  0.2254
 4472SOL     OW14100   4.619   1.955   1.865 -0.1957 -0.3738 -0.9259
 4472SOL    HW114101   4.638   2.043   1.834 -1.9900 -0.2423 -1.7238
 4472SOL    HW214102   4.640   1.957   1.959  1.9906  0.1993 -1.3725
 4473SOL     OW14103   5.157   1.845   1.938  0.2071 -0.2089 -0.1193
 4473SOL    HW114104   5.086   1.807   1.886  1.7582 -0.2658 -2.3213
 4473SOL    HW214105   5.133   1.937   1.948 -1.6418 -0.8165  1.8785
 4474SOL     OW14106   4.264   3.579   2.268 -0.3550  0.0666 -0.6182
 4474SOL    HW114107   4.230   3.490   2.272  0.6053 -0.3070 -0.4583
 4474SOL    HW214108   4.263   3.601   2.175 -1.7407  0.3681 -0.5580
 4475SOL     OW14109   3.454   0.361   3.284 -0.4992 -1.0674 -0.0761
 4475SOL    HW114110   3.438   0.370   3.190 -0.8107  0.4922  0.1074
 4475SOL    HW214111   3.378   0.402   3.325  1.0002  0.9338  0.8441
 4476SOL     OW14112   3.763   3.068   6.276 -0.5106 -0.1931  0.1627
 4476SOL    HW114113   3.852   3.054   6.308  0.6284  0.5870 -2.3750
 4476SOL    HW214114   3.761   3.160   6.250 -2.3574  0.0203  0.8854
 4477SOL     OW14115   3.940   6.300   3.209  0.6461  0.5152 -0.8474
 4477SOL    HW114116   4.004   6.237   3.174 -0.5270 -0.0688 -2.0405
 4477SOL    HW214117   3.977   6.386   3.187  2.2285  0.2882  0.7220
 4478SOL     OW14118   0.697   0.866   7.199  0.0770  0.5613 -0.8328
 4478SOL    HW114119   0.642   0.882   7.122 -1.9766 -0.0604  0.4446
 4478SOL    HW214120   0.727   0.953   7.226 -1.4884  1.0899 -0.7173
 4479SOL     OW14121   1.948   5.786   7.270 -0.0394 -0.6770 -0.0646
 4479SOL    HW114122   2.004   5.731   7.326 -0.3617  2.2841  3.5408
 4479SOL    HW214123   1.912   5.851   7.330 -0.5214  2.8491 -3.7918
 4480SOL     OW14124   0.447   4.076   4.691  0.2959 -0.0943 -0.2743
 4480SOL    HW114125   0.498   4.067   4.610 -1.5076 -0.4930 -1.4170
 4480SOL    HW214126   0.378   4.011   4.683 -0.6718  0.7276  1.0250
 4481SOL     OW14127   0.486   1.657   4.060  0.7870 -0.0871  0.0544
 4481SOL    HW114128   0.504   1.586   4.000  1.9815  2.1171 -2.3995
 4481SOL    HW214129   0.566   1.709   4.062 -0.3638  1.7987  0.8233
 4482SOL     OW14130   5.120   1.335   7.391  0.6623  0.1953 -0.4093
 4482SOL    HW114131   5.078   1.271   7.334 -1.3132  2.3891 -1.5799
 4482SOL    HW214132   5.102   1.419   7.350  2.6340  1.5978  1.3800
 4483SOL     OW14133   5.391   6.018   3.219 -0.6973 -0.0104 -0.0971
 4483SOL    HW114134   5.415   5.959   3.147 -0.0197 -0.5384  0.5394
 4483SOL    HW214135   5.469   6.072   3.233 -0.2127 -0.9994  1.2720
 4484SOL     OW14136   1.871   1.767   2.140  1.2519 -0.3453 -0.1068
 4484SOL    HW114137   1.830   1.797   2.221  1.7867  0.2183 -0.0293
 4484SOL    HW214138   1.948   1.719   2.169  0.4697 -1.7155 -0.2390
 4485SOL     OW14139   0.770   2.274   6.818  0.0498 -0.1029 -0.3067
 4485SOL    HW114140   0.859   2.308   6.825 -0.1655  0.7030 -1.1500
 4485SOL    HW214141   0.716   2.339   6.864 -0.3395  0.6150 -1.7214
 4486SOL     OW14142   4.088   5.318   1.485 -0.6500  0.0674  0.1840
 4486SOL    HW114143   4.026   5.340   1.554  0.6667  0.6862  1.2217
 4486SOL    HW214144   4.133   5.240   1.516 -0.4511  0.0115 -0.2379
 4487SOL     OW14145   6.221   7.256   4.251 -0.8979 -0.2400 -0.2900
 4487SOL    HW114146   6.211   7.170   4.293 -0.0251  0.2129  0.9094
 4487SOL    HW214147   6.307   7.252   4.210  0.3200  0.8795  1.9442
 4488SOL     OW14148   0.573   0.214   5.575 -0.8123  0.4281 -0.8104
 4488SOL    HW114149   0.642   0.267   5.536 -0.5465 -0.4346 -1.5444
 4488SOL    HW214150   0.599   0.124   5.558 -1.5859  0.0663 -0.1569
 4489SOL     OW14151   0.715   4.003   7.590 -0.0931 -0.0763 -0.5761
 4489SOL    HW114152   0.748   4.092   7.605 -2.7148  0.9866 -0.4538
 4489SOL    HW214153   0.685   3.973   7.676  1.0537 -1.2379 -0.5588
 4490SOL     OW14154   4.137   0.467   1.648 -0.0636 -0.4748  0.5237
 4490SOL    HW114155   4.197   0.463   1.573 -1.0237  0.7787 -0.3657
 4490SOL    HW214156   4.093   0.382   1.647 -1.9780  0.4097 -2.0706
 4491SOL     OW14157   6.768   3.893   2.956  0.6736  0.4700 -0.2114
 4491SOL    HW114158   6.749   3.799   2.957 -0.9004  0.7622 -0.4459
 4491SOL    HW214159   6.827   3.905   2.882 -0.0457 -0.1794 -0.9052
 4492SOL     OW14160   6.274   6.016   4.958 -0.0547  0.2962  0.1016
 4492SOL    HW114161   6.225   6.053   4.883  2.0266  0.9310 -1.0213
 4492SOL    HW214162   6.269   5.921   4.945 -1.8192  0.2744  0.6118
 4493SOL     OW14163   5.954   4.812   4.634  0.6829 -0.2640  0.0606
 4493SOL    HW114164   5.933   4.726   4.671 -2.7469  0.1883 -0.4897
 4493SOL    HW214165   5.906   4.814   4.551  0.5696  2.2337  0.1379
 4494SOL     OW14166   1.573   0.907   5.766 -0.6293 -0.4472  0.2097
 4494SOL    HW114167   1.593   0.833   5.709 -2.0252 -0.5851 -0.1428
 4494SOL    HW214168   1.613   0.885   5.850 -0.9718 -1.5663  0.0940
 4495SOL     OW14169   1.364   6.153   4.987 -0.5020  0.4409  0.0368
 4495SOL    HW114170   1.422   6.077   4.985  0.4226  1.0974  0.9117
 4495SOL    HW214171   1.379   6.196   4.902 -1.0970 -0.3856 -0.4968
 4496SOL     OW14172   4.277   2.171   5.846  0.3474  0.5175  0.7367
 4496SOL    HW114173   4.235   2.190   5.762 -1.0604  1.2136  1.5516
 4496SOL    HW214174   4.339   2.243   5.859  1.2204 -0.0648 -0.0929
 4497SOL     OW14175   5.298   2.815   5.963  0.0255 -0.6817 -0.1087
 4497SOL    HW114176   5.350   2.785   5.889  0.6750 -1.1520  0.5183
 4497SOL    HW214177   5.333   2.767   6.038 -0.0823  0.3528  0.6398
 4498SOL     OW14178   0.158   2.484   7.286 -0.2206 -0.0841  0.1240
 4498SOL    HW114179   0.156   2.533   7.204  1.0565 -0.3815 -0.1072
 4498SOL    HW214180   0.100   2.533   7.345  0.6818  1.4780 -0.2248
 4499SOL     OW14181   5.564   2.260   6.695  0.0584 -0.6257 -0.9198
 4499SOL    HW114182   5.530   2.347   6.673  0.3817 -0.5160 -0.9825
 4499SOL    HW214183   5.639   2.248   6.638 -0.1212 -1.0437 -1.0752
 4500SOL     OW14184   1.744   7.065   4.352  0.2614  0.5776 -0.1485
 4500SOL    HW114185   1.770   6.984   4.397 -3.3602 -1.2404 -0.9251
 4500SOL    HW214186   1.752   7.044   4.259  0.0737  1.4189 -0.3605
 4501SOL     OW14187   5.997   1.500   4.205 -0.0044  0.3623  0.5228
 4501SOL    HW114188   5.914   1.491   4.252 -0.3928  1.6588  0.1160
 4501SOL    HW214189   5.972   1.533   4.118  0.9447  0.8948  0.4368
 4502SOL     OW14190   7.735   6.466   1.697 -0.9412 -0.1042 -0.3181
 4502SOL    HW114191   7.699   6.488   1.610 -1.2158  0.2537 -0.1183
 4502SOL    HW214192   7.710   6.375   1.710  1.5666 -1.1239 -1.8414
 4503SOL     OW14193   7.689   7.501   6.493 -0.3316 -0.7849  0.0396
 4503SOL    HW114194   7.647   7.438   6.551 -1.0884 -0.6278 -0.3326
 4503SOL    HW214195   7.619   7.533   6.437 -0.3350  1.6404  1.3043
 4504SOL     OW14196   1.372   2.212   2.940 -0.3471 -0.1269 -0.3603
 4504SOL    HW114197   1.342   2.151   2.872  2.5800 -3.0792  0.7101
 4504SOL    HW214198   1.410   2.155   3.007  2.6793  2.8906  0.7413
 4505SOL     OW14199   4.978   5.370   2.878  0.2510 -0.2225 -0.1674
 4505SOL    HW114200   4.940   5.451   2.911 -2.5629 -0.4636 -2.4782
 4505SOL    HW214201   4.972   5.309   2.952 -4.8612 -0.4883 -0.4580
 4506SOL     OW14202   0.894   6.766   1.735 -0.2715  0.0542  0.0487
 4506SOL    HW114203   0.831   6.764   1.663  2.4875  1.3724 -2.6641
 4506SOL    HW214204   0.902   6.858   1.758  0.7298 -0.0516  0.1975
 4507SOL     OW14205   3.839   7.165   4.766  0.0593 -0.2029  0.0603
 4507SOL    HW114206   3.923   7.172   4.720  0.1170 -0.0726  0.1866
 4507SOL    HW214207   3.783   7.229   4.722  0.7782  1.6076  1.6407
 4508SOL     OW14208   1.552   5.110   4.848  0.6037 -0.3475  0.1593
 4508SOL    HW114209   1.472   5.155   4.820  0.2203 -1.7371 -1.1363
 4508SOL    HW214210   1.521   5.032   4.894  1.2271 -0.2350  0.7785
 4509SOL     OW14211   4.672   3.221   3.514  0.5193 -0.4868 -0.6672
 4509SOL    HW114212   4.743   3.238   3.453 -1.4936  2.1712 -2.4911
 4509SOL    HW214213   4.609   3.168   3.465 -0.1220 -0.2289 -0.1467
 4510SOL     OW14214   6.377   5.084   1.308  0.2144  0.3129  0.6543
 4510SOL    HW114215   6.467   5.114   1.313  1.6244 -3.4302  1.6554
 4510SOL    HW214216   6.342   5.096   1.396 -0.1134  1.2369  0.4099
 4511SOL     OW14217   0.856   4.235   3.550  0.0148  0.4833 -0.6903
 4511SOL    HW114218   0.898   4.176   3.612 -2.0804 -1.4209 -0.9376
 4511SOL    HW214219   0.879   4.323   3.580  0.3024 -0.3913  1.8580
 4512SOL     OW14220   0.758   7.273   3.502 -0.2590  0.4334  0.1532
 4512SOL    HW114221   0.701   7.231   3.566  0.0408  0.6444  0.5663
 4512SOL    HW214222   0.769   7.363   3.535  1.1994  0.0920  0.7067
 4513SOL     OW14223   6.583   5.530   2.542 -0.9389  0.4323 -0.2626
 4513SOL    HW114224   6.668   5.551   2.503 -1.0573 -0.3556 -0.9627
 4513SOL    HW214225   6.547   5.615   2.568 -0.4760  0.8840 -1.0860
 4514SOL     OW14226   7.750   7.144   0.749 -0.2483 -0.3320 -0.0153
 4514SOL    HW114227   7.662   7.180   0.742 -0.0882  0.2783  0.9745
 4514SOL    HW214228   7.808   7.219   0.734  0.0916 -0.1784  1.8312
 4515SOL     OW14229   7.309   5.765   5.296 -0.0179  0.3335 -0.6882
 4515SOL    HW114230   7.240   5.799   5.240  0.4642  0.2173 -1.3717
 4515SOL    HW214231   7.276   5.680   5.327  1.2580 -1.5759 -4.0497
 4516SOL     OW14232   2.377   6.748   3.471 -0.0371 -0.3647 -0.2656
 4516SOL    HW114233   2.303   6.763   3.412 -1.0351 -0.2111  0.9787
 4516SOL    HW214234   2.339   6.699   3.545  1.2729 -0.9822  0.0248
 4517SOL     OW14235   7.627   2.085   2.632  0.3689  0.1921  1.0169
 4517SOL    HW114236   7.581   2.030   2.568  3.0975 -1.1361  0.0077
 4517SOL    HW214237   7.638   2.029   2.709  0.0067  0.6199  1.3847
 4518SOL     OW14238   0.600   0.162   2.325 -0.4764  0.6651  0.1190
 4518SOL    HW114239   0.679   0.216   2.329 -0.4273  0.5430  0.8468
 4518SOL    HW214240   0.620   0.085   2.378 -0.8156  0.2765 -0.3095
 4519SOL     OW14241   3.591   2.602   2.488  0.4338 -0.0824  0.2245
 4519SOL    HW114242   3.577   2.656   2.565 -0.5247 -1.2124  0.8760
 4519SOL    HW214243   3.549   2.519   2.508  0.2964 -0.4688 -1.4560
 4520SOL     OW14244   3.085   3.239   1.651 -0.2339 -0.0536  0.3054
 4520SOL    HW114245   3.048   3.228   1.739  0.7755  1.7586  1.0240
 4520SOL    HW214246   3.104   3.332   1.645  0.2663 -0.2364 -1.6489
 4521SOL     OW14247   6.192   0.134   4.463  0.1453 -0.2215  0.4815
 4521SOL    HW114248   6.287   0.122   4.457 -0.0125 -0.6314 -1.6466
 4521SOL    HW214249   6.181   0.229   4.465  0.6238 -0.1458  2.3827
 4522SOL     OW14250   7.419   2.554   1.037 -0.2581  0.1696  0.6752
 4522SOL    HW114251   7.452   2.467   1.013 -1.0506  0.0887 -0.1980
 4522SOL    HW214252   7.440   2.609   0.962 -1.8813  0.1590  0.1787
 4523SOL     OW14253   4.134   3.384   2.595 -0.1433 -0.4247  0.0582
 4523SOL    HW114254   4.067   3.440   2.555 -0.1641 -0.4574  0.0474
 4523SOL    HW214255   4.162   3.326   2.525  0.1702 -0.1560 -0.0366
 4524SOL     OW14256   7.571   2.460   3.327  0.0629  0.4773  0.2956
 4524SOL    HW114257   7.631   2.392   3.358 -0.8122  0.2229  1.5099
 4524SOL    HW214258   7.567   2.523   3.399 -1.1699  0.4566  0.2564
 4525SOL     OW14259   3.951   5.017   0.903  0.0148  0.0655 -0.6821
 4525SOL    HW114260   3.954   4.922   0.911 -1.3629 -0.0873 -1.6581
 4525SOL    HW214261   4.024   5.048   0.957  0.9700 -1.5719 -0.9681
 4526SOL     OW14262   7.231   5.415   0.087 -0.1228 -0.4997  0.2647
 4526SOL    HW114263   7.226   5.320   0.095  2.3073 -0.6471  0.9626
 4526SOL    HW214264   7.171   5.437   0.016 -0.7817 -2.5319  0.1341
 4527SOL     OW14265   1.565   4.335   2.775  0.1498  0.2037  0.6820
 4527SOL    HW114266   1.548   4.243   2.754 -0.9555  0.4542  0.4258
 4527SOL    HW214267   1.480   4.378   2.763  0.4777  1.1195  1.5377
 4528SOL     OW14268   3.045   6.956   6.596  0.3648 -0.2782  0.5019
 4528SOL    HW114269   3.110   6.887   6.581  2.6134  2.1048 -1.7054
 4528SOL    HW214270   2.963   6.909   6.610  1.7697 -3.3840 -0.7814
 4529SOL     OW14271   4.657   5.059   3.428 -0.3818 -0.3609 -0.3366
 4529SOL    HW114272   4.751   5.072   3.416 -0.2940 -0.7028 -0.0335
 4529SOL    HW214273   4.622   5.064   3.339 -0.1047 -0.0372 -0.4317
 4530SOL     OW14274   3.676   3.172   1.878 -0.6734 -0.4273 -0.4023
 4530SOL    HW114275   3.666   3.122   1.959  2.3431 -0.4010  0.1198
 4530SOL    HW214276   3.655   3.262   1.903 -0.5737 -0.5524  0.1540
 4531SOL     OW14277   3.186   5.240   0.460 -0.0737 -0.1594  0.0595
 4531SOL    HW114278   3.210   5.265   0.370 -0.8339  0.4627  0.0184
 4531SOL    HW214279   3.091   5.244   0.461 -0.0305  2.0279  1.4861
 4532SOL     OW14280   1.773   5.915   0.951 -0.4937  0.8718  0.0420
 4532SOL    HW114281   1.728   5.946   0.873  1.2872  3.2945 -0.1587
 4532SOL    HW214282   1.737   5.968   1.022  0.2993  1.1448  0.2590
 4533SOL     OW14283   0.931   6.535   5.729 -0.0708  0.6140 -0.4300
 4533SOL    HW114284   0.862   6.519   5.665  0.2498  0.8327 -0.8379
 4533SOL    HW214285   0.900   6.610   5.780 -0.5970  0.0717  0.0734
 4534SOL     OW14286   6.745   6.334   6.346  0.8571 -0.2502  0.1132
 4534SOL    HW114287   6.765   6.245   6.374  1.9238  0.0903  0.4874
 4534SOL    HW214288   6.776   6.390   6.418 -1.6755  0.3371  0.8244
 4535SOL     OW14289   1.312   0.150   1.503  0.3757  0.0909  1.2599
 4535SOL    HW114290   1.258   0.175   1.578 -3.0639 -2.2618 -0.2140
 4535SOL    HW214291   1.257   0.167   1.427  0.9584 -3.7839 -0.2716
 4536SOL     OW14292   4.944   4.429   7.380  0.0659 -0.9599  0.3816
 4536SOL    HW114293   4.938   4.343   7.339  2.0658 -0.2165 -1.6957
 4536SOL    HW214294   4.854   4.450   7.404 -0.6278 -3.1479 -0.0342
 4537SOL     OW14295   6.583   5.889   3.922  0.2779 -0.3635 -0.4357
 4537SOL    HW114296   6.503   5.910   3.971  0.8414  1.8314 -0.3440
 4537SOL    HW214297   6.643   5.855   3.988 -0.0864 -0.5855 -0.2176
 4538SOL     OW14298   1.537   4.644   0.401 -0.0405 -0.1845 -0.5010
 4538SOL    HW114299   1.615   4.674   0.354 -1.5955  2.4629 -1.5946
 4538SOL    HW214300   1.509   4.720   0.453 -0.5255 -1.8568  1.8426
 4539SOL     OW14301   2.850   5.810   4.614  0.2181  0.1106 -0.7419
 4539SOL    HW114302   2.919   5.744   4.603  0.7809  0.5304  0.1154
 4539SOL    HW214303   2.889   5.891   4.582 -0.0686  0.2419 -0.7571
 4540SOL     OW14304   7.402   3.232   4.749 -0.2458 -0.5468 -0.4517
 4540SOL    HW114305   7.446   3.315   4.729 -0.4697 -0.5392 -0.9313
 4540SOL    HW214306   7.406   3.226   4.844 -2.7957  1.4794 -0.1053
 4541SOL     OW14307   2.190   3.090   6.822 -0.1243  0.3872 -0.1373
 4541SOL    HW114308   2.172   3.129   6.908 -0.4395  0.6647 -0.3317
 4541SOL    HW214309   2.284   3.072   6.824  0.0053  1.0555 -0.0027
 4542SOL     OW14310   7.564   0.890   4.857  0.3384 -0.3144  0.4858
 4542SOL    HW114311   7.569   0.981   4.888  0.2241 -0.2538  0.3216
 4542SOL    HW214312   7.472   0.877   4.834  0.3544 -0.4730  0.5097
 4543SOL     OW14313   0.350   5.615   0.290  0.2158 -0.5581  0.2239
 4543SOL    HW114314   0.319   5.703   0.272 -0.7444 -0.0681  3.6792
 4543SOL    HW214315   0.295   5.559   0.235  0.6154  0.8769 -1.7646
 4544SOL     OW14316   1.836   6.379   3.241  0.0414  0.2206  0.1199
 4544SOL    HW114317   1.826   6.382   3.336  0.5113  0.2408  0.1748
 4544SOL    HW214318   1.772   6.441   3.207 -1.4972 -1.2035  0.3079
 4545SOL     OW14319   3.692   0.404   7.379 -0.1820  0.1379  0.4051
 4545SOL    HW114320   3.781   0.427   7.405  0.1679  0.6590 -1.1959
 4545SOL    HW214321   3.638   0.432   7.453  1.0038 -0.7624  1.6905
 4546SOL     OW14322   0.311   7.700   7.455  0.2536 -0.2975  0.3347
 4546SOL    HW114323   0.290   7.653   7.374  2.8221  0.7100 -1.0350
 4546SOL    HW214324   0.405   7.689   7.466  0.0259 -0.2207  3.1348
 4547SOL     OW14325   0.481   7.299   4.655  0.5352 -0.5546  0.2215
 4547SOL    HW114326   0.545   7.303   4.726  0.7735 -0.4061  0.0026
 4547SOL    HW214327   0.532   7.272   4.578 -0.0460 -2.6103  0.4934
 4548SOL     OW14328   3.107   4.869   0.338  0.3969 -0.1266  0.2446
 4548SOL    HW114329   3.146   4.940   0.388 -1.1479  0.4175  0.7577
 4548SOL    HW214330   3.138   4.882   0.249  0.1635  1.2072  0.3312
 4549SOL     OW14331   3.192   3.367   3.355 -0.6872 -0.0942 -0.4238
 4549SOL    HW114332   3.154   3.443   3.311 -1.7845  0.7843  1.8838
 4549SOL    HW214333   3.258   3.404   3.414 -0.5784 -1.0118  0.0483
 4550SOL     OW14334   5.675   0.972   2.243 -0.0961  0.2585  0.3016
 4550SOL    HW114335   5.652   1.038   2.177 -0.7324  0.9981  1.2354
 4550SOL    HW214336   5.664   0.888   2.198  0.2135  0.7632 -0.7513
 4551SOL     OW14337   2.799   6.680   0.329  0.6420  0.2783  0.4332
 4551SOL    HW114338   2.874   6.621   0.331  0.4450  0.0343  0.7489
 4551SOL    HW214339   2.812   6.738   0.404 -0.7384 -1.3510  2.0253
 4552SOL     OW14340   3.001   0.936   0.089 -0.0564 -0.3783 -0.6441
 4552SOL    HW114341   3.081   0.969   0.049 -0.1506 -0.1730 -0.6652
 4552SOL    HW214342   2.978   1.001   0.155 -0.2366 -0.4061 -0.6768
 4553SOL     OW14343   4.561   3.221   1.663 -0.6284 -0.7672 -0.4839
 4553SOL    HW114344   4.591   3.267   1.585 -0.7103 -0.0872 -0.1217
 4553SOL    HW214345   4.637   3.173   1.694 -0.9302 -2.1141 -1.7220
 4554SOL     OW14346   3.070   0.537   0.292  0.3976 -0.1579  0.4314
 4554SOL    HW114347   3.150   0.556   0.244 -0.6834 -1.3132 -2.0337
 4554SOL    HW214348   3.077   0.444   0.313  1.2559  0.5087  3.5032
 4555SOL     OW14349   5.567   4.759   0.832  0.7910 -0.5322 -0.0902
 4555SOL    HW114350   5.566   4.706   0.912 -1.3659 -0.3009  0.1061
 4555SOL    HW214351   5.518   4.706   0.768 -0.2757  0.6361 -0.2781
 4556SOL     OW14352   1.197   5.434   5.914  0.0144 -0.1472  0.2294
 4556SOL    HW114353   1.146   5.412   5.992  0.0119 -1.7959 -0.1873
 4556SOL    HW214354   1.133   5.436   5.843  0.0115  1.3783  0.2478
 4557SOL     OW14355   0.070   0.863   3.876 -0.3302  0.0045  0.1663
 4557SOL    HW114356   0.116   0.844   3.794 -1.0277  1.1721 -0.5290
 4557SOL    HW214357   0.121   0.935   3.915  0.1155 -0.6814  0.8717
 4558SOL     OW14358   3.385   0.927   2.292  0.0936  0.3014 -0.6031
 4558SOL    HW114359   3.325   0.959   2.360 -0.6460  1.5459 -1.7704
 4558SOL    HW214360   3.445   1.001   2.276  0.3993 -0.0508 -1.1285
 4559SOL     OW14361   5.208   6.804   4.009  0.1428  0.6505  0.5350
 4559SOL    HW114362   5.133   6.842   4.054  0.6824 -0.8201  2.8354
 4559SOL    HW214363   5.171   6.742   3.946 -0.5921  2.0008 -0.4211
 4560SOL     OW14364   1.406   7.152   1.351 -0.1832 -0.3123  0.6169
 4560SOL    HW114365   1.432   7.245   1.347 -2.8465  0.5675  1.4891
 4560SOL    HW214366   1.335   7.145   1.288  0.3064 -1.9119  0.2227
 4561SOL     OW14367   7.088   1.886   2.150  0.2276  0.1742 -0.1602
 4561SOL    HW114368   7.087   1.794   2.177  0.1754  0.7680  2.0801
 4561SOL    HW214369   6.996   1.905   2.128  0.3472 -0.4498 -1.2722
 4562SOL     OW14370   6.263   0.074   2.577  0.2434 -1.0733 -0.6269
 4562SOL    HW114371   6.200   0.051   2.645  0.2593  0.4666 -0.0624
 4562SOL    HW214372   6.348   0.077   2.622  0.3370 -0.6101 -0.8262
 4563SOL     OW14373   7.321   6.616   0.202 -0.3440  0.3108  0.2585
 4563SOL    HW114374   7.415   6.599   0.209  0.0315  1.8925 -0.5161
 4563SOL    HW214375   7.295   6.572   0.121 -0.2238  0.0715  0.3488
 4564SOL     OW14376   3.687   0.869   1.247  0.1017  0.0352  0.1997
 4564SOL    HW114377   3.760   0.884   1.188 -0.9331  0.9447 -0.9025
 4564SOL    HW214378   3.627   0.814   1.197 -0.2456 -0.1952  0.8572
 4565SOL     OW14379   3.165   3.636   5.265  0.2799  0.4251  0.0407
 4565SOL    HW114380   3.224   3.698   5.305 -2.0522  2.3311  0.7725
 4565SOL    HW214381   3.137   3.678   5.183  0.9216 -1.0544 -0.9995
 4566SOL     OW14382   7.213   5.649   5.786  0.5172 -0.0359  0.2199
 4566SOL    HW114383   7.308   5.636   5.781  0.4242 -0.7547  0.1396
 4566SOL    HW214384   7.192   5.632   5.878  0.6197  1.3286  0.5136
 4567SOL     OW14385   2.889   2.341   4.673 -0.5025  0.0141  0.6032
 4567SOL    HW114386   2.924   2.264   4.717  1.4854  0.8955  0.6955
 4567SOL    HW214387   2.810   2.363   4.722 -0.2945 -1.0951  1.4860
 4568SOL     OW14388   3.291   1.047   2.825  0.5180 -0.2061  0.1272
 4568SOL    HW114389   3.361   1.099   2.786  0.3914  0.6418  1.0050
 4568SOL    HW214390   3.265   1.095   2.903 -1.3778 -0.2587 -0.4247
 4569SOL     OW14391   0.638   7.255   4.439 -0.0498  0.0009 -0.0403
 4569SOL    HW114392   0.673   7.166   4.444 -0.9845 -0.3846  0.0177
 4569SOL    HW214393   0.713   7.312   4.452  0.0017 -0.7645  5.3916
 4570SOL     OW14394   5.622   1.104   6.020  0.2999 -0.0478  0.0621
 4570SOL    HW114395   5.618   1.118   6.114 -0.0792  0.6114 -0.0458
 4570SOL    HW214396   5.591   1.187   5.982 -0.0601 -0.4906 -0.6290
 4571SOL     OW14397   3.320   0.101   0.192  0.6615  0.1019  0.0575
 4571SOL    HW114398   3.306   0.015   0.230  0.0955  0.5352  0.8608
 4571SOL    HW214399   3.372   0.149   0.257 -0.6216  0.9654  0.4998
 4572SOL     OW14400   2.836   3.703   3.839 -0.3397 -0.4295  0.4072
 4572SOL    HW114401   2.759   3.681   3.787 -0.7395  0.7340  0.4859
 4572SOL    HW214402   2.876   3.777   3.793  0.2925 -0.5229  0.7951
 4573SOL     OW14403   7.112   7.691   5.473  0.0874 -0.4449  0.1634
 4573SOL    HW114404   7.106   7.754   5.544 -1.1085 -1.2706  0.8263
 4573SOL    HW214405   7.136   7.744   5.396 -0.1585  0.6986  0.8478
 4574SOL     OW14406   6.684   7.430   7.364  0.0414  0.0475  0.1322
 4574SOL    HW114407   6.689   7.523   7.343 -1.2026  0.4749  1.5547
 4574SOL    HW214408   6.745   7.388   7.303 -0.7647  1.5576 -1.8252
 4575SOL     OW14409   6.906   3.423   1.757  0.3555  0.1015  0.7983
 4575SOL    HW114410   6.873   3.354   1.700  1.5489  0.7353 -0.7425
 4575SOL    HW214411   6.994   3.394   1.782  0.7395  0.8730  0.3971
 4576SOL     OW14412   0.210   6.608   5.670 -0.5605  0.3038  0.3792
 4576SOL    HW114413   0.291   6.607   5.720 -0.3612  1.7326  0.1285
 4576SOL    HW214414   0.147   6.653   5.726 -1.5660 -1.7973  1.0598
 4577SOL     OW14415   1.319   4.410   7.611 -0.9736  0.0838  0.7859
 4577SOL    HW114416   1.301   4.457   7.530  1.9543 -0.1516 -0.1057
 4577SOL    HW214417   1.279   4.465   7.679  0.1835  2.6076 -0.4421
 4578SOL     OW14418   0.536   5.715   2.652 -0.3975  0.6866  0.3660
 4578SOL    HW114419   0.470   5.680   2.592  0.6680 -1.9962  0.6259
 4578SOL    HW214420   0.613   5.729   2.597 -0.3356  1.1879  0.5725
 4579SOL     OW14421   4.681   6.905   0.873  0.6363  0.2636 -0.1817
 4579SOL    HW114422   4.623   6.851   0.927  2.1713  1.4396  2.8736
 4579SOL    HW214423   4.622   6.948   0.810 -1.5303 -0.1275  1.4595
 4580SOL     OW14424   2.483   4.109   2.363 -0.2012  0.2596 -0.4462
 4580SOL    HW114425   2.490   4.109   2.458  1.1283  1.2873 -0.5338
 4580SOL    HW214426   2.563   4.067   2.332 -1.8030 -2.6677 -1.1077
 4581SOL     OW14427   7.048   6.475   6.251  0.3212  0.2680  0.2135
 4581SOL    HW114428   6.974   6.526   6.284  1.1461  2.7635 -1.4953
 4581SOL    HW214429   7.008   6.407   6.197 -0.7980  2.1122 -1.4041
 4582SOL     OW14430   0.655   2.968   4.731 -0.2730  0.0887 -0.4550
 4582SOL    HW114431   0.614   3.004   4.653  0.2470 -0.1997 -0.8644
 4582SOL    HW214432   0.742   2.940   4.702 -0.8505 -2.0136 -0.3101
 4583SOL     OW14433   0.676   7.463   0.098  0.2172  0.2931  0.6030
 4583SOL    HW114434   0.771   7.464   0.108  0.2317  3.0019  0.7486
 4583SOL    HW214435   0.662   7.436   0.007  1.0769 -0.5590  0.7082
 4584SOL     OW14436   1.970   3.251   3.545  0.1310  0.2017  0.4027
 4584SOL    HW114437   1.925   3.238   3.461 -0.7176  0.7174  0.7667
 4584SOL    HW214438   2.059   3.220   3.529 -0.6623 -2.0704  0.0449
 4585SOL     OW14439   6.637   2.708   0.764  0.1405  0.2656 -0.0909
 4585SOL    HW114440   6.577   2.781   0.748 -0.2396 -0.4194 -2.0846
 4585SOL    HW214441   6.587   2.630   0.739  1.9337 -0.2986 -2.1998
 4586SOL     OW14442   5.991   6.072   3.120  0.0881 -0.2957 -0.9015
 4586SOL    HW114443   5.926   6.049   3.186  0.9812 -1.2027 -0.3067
 4586SOL    HW214444   5.941   6.080   3.038 -0.7136 -1.3793 -0.5411
 4587SOL     OW14445   2.170   6.608   0.124  0.0445 -0.6924 -0.4760
 4587SOL    HW114446   2.212   6.534   0.168  0.5294  0.2109  0.6197
 4587SOL    HW214447   2.181   6.589   0.031  2.5107 -0.7341 -0.2472
 4588SOL     OW14448   6.105   5.309   0.917 -0.2221 -0.0127 -0.4266
 4588SOL    HW114449   6.184   5.309   0.972 -0.3924  1.3462 -0.1665
 4588SOL    HW214450   6.079   5.217   0.913 -0.4056 -0.1191  2.0675
 4589SOL     OW14451   1.666   3.391   4.062 -0.1104 -0.1566 -0.0443
 4589SOL    HW114452   1.621   3.350   4.135 -0.3102 -1.0347 -0.6509
 4589SOL    HW214453   1.724   3.456   4.103 -1.9558  1.0744  0.7363
 4590SOL     OW14454   4.555   6.868   3.041 -0.5888 -0.6178 -0.2118
 4590SOL    HW114455   4.607   6.948   3.041 -0.3602 -0.7318  1.4747
 4590SOL    HW214456   4.508   6.870   2.958  1.4872 -0.1167 -1.4411
 4591SOL     OW14457   0.893   6.434   1.598 -0.3016 -0.4604 -0.7574
 4591SOL    HW114458   0.896   6.430   1.693 -0.5819 -0.2566 -0.7358
 4591SOL    HW214459   0.973   6.481   1.573 -0.3015 -0.3822 -0.6126
 4592SOL     OW14460   2.405   1.039   1.077 -0.0085  0.3622  0.0552
 4592SOL    HW114461   2.420   1.103   1.007 -0.2703  3.6458  2.7751
 4592SOL    HW214462   2.492   1.020   1.112 -0.1135  0.9043  0.6156
 4593SOL     OW14463   2.734   6.705   5.625 -0.0004 -0.1164  0.1871
 4593SOL    HW114464   2.681   6.655   5.687  0.8349  1.3415  2.2003
 4593SOL    HW214465   2.814   6.653   5.615  1.0907  0.8841  2.6746
 4594SOL     OW14466   7.159   4.697   2.708  0.8635 -0.3054  0.2438
 4594SOL    HW114467   7.145   4.610   2.672  0.3377 -0.2792  0.3785
 4594SOL    HW214468   7.162   4.755   2.631  1.6401 -0.4899  0.1248
 4595SOL     OW14469   7.609   3.665   0.239 -0.2731  0.2595 -0.0552
 4595SOL    HW114470   7.624   3.598   0.306  2.7820  0.1328 -0.7243
 4595SOL    HW214471   7.585   3.615   0.161  0.1379  0.0798 -0.0696
 4596SOL     OW14472   6.553   4.388   6.842 -0.3174 -0.2076  0.5696
 4596SOL    HW114473   6.624   4.397   6.906 -0.5224 -0.6549  0.8697
 4596SOL    HW214474   6.504   4.469   6.850 -0.7824 -0.5643  1.5393
 4597SOL     OW14475   2.058   2.731   1.727  0.2173 -0.3834 -0.1956
 4597SOL    HW114476   2.152   2.745   1.731  0.3837 -1.5494  0.3753
 4597SOL    HW214477   2.029   2.784   1.653  1.4676 -0.7279 -0.9643
 4598SOL     OW14478   4.545   1.648   2.205  0.4518  0.1334  0.0686
 4598SOL    HW114479   4.621   1.685   2.159  0.4642 -0.5948 -0.5006
 4598SOL    HW214480   4.470   1.695   2.168  0.4632 -0.4375 -0.6970
 4599SOL     OW14481   0.173   4.625   3.862 -0.2174  0.3106 -0.2909
 4599SOL    HW114482   0.197   4.638   3.771 -2.9990  1.4539 -0.9798
 4599SOL    HW214483   0.178   4.530   3.875 -0.6617  0.0366 -1.9382
 4600SOL     OW14484   2.503   6.630   7.494  0.6693  0.0806  0.3255
 4600SOL    HW114485   2.521   6.678   7.414  1.0409 -2.9661 -1.5879
 4600SOL    HW214486   2.585   6.630   7.542  1.4372 -0.7704 -0.9240
 4601SOL     OW14487   6.184   3.809   0.267 -0.2179  0.4199  0.4441
 4601SOL    HW114488   6.089   3.798   0.274 -0.3061  1.3333  0.8162
 4601SOL    HW214489   6.219   3.721   0.280 -1.0027  0.0941  0.4327
 4602SOL     OW14490   0.610   2.205   7.755  0.0933  0.6433  0.1281
 4602SOL    HW114491   0.541   2.185   7.692  2.1479  0.2312 -2.1455
 4602SOL    HW214492   0.613   2.128   7.813 -1.7317  0.9588  0.6887
 4603SOL     OW14493   4.170   0.660   3.874 -0.1696 -0.3849 -1.1693
 4603SOL    HW114494   4.165   0.566   3.891  0.6577 -0.0045  1.5957
 4603SOL    HW214495   4.096   0.678   3.816 -1.1511 -2.5199 -0.6596
 4604SOL     OW14496   3.801   7.464   0.878  0.1713 -0.2193  0.3591
 4604SOL    HW114497   3.798   7.426   0.790 -0.0559  0.7087 -0.0398
 4604SOL    HW214498   3.893   7.487   0.891  0.4332 -1.4832  0.8634
 4605SOL     OW14499   5.668   7.455   7.326 -0.1806 -0.7441 -0.6223
 4605SOL    HW114500   5.735   7.389   7.345  0.1596 -0.2911 -0.2207
 4605SOL    HW214501   5.683   7.479   7.235  0.2749 -0.5680 -0.5018
 4606SOL     OW14502   4.172   4.780   7.417  0.5105 -0.8155  0.5124
 4606SOL    HW114503   4.103   4.784   7.351  1.3191 -1.8509 -0.4424
 4606SOL    HW214504   4.227   4.856   7.398  0.2686 -0.6286  0.5529
 4607SOL     OW14505   6.927   4.381   2.700 -0.0778  0.6093  0.3428
 4607SOL    HW114506   6.934   4.421   2.787  0.9830 -0.2472  0.6831
 4607SOL    HW214507   7.017   4.380   2.668 -0.2366 -0.4800 -0.1074
 4608SOL     OW14508   1.896   1.110   5.998 -0.1689  0.4619 -0.3053
 4608SOL    HW114509   1.958   1.182   5.994 -0.4028  0.6727 -0.1850
 4608SOL    HW214510   1.816   1.145   5.958 -0.9124  0.9285  1.4847
 4609SOL     OW14511   1.596   5.030   3.575  0.3063  0.8845 -0.4983
 4609SOL    HW114512   1.522   5.001   3.521  1.5057  1.9135 -2.7947
 4609SOL    HW214513   1.661   4.960   3.567  0.2820  0.7801  0.1259
 4610SOL     OW14514   4.277   4.578   7.571  0.0689 -0.2817  0.4887
 4610SOL    HW114515   4.271   4.638   7.497 -0.6705  0.6286  1.2751
 4610SOL    HW214516   4.188   4.546   7.584  0.2782 -0.7884  0.7027
 4611SOL     OW14517   4.748   3.295   3.766 -0.4829  0.7512 -0.2533
 4611SOL    HW114518   4.688   3.256   3.829 -0.1786  0.2658 -0.2536
 4611SOL    HW214519   4.719   3.262   3.681 -0.7068  1.1602 -0.3358
 4612SOL     OW14520   0.766   7.233   6.314 -0.3325 -0.1343  0.2274
 4612SOL    HW114521   0.786   7.279   6.396 -1.2092 -0.8181  0.8506
 4612SOL    HW214522   0.748   7.143   6.342 -1.7159 -0.1253 -0.5770
 4613SOL     OW14523   0.273   5.786   1.094  0.2824  0.0395 -0.3734
 4613SOL    HW114524   0.315   5.705   1.066 -0.0543  0.2335 -1.4861
 4613SOL    HW214525   0.197   5.758   1.144  0.8295 -0.3140  0.2797
 4614SOL     OW14526   6.691   3.361   0.468  0.5160 -0.0853 -0.7564
 4614SOL    HW114527   6.607   3.377   0.424 -0.2903 -0.3466  0.6186
 4614SOL    HW214528   6.694   3.267   0.481 -0.6313  0.1893  2.2040
 4615SOL     OW14529   5.903   3.945   0.159  0.0591 -0.2169  0.0808
 4615SOL    HW114530   5.892   4.020   0.101  1.7513  0.3538  0.4302
 4615SOL    HW214531   5.947   3.981   0.236 -0.8635 -1.2246  1.1177
 4616SOL     OW14532   0.544   3.083   1.633  0.4361  0.3978 -0.2542
 4616SOL    HW114533   0.617   3.068   1.694  0.6413 -0.5057 -0.6963
 4616SOL    HW214534   0.512   2.995   1.614 -1.5182  0.8142  0.8057
 4617SOL     OW14535   6.209   7.108   6.492  0.1854 -0.2501 -0.2265
 4617SOL    HW114536   6.265   7.035   6.520  0.2926  0.8085  2.6628
 4617SOL    HW214537   6.269   7.182   6.484 -0.2392  0.0113 -1.0721
 4618SOL     OW14538   1.455   4.124   4.542  0.6204  0.3092  0.3200
 4618SOL    HW114539   1.372   4.101   4.583 -0.1231  1.5674 -0.4398
 4618SOL    HW214540   1.472   4.213   4.570  0.5715  0.8680 -1.3161
 4619SOL     OW14541   3.475   1.028   1.384  0.0946  0.4439 -0.1980
 4619SOL    HW114542   3.473   1.122   1.401  0.5223  0.1356  1.7363
 4619SOL    HW214543   3.564   1.010   1.355  0.5090  0.3913  1.0753
 4620SOL     OW14544   6.283   0.359   3.309  0.0728 -0.3121 -0.1011
 4620SOL    HW114545   6.213   0.318   3.258  0.9706 -1.7217 -0.2397
 4620SOL    HW214546   6.328   0.416   3.246  0.9677 -1.7891 -0.8486
 4621SOL     OW14547   4.463   5.201   6.740 -0.2052  0.7929  0.3015
 4621SOL    HW114548   4.508   5.138   6.685  0.5619  0.1520  1.6172
 4621SOL    HW214549   4.371   5.193   6.716  0.2440  1.7482 -2.0557
 4622SOL     OW14550   5.091   4.935   1.260 -0.0943  0.5550 -0.2887
 4622SOL    HW114551   5.004   4.975   1.265  0.0348  0.6809  2.2478
 4622SOL    HW214552   5.151   5.008   1.277  0.3653 -0.0092  0.5174
 4623SOL     OW14553   5.691   7.554   1.745 -0.2368  0.1402  0.2717
 4623SOL    HW114554   5.718   7.601   1.665 -0.8393 -0.5662 -0.3624
 4623SOL    HW214555   5.741   7.473   1.743  0.2155  0.3955  0.9553
 4624SOL     OW14556   3.233   4.717   4.427 -0.5516  0.4242  0.5443
 4624SOL    HW114557   3.179   4.675   4.494 -1.3638 -0.3662 -0.5721
 4624SOL    HW214558   3.308   4.658   4.417 -0.7195  0.2411  0.3539
 4625SOL     OW14559   6.305   4.670   1.786  0.3069 -0.7799 -0.4604
 4625SOL    HW114560   6.373   4.626   1.836 -1.9230 -1.3922  2.2938
 4625SOL    HW214561   6.248   4.600   1.756  0.5974 -0.2476 -2.3821
 4626SOL     OW14562   1.523   4.999   1.540  0.4512  0.3428  0.6743
 4626SOL    HW114563   1.458   4.955   1.596 -1.4318  0.8315 -1.0019
 4626SOL    HW214564   1.470   5.054   1.482  2.4457  1.1735 -0.4279
 4627SOL     OW14565   3.573   4.053   2.742  0.8762  0.1795 -0.0843
 4627SOL    HW114566   3.642   4.024   2.683  1.2659 -0.0664  0.4874
 4627SOL    HW214567   3.574   3.990   2.814  0.8349  0.8310  0.5032
 4628SOL     OW14568   4.173   3.848   4.387 -0.2188  0.2166 -0.6834
 4628SOL    HW114569   4.159   3.927   4.440 -0.2302 -1.7561  2.5230
 4628SOL    HW214570   4.085   3.817   4.367 -0.3029 -0.6365  0.8531
 4629SOL     OW14571   1.091   2.951   4.780 -0.1968 -0.6288 -0.1611
 4629SOL    HW114572   1.085   3.039   4.817  0.8127 -1.3091  1.7607
 4629SOL    HW214573   1.180   2.945   4.745 -0.7471 -0.4127 -1.6735
 4630SOL     OW14574   5.105   7.515   0.995  0.7250 -0.5755 -0.2172
 4630SOL    HW114575   5.069   7.573   1.062 -0.0744 -3.3070  1.9237
 4630SOL    HW214576   5.171   7.568   0.950 -1.1630  2.4929  0.2958
 4631SOL     OW14577   7.576   0.246   3.239  0.5205 -0.0801 -0.2717
 4631SOL    HW114578   7.581   0.310   3.310  0.1337  0.5307 -0.7851
 4631SOL    HW214579   7.509   0.281   3.179 -0.5157 -1.5209 -0.0070
 4632SOL     OW14580   0.038   3.929   3.931  0.1207 -0.2710  0.5354
 4632SOL    HW114581   0.031   3.995   3.862  1.3632  0.4151  1.0227
 4632SOL    HW214582   0.086   3.856   3.890  0.8744  0.1431  0.6519
 4633SOL     OW14583   3.085   2.703   2.407 -0.0511 -0.6286 -0.2084
 4633SOL    HW114584   3.019   2.705   2.477  0.3041  1.1685  0.1174
 4633SOL    HW214585   3.080   2.790   2.367  2.3028 -0.3142  0.0279
 4634SOL     OW14586   2.915   5.338   1.151  0.6238  0.2605  0.8474
 4634SOL    HW114587   2.959   5.320   1.234 -0.8678 -1.0958  1.3879
 4634SOL    HW214588   2.863   5.417   1.169  0.3853  0.0315  1.1700
 4635SOL     OW14589   5.466   5.680   7.561 -0.1515 -0.0433  0.1313
 4635SOL    HW114590   5.495   5.770   7.549  0.3312 -0.1854  0.2163
 4635SOL    HW214591   5.425   5.657   7.478  1.0357 -0.2248 -0.4266
 4636SOL     OW14592   5.304   7.406   3.409  0.6151 -0.2012  0.0518
 4636SOL    HW114593   5.341   7.422   3.322  0.1189  2.0923  0.2085
 4636SOL    HW214594   5.279   7.492   3.441  1.7218 -0.8389  2.9286
 4637SOL     OW14595   1.725   5.800   0.164 -0.0306 -0.4002 -0.5981
 4637SOL    HW114596   1.782   5.798   0.088  2.7111  0.0780  1.2957
 4637SOL    HW214597   1.675   5.718   0.158  1.7588 -1.4902 -1.7685
 4638SOL     OW14598   2.244   3.965   1.712 -1.1628  0.0537 -0.3414
 4638SOL    HW114599   2.213   3.958   1.622 -2.2032 -0.3941  0.0340
 4638SOL    HW214600   2.227   3.879   1.751 -1.0999  0.3564  0.3878
 4639SOL     OW14601   0.852   3.087   5.499  0.2123  0.1966  0.2880
 4639SOL    HW114602   0.811   3.014   5.453 -1.2672  0.6913  0.7592
 4639SOL    HW214603   0.942   3.090   5.465 -0.6595  0.2171 -2.1709
 4640SOL     OW14604   5.374   6.631   4.540 -0.1189  0.3576 -0.0232
 4640SOL    HW114605   5.390   6.655   4.448 -0.7132 -1.1078 -0.5401
 4640SOL    HW214606   5.400   6.539   4.546 -1.9181 -0.1510  0.7539
 4641SOL     OW14607   5.611   5.732   4.270  0.9222 -0.3442  0.1649
 4641SOL    HW114608   5.660   5.814   4.271  0.3527  0.0457 -1.5564
 4641SOL    HW214609   5.531   5.751   4.318 -0.3643  0.9155 -2.3025
 4642SOL     OW14610   1.186   0.637   5.301 -0.1679 -0.2864 -0.0436
 4642SOL    HW114611   1.217   0.646   5.391  0.7812 -0.5986 -0.3293
 4642SOL    HW214612   1.219   0.714   5.256 -0.0977 -0.4525 -0.2769
 4643SOL     OW14613   1.165   6.443   6.295 -0.1182 -0.4570  0.6209
 4643SOL    HW114614   1.238   6.502   6.276 -0.3968  0.0270  0.9942
 4643SOL    HW214615   1.110   6.447   6.217  0.2978 -0.8922  0.3035
 4644SOL     OW14616   4.633   6.098   6.115 -0.1174 -1.0256 -0.3381
 4644SOL    HW114617   4.694   6.118   6.044 -0.2221 -0.1354 -0.1968
 4644SOL    HW214618   4.561   6.160   6.102  1.2381  1.3370  2.2719
 4645SOL     OW14619   5.269   4.908   4.129  0.2429  0.2132  0.6536
 4645SOL    HW114620   5.291   4.952   4.211 -1.3484 -0.2026  1.3602
 4645SOL    HW214621   5.179   4.936   4.110  0.9503  1.2233 -1.6103
 4646SOL     OW14622   5.066   6.247   6.984 -0.2993 -0.3868 -0.3645
 4646SOL    HW114623   5.085   6.276   6.894 -0.1940 -0.8551 -0.4970
 4646SOL    HW214624   5.090   6.155   6.984  1.3303 -0.0007  0.6257
 4647SOL     OW14625   0.397   2.415   5.643  0.9634 -0.2105 -0.3453
 4647SOL    HW114626   0.365   2.460   5.721  0.2905  2.3747 -2.0109
 4647SOL    HW214627   0.480   2.376   5.670  0.1968 -0.4195  1.9491
 4648SOL     OW14628   2.535   1.805   6.846 -0.2087  0.6070 -0.2446
 4648SOL    HW114629   2.452   1.851   6.841 -0.0872  0.9196  0.5427
 4648SOL    HW214630   2.599   1.867   6.811  0.3742  2.1322  3.1945
 4649SOL     OW14631   0.035   0.370   2.996 -0.2267  0.0487  0.1046
 4649SOL    HW114632   0.099   0.333   2.935 -0.4479 -0.7673  0.3543
 4649SOL    HW214633   0.054   0.328   3.080 -0.6251  0.3478  0.3529
 4650SOL     OW14634   4.887   2.770   5.409  0.4710  0.4762  0.1109
 4650SOL    HW114635   4.834   2.847   5.429 -0.7835 -0.5008  0.6521
 4650SOL    HW214636   4.935   2.793   5.329  0.4556  1.9664  0.5078
 4651SOL     OW14637   1.565   6.953   0.459  1.0262  0.4653 -0.0026
 4651SOL    HW114638   1.506   6.921   0.390  0.6172 -0.1738  0.6237
 4651SOL    HW214639   1.647   6.906   0.444  1.0770  0.6555 -0.3174
 4652SOL     OW14640   5.851   3.686   3.627  0.1881  0.2376  0.0715
 4652SOL    HW114641   5.804   3.769   3.634 -1.8753 -0.8865  0.3110
 4652SOL    HW214642   5.913   3.687   3.700 -1.8339  0.3625  1.8653
 4653SOL     OW14643   5.340   4.700   2.440  0.3101 -0.4713 -0.0907
 4653SOL    HW114644   5.315   4.615   2.476  0.6499 -0.3571  0.4281
 4653SOL    HW214645   5.257   4.741   2.417  0.0437 -0.3557  1.0125
 4654SOL     OW14646   5.157   0.560   1.332  0.0694 -0.2699 -0.5005
 4654SOL    HW114647   5.196   0.474   1.317 -0.7656 -0.7891  0.1752
 4654SOL    HW214648   5.063   0.545   1.322 -0.0480  0.7063 -0.9933
 4655SOL     OW14649   1.292   0.507   5.813  0.1160  0.1774 -0.4793
 4655SOL    HW114650   1.229   0.435   5.804 -0.6056  0.6811  0.4549
 4655SOL    HW214651   1.254   0.564   5.879  0.5410  1.5787 -1.3981
 4656SOL     OW14652   0.281   4.952   6.490  0.2033  0.0468 -1.3003
 4656SOL    HW114653   0.303   5.031   6.440  0.6118  0.1678 -0.9418
 4656SOL    HW214654   0.357   4.938   6.547 -1.6353  2.0400  1.9806
 4657SOL     OW14655   4.019   3.090   5.712 -0.1654  0.3788 -0.2272
 4657SOL    HW114656   4.007   3.018   5.650 -1.5897 -0.3514  0.8371
 4657SOL    HW214657   3.993   3.054   5.796  1.1207  1.5369  0.7165
 4658SOL     OW14658   2.610   3.054   7.720 -0.4398 -0.0631  0.4269
 4658SOL    HW114659   2.585   3.106   7.643 -0.4444 -1.2415 -0.3988
 4658SOL    HW214660   2.662   2.982   7.683  0.4766 -0.0600  1.6514
 4659SOL     OW14661   0.226   7.626   7.194 -0.2521 -0.1107 -0.1339
 4659SOL    HW114662   0.306   7.619   7.141  0.2854  2.9270  0.0861
 4659SOL    HW214663   0.204   7.719   7.191 -2.2267 -0.4301  2.0861
 4660SOL     OW14664   6.736   6.175   1.757 -0.5514 -0.5855 -0.2487
 4660SOL    HW114665   6.749   6.080   1.756  0.7939 -0.4393  0.7239
 4660SOL    HW214666   6.788   6.208   1.684 -3.2310 -0.7677 -2.4108
 4661SOL     OW14667   5.873   3.581   3.306 -0.1182 -0.6469 -0.1442
 4661SOL    HW114668   5.964   3.599   3.327 -0.4718  1.2489 -0.0960
 4661SOL    HW214669   5.826   3.597   3.388 -0.6963  0.1843 -0.6205
 4662SOL     OW14670   3.442   6.450   3.500 -0.4563 -0.2784  0.0010
 4662SOL    HW114671   3.502   6.508   3.454  0.7216 -0.0720  1.7214
 4662SOL    HW214672   3.363   6.503   3.513  0.7061  1.1269  1.8154
 4663SOL     OW14673   1.042   1.770   0.778 -0.0873 -0.3109  0.2980
 4663SOL    HW114674   1.039   1.780   0.682 -1.1447 -1.4813  0.1919
 4663SOL    HW214675   1.136   1.772   0.798  0.1714 -0.3077 -0.7964
 4664SOL     OW14676   3.438   3.116   2.258  0.1769  0.1299 -0.4570
 4664SOL    HW114677   3.474   3.200   2.229 -0.8521  0.5458 -0.5922
 4664SOL    HW214678   3.345   3.134   2.271 -0.1686 -1.1407 -1.0488
 4665SOL     OW14679   3.832   7.021   4.425 -0.2282  0.2248 -0.3237
 4665SOL    HW114680   3.892   7.070   4.370 -0.2045  0.7731  0.1807
 4665SOL    HW214681   3.886   6.985   4.495 -0.6249  1.6145  0.7391
 4666SOL     OW14682   4.165   0.192   4.088  0.1079 -0.0467  0.0388
 4666SOL    HW114683   4.197   0.201   4.178  1.5945 -1.2780 -0.3197
 4666SOL    HW214684   4.100   0.122   4.093 -0.5095  0.5300  0.2923
 4667SOL     OW14685   6.368   2.800   0.960 -0.4936  0.5813  0.3684
 4667SOL    HW114686   6.292   2.856   0.972 -1.5282 -0.6064 -0.4455
 4667SOL    HW214687   6.368   2.778   0.867 -0.4193 -1.1403  0.7324
 4668SOL     OW14688   3.915   2.075   7.074  0.4293 -0.0571  0.5439
 4668SOL    HW114689   3.878   2.004   7.021 -0.2544 -0.5702  1.6649
 4668SOL    HW214690   3.839   2.112   7.120  1.0333  0.2180  1.3322
 4669SOL     OW14691   0.522   2.392   0.737  0.1090 -0.6306 -0.0133
 4669SOL    HW114692   0.483   2.404   0.824  1.9787  1.7327  0.6119
 4669SOL    HW214693   0.585   2.321   0.748 -0.5923 -1.2288  0.1975
 4670SOL     OW14694   4.122   1.796   5.913 -0.2115 -0.0749  0.0306
 4670SOL    HW114695   4.079   1.767   5.994 -1.1234  3.5185  0.9849
 4670SOL    HW214696   4.129   1.891   5.921  1.0405  0.2962 -3.5016
 4671SOL     OW14697   1.422   3.452   2.561 -0.2539 -0.5290 -0.1649
 4671SOL    HW114698   1.472   3.519   2.514  0.7015 -1.1943 -0.1250
 4671SOL    HW214699   1.460   3.452   2.649 -1.3108 -0.0394  0.3112
 4672SOL     OW14700   5.966   7.661   4.658 -0.2347  0.8395  0.2144
 4672SOL    HW114701   5.876   7.691   4.646 -0.7935 -0.6359  0.5020
 4672SOL    HW214702   5.959   7.566   4.664  1.1699  0.7904  1.8211
 4673SOL     OW14703   7.654   2.916   0.923  0.2526 -0.1906  0.4306
 4673SOL    HW114704   7.594   2.869   0.865  1.8093 -0.0043 -1.4254
 4673SOL    HW214705   7.637   2.879   1.010 -1.4100 -1.2493 -0.2921
 4674SOL     OW14706   0.450   6.534   7.022  0.5347  0.0877  0.1038
 4674SOL    HW114707   0.420   6.603   7.081  1.0534  1.1754 -0.8703
 4674SOL    HW214708   0.543   6.524   7.041  0.5738  0.0141 -0.1186
 4675SOL     OW14709   2.000   0.198   2.879  0.2914  0.2630 -0.5284
 4675SOL    HW114710   1.913   0.236   2.877  1.9331  4.5646 -0.3157
 4675SOL    HW214711   2.021   0.190   2.972  0.1903 -0.6668 -0.5785
 4676SOL     OW14712   6.423   2.375   2.356 -0.6672 -0.5541  0.3281
 4676SOL    HW114713   6.411   2.346   2.266 -0.9857 -1.2118  0.5840
 4676SOL    HW214714   6.347   2.343   2.403 -0.2092 -0.7357  0.9646
 4677SOL     OW14715   4.379   0.240   4.705  0.6442 -0.0523 -0.2237
 4677SOL    HW114716   4.335   0.325   4.700  0.6872  0.1427  1.8998
 4677SOL    HW214717   4.430   0.235   4.624  0.4819  1.8480 -0.4974
 4678SOL     OW14718   1.665   2.023   4.892  0.3772 -0.2662  0.2104
 4678SOL    HW114719   1.746   2.071   4.914  0.1862  0.3006 -0.2921
 4678SOL    HW214720   1.664   1.949   4.952  1.0017  0.0205  0.5855
 4679SOL     OW14721   6.051   7.128   1.198  0.0938  0.5535 -0.4156
 4679SOL    HW114722   5.981   7.072   1.166 -0.1267 -1.3420  2.8810
 4679SOL    HW214723   6.008   7.210   1.220 -0.4671  0.4955 -1.2538
 4680SOL     OW14724   7.143   6.926   1.615 -0.3380  0.2320 -0.4098
 4680SOL    HW114725   7.165   6.929   1.708  1.3008 -0.4442 -0.7348
 4680SOL    HW214726   7.155   7.016   1.584 -0.7669  0.4322  0.0003
 4681SOL     OW14727   1.799   3.977   6.091  0.3286  0.3654  0.0507
 4681SOL    HW114728   1.862   4.048   6.083 -0.5027  0.9051 -3.4873
 4681SOL    HW214729   1.831   3.909   6.032 -1.2435 -0.2323 -0.1808
 4682SOL     OW14730   2.548   2.818   4.830  0.3943  0.3588 -0.5902
 4682SOL    HW114731   2.566   2.832   4.923  0.9539  0.2240 -0.6724
 4682SOL    HW214732   2.635   2.815   4.790  0.1514  0.4477 -1.1210
 4683SOL     OW14733   3.798   1.911   6.097  0.0241 -0.4255  0.6688
 4683SOL    HW114734   3.829   1.993   6.059  0.0070  0.1297  1.8172
 4683SOL    HW214735   3.877   1.866   6.126  0.0336 -0.8377  0.0509
 4684SOL     OW14736   1.095   1.752   6.058 -0.0512 -0.6142  0.4418
 4684SOL    HW114737   1.163   1.797   6.108  0.8076  0.4944 -1.6171
 4684SOL    HW214738   1.142   1.707   5.987 -1.2342 -2.0232  0.4982
 4685SOL     OW14739   2.068   1.348   2.230 -0.0597  0.2607  0.1785
 4685SOL    HW114740   2.144   1.291   2.237 -2.1038 -2.8669 -0.7144
 4685SOL    HW214741   2.011   1.322   2.302 -0.7689  1.7698  0.2172
 4686SOL     OW14742   0.191   3.665   3.927 -0.2256  0.5593  0.4156
 4686SOL    HW114743   0.263   3.725   3.907  1.1198 -0.8578  0.8311
 4686SOL    HW214744   0.169   3.626   3.842  0.3331  0.1159  0.4667
 4687SOL     OW14745   0.168   7.247   1.400 -0.4577  0.1329  0.2574
 4687SOL    HW114746   0.205   7.285   1.480  1.7066  2.4907 -1.7070
 4687SOL    HW214747   0.234   7.185   1.370 -0.5336  0.4255 -0.5202
 4688SOL     OW14748   3.869   0.879   3.121  0.3505  0.0513  0.3167
 4688SOL    HW114749   3.928   0.837   3.183  0.9766 -0.7817 -0.8069
 4688SOL    HW214750   3.816   0.938   3.175 -0.5649 -2.1272  1.9845
 4689SOL     OW14751   0.508   2.528   1.170  0.7136 -0.3043 -0.1788
 4689SOL    HW114752   0.541   2.612   1.202  3.2513 -1.5714  0.9009
 4689SOL    HW214753   0.457   2.493   1.242  0.0521  0.0894 -0.4499
 4690SOL     OW14754   2.495   2.127   0.757 -0.0557 -0.2953 -0.3028
 4690SOL    HW114755   2.479   2.101   0.848 -2.6099 -0.5685 -0.7519
 4690SOL    HW214756   2.573   2.182   0.761  0.5814 -1.2396  1.8692
 4691SOL     OW14757   5.494   4.016   2.970 -0.0663  0.3143 -0.5313
 4691SOL    HW114758   5.570   4.041   3.021  0.0577  0.1052 -0.6130
 4691SOL    HW214759   5.474   4.094   2.917 -1.4193  1.2720  1.2745
 4692SOL     OW14760   6.381   4.383   4.504 -0.4660  0.1792 -0.1264
 4692SOL    HW114761   6.326   4.461   4.514 -0.7521 -0.1002  0.5099
 4692SOL    HW214762   6.342   4.336   4.430  0.5074  1.2872 -1.3980
 4693SOL     OW14763   4.977   7.564   2.393  0.1837  0.2451  0.3638
 4693SOL    HW114764   5.015   7.641   2.435 -0.8402  0.8482  0.1935
 4693SOL    HW214765   4.928   7.598   2.318  0.2423 -0.6311 -0.0872
 4694SOL     OW14766   0.097   2.043   6.221 -0.1216 -0.2367 -0.1710
 4694SOL    HW114767   0.027   2.090   6.267 -1.1635 -1.0765 -0.8259
 4694SOL    HW214768   0.121   1.972   6.281  0.6876  0.4612  0.3537
 4695SOL     OW14769   6.382   4.797   1.561 -0.4930 -0.3134  0.8018
 4695SOL    HW114770   6.396   4.890   1.581  0.2836 -0.6886  2.1965
 4695SOL    HW214771   6.367   4.757   1.647 -3.2888 -1.1219  0.0361
 4696SOL     OW14772   4.271   6.369   3.292  0.0095  0.4263  0.1898
 4696SOL    HW114773   4.363   6.383   3.269  0.2820  0.7857  1.4289
 4696SOL    HW214774   4.229   6.344   3.210  1.0332  1.1500 -0.5796
 4697SOL     OW14775   2.872   5.492   1.540 -0.0735 -0.6480 -0.5533
 4697SOL    HW114776   2.923   5.436   1.482 -0.0879 -1.7434  0.4379
 4697SOL    HW214777   2.935   5.553   1.577  0.0763 -0.4692 -1.0943
 4698SOL     OW14778   1.973   7.559   5.418  0.4103  0.7334 -0.0367
 4698SOL    HW114779   1.936   7.634   5.371  0.1798  1.4358  1.2343
 4698SOL    HW214780   2.068   7.570   5.411  0.4265  2.3734  1.9641
 4699SOL     OW14781   2.966   3.172   5.778 -0.4228 -0.5362 -0.1186
 4699SOL    HW114782   2.964   3.185   5.683 -1.1105  1.1055  0.0886
 4699SOL    HW214783   2.985   3.078   5.789 -2.2828 -1.2035 -1.8959
 4700SOL     OW14784   0.066   6.792   2.300 -0.1057 -0.0870 -0.2913
 4700SOL    HW114785   0.037   6.870   2.252  1.1259  1.2245  0.9975
 4700SOL    HW214786   0.063   6.722   2.235  0.0705  1.3028 -1.8813
 4701SOL     OW14787   4.398   4.923   1.443 -0.2038 -0.2394 -0.2171
 4701SOL    HW114788   4.449   4.855   1.401 -1.4474 -0.4700 -1.4238
 4701SOL    HW214789   4.326   4.941   1.383  0.2139  2.3413 -0.0892
 4702SOL     OW14790   7.667   2.622   5.752 -0.3650 -0.5871  0.1248
 4702SOL    HW114791   7.594   2.622   5.813 -0.4545 -0.1095  0.0221
 4702SOL    HW214792   7.650   2.696   5.693  0.3746 -0.2511  0.3164
 4703SOL     OW14793   6.015   0.951   5.132  1.1765  0.0479  0.5860
 4703SOL    HW114794   6.004   0.948   5.037  0.0111  0.1734  0.6982
 4703SOL    HW214795   6.023   0.859   5.157 -1.3351 -0.2274  0.6231
 4704SOL     OW14796   5.735   4.697   3.414 -0.0763 -0.2547  0.0205
 4704SOL    HW114797   5.807   4.686   3.476 -0.2627  3.1402  1.0593
 4704SOL    HW214798   5.761   4.772   3.360 -2.2934  0.3224 -0.3480
 4705SOL     OW14799   0.221   3.094   2.351  0.0058  0.0293  0.0258
 4705SOL    HW114800   0.146   3.153   2.359  0.5858  0.8475 -0.3257
 4705SOL    HW214801   0.286   3.129   2.412  0.1665 -0.5689  0.2046
 4706SOL     OW14802   3.908   6.232   6.778  0.4144 -0.1947  0.1014
 4706SOL    HW114803   3.868   6.151   6.748  1.2695 -0.4361 -0.4428
 4706SOL    HW214804   3.893   6.294   6.706  0.7500 -0.2019  0.0245
 4707SOL     OW14805   5.437   0.464   6.334 -0.6342 -0.0947  0.2108
 4707SOL    HW114806   5.514   0.510   6.368  0.0074 -0.9721 -0.0161
 4707SOL    HW214807   5.368   0.530   6.334 -0.3006  0.3021  1.8889
 4708SOL     OW14808   1.599   2.287   3.608  0.2177  0.0048  0.5653
 4708SOL    HW114809   1.604   2.299   3.513 -1.3918 -1.9316  0.1634
 4708SOL    HW214810   1.690   2.276   3.635  1.0154  3.3689 -0.2231
 4709SOL     OW14811   4.664   3.170   0.054 -0.7057 -0.3050  0.5215
 4709SOL    HW114812   4.633   3.242  -0.002 -3.9711 -2.2648 -0.4978
 4709SOL    HW214813   4.675   3.097  -0.007  0.9744 -1.1313  1.7626
 4710SOL     OW14814   1.360   1.540   6.149  0.7405 -0.7831  0.4573
 4710SOL    HW114815   1.326   1.526   6.061 -0.7272  1.2161  0.6271
 4710SOL    HW214816   1.436   1.596   6.137 -1.7051  2.8998  0.5350
 4711SOL     OW14817   5.549   1.065   4.592 -0.2775  0.2515  0.1259
 4711SOL    HW114818   5.470   1.117   4.601 -0.8214 -0.6679  0.8406
 4711SOL    HW214819   5.609   1.121   4.542 -0.4562  1.9867  1.7295
 4712SOL     OW14820   3.475   5.251   5.770 -0.7478 -0.1626 -0.0596
 4712SOL    HW114821   3.413   5.217   5.705 -0.9919 -0.6315  0.4134
 4712SOL    HW214822   3.423   5.313   5.821 -0.2193  1.2374 -1.1405
 4713SOL     OW14823   3.748   2.625   4.823  0.4331 -0.4523 -0.2457
 4713SOL    HW114824   3.807   2.561   4.783 -1.1340 -1.2293 -1.3813
 4713SOL    HW214825   3.748   2.602   4.916  0.4271 -1.6673 -0.5316
 4714SOL     OW14826   2.978   6.437   3.565 -0.1912 -0.6034 -0.4604
 4714SOL    HW114827   2.998   6.523   3.529 -0.0968 -0.0278  0.8938
 4714SOL    HW214828   2.964   6.381   3.489 -3.9371  1.3990 -1.5118
 4715SOL     OW14829   4.521   5.612   6.316 -0.1796  0.1088 -0.4561
 4715SOL    HW114830   4.465   5.602   6.393  1.6950 -0.9564  0.8416
 4715SOL    HW214831   4.604   5.644   6.350  0.5905 -0.0348 -2.0923
 4716SOL     OW14832   1.362   1.277   4.167  0.7744  0.1646  0.2310
 4716SOL    HW114833   1.295   1.342   4.147  0.2894 -0.4663 -0.2599
 4716SOL    HW214834   1.441   1.328   4.185  0.0954  0.9416  1.1286
 4717SOL     OW14835   2.407   7.507   3.270 -0.4323  0.1913  0.0285
 4717SOL    HW114836   2.394   7.413   3.283 -1.2058  0.3285  0.3340
 4717SOL    HW214837   2.495   7.524   3.303 -0.1017 -0.5091 -0.4846
 4718SOL     OW14838   4.336   3.751   1.332  0.1983 -0.3941 -0.0134
 4718SOL    HW114839   4.421   3.762   1.375  0.2250 -0.4900 -0.0410
 4718SOL    HW214840   4.305   3.665   1.363  0.0456 -0.2947  0.1108
 4719SOL     OW14841   4.441   7.728   3.701  0.1417 -0.1162  0.0816
 4719SOL    HW114842   4.532   7.745   3.678  1.1361 -2.8499  1.5283
 4719SOL    HW214843   4.416   7.803   3.756  2.4059 -0.4982  1.7899
 4720SOL     OW14844   5.926   6.231   1.280  0.0156 -0.2496 -0.0396
 4720SOL    HW114845   5.964   6.264   1.362 -1.0206  0.5274  0.1505
 4720SOL    HW214846   5.991   6.251   1.213  1.0448 -1.2265  0.6291
 4721SOL     OW14847   6.016   1.575   5.066 -0.8206 -0.5582  0.3828
 4721SOL    HW114848   6.049   1.488   5.087  2.4241 -0.3139 -2.6922
 4721SOL    HW214849   6.045   1.630   5.138  1.2145 -1.3191  0.2286
 4722SOL     OW14850   5.880   5.618   1.518  0.2054 -0.1485  0.9198
 4722SOL    HW114851   5.969   5.629   1.486 -0.4148 -0.3718 -1.0515
 4722SOL    HW214852   5.840   5.555   1.458 -1.5213  0.6043  1.1983
 4723SOL     OW14853   1.099   0.766   7.528  0.1532  0.2042 -0.1164
 4723SOL    HW114854   1.065   0.727   7.448  2.4637 -1.2006 -0.5099
 4723SOL    HW214855   1.022   0.777   7.585 -1.7725  2.3881 -2.8807
 4724SOL     OW14856   0.459   3.877   5.608  0.0912 -0.4729  0.5372
 4724SOL    HW114857   0.440   3.911   5.695 -0.0806  0.8314  0.0198
 4724SOL    HW214858   0.399   3.925   5.550  1.4791  0.0585 -0.5201
 4725SOL     OW14859   6.937   2.140   5.875  0.0248  0.0013  0.7198
 4725SOL    HW114860   6.961   2.101   5.959 -2.5873 -1.7402  0.7813
 4725SOL    HW214861   6.841   2.136   5.874 -0.0374  0.4859 -2.1229
 4726SOL     OW14862   3.765   7.246   5.022  0.0798 -0.4858  0.5223
 4726SOL    HW114863   3.852   7.276   5.050 -0.4675  3.0395 -1.0080
 4726SOL    HW214864   3.775   7.224   4.930 -0.7265  0.4997  0.1809
 4727SOL     OW14865   0.130   3.598   5.807  0.1479 -0.2687 -0.5364
 4727SOL    HW114866   0.223   3.575   5.810 -0.1788 -1.6478 -0.3504
 4727SOL    HW214867   0.085   3.518   5.835 -1.0430  0.7651  0.6352
 4728SOL     OW14868   4.256   5.081   6.220 -0.1710 -0.1622 -0.2302
 4728SOL    HW114869   4.269   5.174   6.238 -1.9640  0.3993 -1.5922
 4728SOL    HW214870   4.184   5.055   6.278 -3.3606  0.7226 -3.4574
 4729SOL     OW14871   3.377   3.775   1.934 -0.7658 -0.3282  0.0080
 4729SOL    HW114872   3.399   3.810   2.021  0.6307  0.5762 -0.6667
 4729SOL    HW214873   3.429   3.696   1.926 -0.0013  0.2011 -0.4226
 4730SOL     OW14874   0.318   2.469   2.218  0.0491 -0.0413  0.0326
 4730SOL    HW114875   0.386   2.503   2.159 -1.1748 -0.3966 -1.6512
 4730SOL    HW214876   0.365   2.413   2.279  1.2654 -0.4286 -1.2042
 4731SOL     OW14877   7.473   6.124   2.814  0.5537 -0.0204 -0.2774
 4731SOL    HW114878   7.417   6.196   2.784  0.3082  0.3109  0.9287
 4731SOL    HW214879   7.474   6.132   2.909  4.6163  1.4692 -0.2650
 4732SOL     OW14880   5.402   6.254   1.826 -0.1441 -0.0732 -0.0244
 4732SOL    HW114881   5.488   6.261   1.868 -0.5454  1.1813  0.6533
 4732SOL    HW214882   5.403   6.170   1.781  1.6869  0.2045 -0.5831
 4733SOL     OW14883   4.971   3.862   5.430  0.3429 -0.0619  0.0224
 4733SOL    HW114884   4.883   3.891   5.409  0.6727  0.9066 -0.0657
 4733SOL    HW214885   5.021   3.943   5.443  0.9334 -0.5918  1.2796
 4734SOL     OW14886   7.531   2.852   3.479  0.1609  0.2650 -0.7029
 4734SOL    HW114887   7.451   2.867   3.429  0.2629  0.8029 -0.7051
 4734SOL    HW214888   7.513   2.772   3.529 -0.4089  0.4286 -0.6432
 4735SOL     OW14889   6.862   4.899   0.445 -0.0822  0.2526 -1.0603
 4735SOL    HW114890   6.800   4.966   0.475 -0.3623  0.5876 -2.3439
 4735SOL    HW214891   6.819   4.816   0.466  0.4429  0.4212  0.9144
 4736SOL     OW14892   0.804   0.381   5.466 -0.1216 -0.2965  0.4381
 4736SOL    HW114893   0.770   0.445   5.404 -1.8771 -1.1396  0.4899
 4736SOL    HW214894   0.848   0.315   5.412 -1.9619 -1.2256 -0.0024
 4737SOL     OW14895   2.549   4.527   5.304  0.4541 -0.0004 -0.1212
 4737SOL    HW114896   2.511   4.476   5.375  0.4845  0.5255  0.2737
 4737SOL    HW214897   2.644   4.522   5.319  0.4654  0.0209 -0.1840
 4738SOL     OW14898   2.533   3.200   0.356 -0.2046  0.2161 -0.2291
 4738SOL    HW114899   2.524   3.275   0.416 -0.9705  0.3177 -0.4637
 4738SOL    HW214900   2.492   3.127   0.402  1.1597 -0.2544  0.3026
 4739SOL     OW14901   2.372   0.379   1.718 -0.3232  0.3442 -0.1925
 4739SOL    HW114902   2.381   0.354   1.626 -2.5016 -1.1923 -0.0792
 4739SOL    HW214903   2.281   0.409   1.725 -0.1992  0.4202  1.4655
 4740SOL     OW14904   2.044   4.403   0.880  0.1027  0.0259 -0.2695
 4740SOL    HW114905   1.999   4.487   0.892 -2.7685 -1.5485  0.9486
 4740SOL    HW214906   2.067   4.376   0.968  3.4823  0.6473 -0.8348
 4741SOL     OW14907   3.045   2.906   4.194  0.0744 -0.5580  0.0616
 4741SOL    HW114908   2.952   2.922   4.209 -0.1015  0.0873 -1.5104
 4741SOL    HW214909   3.060   2.937   4.104  1.9572 -0.0142  0.5299
 4742SOL     OW14910   4.871   2.615   2.565  0.4943  0.3422  0.1994
 4742SOL    HW114911   4.935   2.644   2.500  0.8899  1.0229  0.8702
 4742SOL    HW214912   4.787   2.617   2.519  0.9934 -1.0019 -0.8318
 4743SOL     OW14913   4.279   4.308   5.095 -0.1584 -0.3858  0.2642
 4743SOL    HW114914   4.220   4.237   5.119 -2.8010  1.7427  0.5265
 4743SOL    HW214915   4.253   4.333   5.007  0.6711  0.3078  0.2001
 4744SOL     OW14916   5.675   3.882   2.020  0.3988  0.6044  0.3265
 4744SOL    HW114917   5.616   3.859   1.947  0.5212 -1.6873  0.8786
 4744SOL    HW214918   5.734   3.947   1.983  1.6639 -1.8227 -2.2743
 4745SOL     OW14919   2.032   7.477   2.897  0.3297  0.2828 -0.1182
 4745SOL    HW114920   2.112   7.442   2.859  0.9196  2.7077 -1.3037
 4745SOL    HW214921   2.011   7.554   2.844 -1.6151  0.9487  1.4645
 4746SOL     OW14922   0.916   3.788   4.475  0.1036  0.1223  0.4840
 4746SOL    HW114923   0.942   3.846   4.546 -1.0337 -0.5407  1.4768
 4746SOL    HW214924   0.822   3.803   4.465 -0.4793 -2.3167  1.5686
 4747SOL     OW14925   0.810   0.183   2.942 -0.2553  0.6997 -0.3889
 4747SOL    HW114926   0.746   0.112   2.944 -0.6373  1.0412 -0.2448
 4747SOL    HW214927   0.830   0.199   3.034 -1.0996  1.5925 -0.3378
 4748SOL     OW14928   4.642   1.701   1.399  0.1519 -0.7647 -0.4078
 4748SOL    HW114929   4.635   1.779   1.344  0.5005  0.3438  1.0610
 4748SOL    HW214930   4.623   1.628   1.340  0.9000  0.3346 -2.0740
 4749SOL     OW14931   2.116   1.063   6.937  0.1288 -0.1423 -0.0202
 4749SOL    HW114932   2.041   1.065   6.996  0.7771  0.0313  0.8058
 4749SOL    HW214933   2.111   0.977   6.895 -0.4139 -0.2128  0.1871
 4750SOL     OW14934   1.298   3.390   7.372  0.6480 -0.3844 -0.0984
 4750SOL    HW114935   1.249   3.429   7.300 -0.8169 -1.3289  0.3545
 4750SOL    HW214936   1.251   3.419   7.451  0.4580 -1.7684  0.3169
 4751SOL     OW14937   7.694   0.844   1.890 -0.4566 -0.6294 -0.0266
 4751SOL    HW114938   7.732   0.897   1.820  0.9226 -3.0509 -1.2420
 4751SOL    HW214939   7.726   0.884   1.971  0.5866  0.3392 -0.8861
 4752SOL     OW14940   0.360   0.733   7.476 -0.2409  0.2297 -0.6025
 4752SOL    HW114941   0.310   0.797   7.425 -0.1561  1.2361  0.5160
 4752SOL    HW214942   0.332   0.748   7.567  1.9697  0.7655  0.0608
 4753SOL     OW14943   3.199   2.984   1.365 -0.1361  0.2774 -0.3041
 4753SOL    HW114944   3.256   2.930   1.420  0.0042  0.3488 -0.3792
 4753SOL    HW214945   3.254   3.010   1.291  0.1252  1.3871  0.2527
 4754SOL     OW14946   3.104   7.348   3.339  0.7842  0.1695  0.0890
 4754SOL    HW114947   3.087   7.300   3.258 -0.2423  0.4833  0.1002
 4754SOL    HW214948   3.167   7.416   3.314  0.6407  0.1250 -0.3998
 4755SOL     OW14949   5.391   5.313   6.041  0.1297  0.3275 -0.0403
 4755SOL    HW114950   5.305   5.272   6.046  0.1910  0.0682 -0.9802
 4755SOL    HW214951   5.384   5.376   5.969  0.8581 -0.0242 -0.4297
 4756SOL     OW14952   3.706   4.551   0.767 -0.2780 -0.6058 -0.0381
 4756SOL    HW114953   3.659   4.467   0.758 -0.4421 -0.5020 -0.1752
 4756SOL    HW214954   3.798   4.528   0.756 -0.4172 -0.5813 -1.5349
 4757SOL     OW14955   2.545   3.357   4.785  0.7100 -0.2587  0.5210
 4757SOL    HW114956   2.471   3.411   4.755  0.4888 -0.0003  1.5115
 4757SOL    HW214957   2.611   3.368   4.716 -0.0117 -0.1673 -0.1774
 4758SOL     OW14958   2.323   0.640   1.571 -0.0036  0.2686 -0.7124
 4758SOL    HW114959   2.411   0.678   1.569  0.1499 -0.0850 -0.7784
 4758SOL    HW214960   2.330   0.562   1.516 -0.4736  0.4833 -1.0799
 4759SOL     OW14961   3.288   7.594   3.267 -0.1799 -0.2413 -0.1699
 4759SOL    HW114962   3.364   7.599   3.209 -1.1560  1.9852 -1.3935
 4759SOL    HW214963   3.301   7.663   3.331 -0.3335 -1.0267  0.7272
 4760SOL     OW14964   6.192   5.939   1.979 -0.0850 -0.0369  0.2059
 4760SOL    HW114965   6.194   5.979   1.891  1.2197  0.5044  0.4601
 4760SOL    HW214966   6.215   6.011   2.038 -2.0294 -0.1135  1.1505
 4761SOL     OW14967   3.106   7.721   1.241  0.5032  0.1097  0.8068
 4761SOL    HW114968   3.055   7.791   1.202  0.7365  0.0931  0.4694
 4761SOL    HW214969   3.044   7.648   1.250  0.2262  0.4003  1.2842
 4762SOL     OW14970   2.938   4.393   1.252  0.3134 -0.1145  0.2720
 4762SOL    HW114971   2.900   4.343   1.325  0.9302 -0.0149  0.6714
 4762SOL    HW214972   2.980   4.328   1.197  2.8535  0.0709  1.8270
 4763SOL     OW14973   1.307   1.544   7.171  0.5153 -0.1764 -1.2252
 4763SOL    HW114974   1.401   1.564   7.170  0.5769 -0.4558 -1.2347
 4763SOL    HW214975   1.268   1.610   7.115  0.6373  0.2777 -0.7842
 4764SOL     OW14976   2.604   2.397   1.456 -0.4103 -0.1388 -0.4354
 4764SOL    HW114977   2.514   2.382   1.486 -0.1884 -1.5196 -0.3624
 4764SOL    HW214978   2.602   2.482   1.413 -1.5098  0.3280  0.4973
 4765SOL     OW14979   1.568   7.203   5.646 -0.4771  0.0638  0.0036
 4765SOL    HW114980   1.539   7.201   5.737 -2.0806  0.1340 -0.4836
 4765SOL    HW214981   1.500   7.155   5.598  1.0725 -1.2686 -0.9835
 4766SOL     OW14982   5.536   2.082   7.202 -0.5371 -0.1299 -0.5335
 4766SOL    HW114983   5.619   2.049   7.236 -1.4913 -0.8583  1.1876
 4766SOL    HW214984   5.484   2.004   7.187 -0.8992  0.3183 -1.6913
 4767SOL     OW14985   3.967   0.294   7.221 -0.2053 -0.0631  0.1594
 4767SOL    HW114986   3.947   0.347   7.298  0.0096 -0.9143  0.8103
 4767SOL    HW214987   3.999   0.357   7.156  1.5590  0.4300  1.4400
 4768SOL     OW14988   1.911   1.174   2.702  0.0002 -0.2231  0.1450
 4768SOL    HW114989   1.849   1.165   2.629 -0.0455 -0.1384  0.1737
 4768SOL    HW214990   1.856   1.170   2.781 -0.1506  1.3162  0.1493
 4769SOL     OW14991   2.609   7.708   0.856  0.7135  0.3316 -0.1533
 4769SOL    HW114992   2.689   7.698   0.805  0.6087  0.9637 -0.4496
 4769SOL    HW214993   2.603   7.802   0.873 -0.9190  0.5501 -1.7008
 4770SOL     OW14994   3.372   0.122   5.389 -0.1211 -0.0526 -0.0965
 4770SOL    HW114995   3.415   0.159   5.466 -1.1231  0.1848  0.3676
 4770SOL    HW214996   3.368   0.028   5.406  1.3405 -0.2619 -0.7300
 4771SOL     OW14997   4.223   7.012   4.593 -0.4755  0.0630 -0.3810
 4771SOL    HW114998   4.313   7.032   4.566 -0.0955 -0.5328  0.3708
 4771SOL    HW214999   4.195   6.942   4.534 -0.1942 -0.2062 -0.2035
 4772SOL     OW15000   1.050   2.381   6.901 -0.0614 -0.4158  0.0893
 4772SOL    HW115001   1.035   2.295   6.941  0.2108 -0.8892 -0.8038
 4772SOL    HW215002   1.036   2.443   6.973  0.5201 -1.2451  0.9491
 4773SOL     OW15003   3.466   7.428   4.928  0.4038 -0.1737  0.1220
 4773SOL    HW115004   3.455   7.361   4.996  0.0311 -1.0772 -0.7969
 4773SOL    HW215005   3.384   7.477   4.929  0.0839 -0.6868 -0.1828
 4774SOL     OW15006   2.279   1.746   4.843 -0.3552  0.1748 -0.5846
 4774SOL    HW115007   2.211   1.692   4.882  0.8065 -2.1134 -1.5510
 4774SOL    HW215008   2.344   1.756   4.912  0.2150 -1.1694 -0.8974
 4775SOL     OW15009   7.582   2.796   0.620 -0.5245 -0.1011 -0.6958
 4775SOL    HW115010   7.548   2.871   0.572 -2.4322 -0.8206 -0.5736
 4775SOL    HW215011   7.600   2.730   0.553  0.1374  0.0897 -0.7106
 4776SOL     OW15012   5.920   6.545   7.423 -0.1390 -0.2343 -0.5145
 4776SOL    HW115013   5.963   6.630   7.410  2.1668 -1.2256  0.1217
 4776SOL    HW215014   5.945   6.520   7.512 -1.9226 -0.9946 -0.1934
 4777SOL     OW15015   4.594   2.753   5.507  0.1347  0.3967  0.0529
 4777SOL    HW115016   4.635   2.818   5.450  0.9204  0.0494  0.2000
 4777SOL    HW215017   4.663   2.688   5.521  0.1981  0.8155  1.9387
 4778SOL     OW15018   2.385   6.116   4.221 -0.2467 -0.0593 -0.1110
 4778SOL    HW115019   2.309   6.058   4.232 -0.6642  0.6427  0.8686
 4778SOL    HW215020   2.356   6.182   4.159 -0.7123  0.6306  0.8164
 4779SOL     OW15021   3.067   5.709   7.717  0.0416 -0.6742 -0.0231
 4779SOL    HW115022   3.097   5.619   7.707 -0.0258 -0.7683  0.5719
 4779SOL    HW215023   3.055   5.720   7.812 -3.2445 -1.1183 -0.2637
 4780SOL     OW15024   7.365   6.385   3.194  0.6351  0.8341 -0.3799
 4780SOL    HW115025   7.335   6.374   3.284  2.0987  0.2775  0.0580
 4780SOL    HW215026   7.311   6.457   3.160 -0.8598  0.1674  0.4929
 4781SOL     OW15027   6.154   0.806   4.456 -0.2671  0.0300  0.7133
 4781SOL    HW115028   6.140   0.895   4.424  0.8129  0.6055  1.7633
 4781SOL    HW215029   6.205   0.763   4.387  1.2598  0.9815  1.1914
 4782SOL     OW15030   3.240   4.936   5.167 -0.1060  0.6377 -0.5146
 4782SOL    HW115031   3.266   5.025   5.143 -0.4329  0.7024 -0.6305
 4782SOL    HW215032   3.297   4.880   5.114 -0.0520  0.7764 -0.6053
 4783SOL     OW15033   1.654   4.776   0.685 -0.4191  0.4108  0.3132
 4783SOL    HW115034   1.624   4.857   0.643 -0.3866  0.1646 -0.1866
 4783SOL    HW215035   1.748   4.774   0.670 -0.5801 -0.3122 -0.7285
 4784SOL     OW15036   2.837   7.202   4.687 -0.2079  0.1114  0.3143
 4784SOL    HW115037   2.891   7.191   4.765  1.2944  0.4678 -0.6497
 4784SOL    HW215038   2.835   7.114   4.648 -2.8307 -0.6454  1.8513
 4785SOL     OW15039   5.256   4.312   5.597  0.7819 -0.7468 -0.2217
 4785SOL    HW115040   5.220   4.370   5.664  2.0010  1.3879 -1.3057
 4785SOL    HW215041   5.338   4.279   5.635  1.0113 -0.2784 -0.3095
 4786SOL     OW15042   0.442   2.012   4.092 -0.2413 -0.0512 -0.7134
 4786SOL    HW115043   0.473   2.098   4.122 -0.5409 -1.0438  2.9465
 4786SOL    HW215044   0.369   2.031   4.034  0.9154  2.1692 -1.5348
 4787SOL     OW15045   2.938   2.616   2.858  0.4942  0.4364  0.1731
 4787SOL    HW115046   2.950   2.637   2.765  1.9190 -1.2967 -0.1049
 4787SOL    HW215047   3.018   2.649   2.900 -0.2758  1.4781  0.8620
 4788SOL     OW15048   7.708   0.778   1.314  0.4589  0.4762 -0.1046
 4788SOL    HW115049   7.800   0.784   1.286  0.8747 -1.4874  0.7487
 4788SOL    HW215050   7.667   0.722   1.248  0.1001  0.5234  0.0800
 4789SOL     OW15051   2.912   0.888   6.304 -0.1036 -0.1548  0.3271
 4789SOL    HW115052   2.875   0.855   6.222  1.5862 -0.0403 -0.5113
 4789SOL    HW215053   2.918   0.810   6.360 -0.0078 -0.4972 -0.1512
 4790SOL     OW15054   2.158   2.208   4.382  0.5747 -0.2299 -0.2226
 4790SOL    HW115055   2.108   2.146   4.436  1.1698 -0.7060 -0.2130
 4790SOL    HW215056   2.112   2.208   4.298 -0.3921  0.5558  0.2809
 4791SOL     OW15057   3.841   3.893   3.054  0.1978 -0.0949 -0.5679
 4791SOL    HW115058   3.856   3.833   2.981 -0.7001  1.0396 -1.7389
 4791SOL    HW215059   3.750   3.921   3.044  0.5188  1.2809  0.0576
 4792SOL     OW15060   5.362   5.687   1.371 -0.6462 -0.1671 -0.7649
 4792SOL    HW115061   5.374   5.706   1.464 -0.9980 -0.7955 -0.5901
 4792SOL    HW215062   5.367   5.592   1.364 -0.4614 -0.1179 -1.4156
 4793SOL     OW15063   4.654   3.217   1.116  0.1362  0.4722  0.2465
 4793SOL    HW115064   4.699   3.225   1.032  0.6326 -1.6356  0.2548
 4793SOL    HW215065   4.573   3.268   1.105 -0.3299 -0.6064 -1.8931
 4794SOL     OW15066   1.186   2.590   0.746  0.3893 -0.1899  0.4099
 4794SOL    HW115067   1.202   2.542   0.827  0.3099 -0.2108  0.4135
 4794SOL    HW215068   1.250   2.554   0.684 -0.4102 -1.1064  0.0888
 4795SOL     OW15069   7.107   4.374   3.552  0.5107 -0.3774 -0.1843
 4795SOL    HW115070   7.157   4.449   3.584 -1.1434  0.4941  0.4416
 4795SOL    HW215071   7.169   4.301   3.558  2.3752  0.9971 -1.4124
 4796SOL     OW15072   2.909   0.171   1.213  0.2845  0.4632  0.1148
 4796SOL    HW115073   2.823   0.202   1.183 -0.4755 -2.3468 -0.9686
 4796SOL    HW215074   2.889   0.097   1.270  1.9781  0.3631  0.6207
 4797SOL     OW15075   2.272   2.063   4.017  0.1839  0.2856 -0.0051
 4797SOL    HW115076   2.351   2.072   4.070  1.0684  0.3528 -1.2945
 4797SOL    HW215077   2.287   1.984   3.965  0.5307  1.6204 -2.0529
 4798SOL     OW15078   4.263   4.263   3.039  0.1087  0.6735  0.1760
 4798SOL    HW115079   4.240   4.276   3.131 -0.0832  1.5042  0.0190
 4798SOL    HW215080   4.220   4.181   3.015 -1.7692  1.5745  0.2228
 4799SOL     OW15081   1.922   1.581   1.169 -0.2789 -0.1742  0.2247
 4799SOL    HW115082   1.896   1.538   1.251  1.0529  0.1524  0.8456
 4799SOL    HW215083   1.892   1.522   1.100 -0.5014 -0.9705  0.9907
 4800SOL     OW15084   2.161   0.544   0.386 -0.1224  0.2669 -0.0759
 4800SOL    HW115085   2.226   0.515   0.322  0.3001  1.2212 -0.0947
 4800SOL    HW215086   2.181   0.636   0.401 -3.6186  1.7040 -2.7512
 4801SOL     OW15087   0.037   0.435   7.411  0.0202  0.3624 -0.1788
 4801SOL    HW115088   0.019   0.376   7.338  1.6419  1.1887 -1.3410
 4801SOL    HW215089  -0.003   0.518   7.385 -1.9669 -0.0555  1.2933
 4802SOL     OW15090   2.132   5.809   7.068  0.0952  0.5489 -0.0595
 4802SOL    HW115091   2.054   5.803   7.123  0.1408  0.0613 -0.0409
 4802SOL    HW215092   2.179   5.886   7.100 -0.8691  1.4279 -0.7110
 4803SOL     OW15093   4.529   7.427   5.472 -0.3464  0.3768 -0.2043
 4803SOL    HW115094   4.605   7.370   5.470 -0.6299 -0.0121  0.0586
 4803SOL    HW215095   4.476   7.399   5.398  0.4046  1.5463 -1.2193
 4804SOL     OW15096   1.937   3.961   0.063  0.4821 -0.1409 -0.5704
 4804SOL    HW115097   1.877   3.946  -0.010 -1.4449  0.5921  0.7896
 4804SOL    HW215098   1.928   3.883   0.118 -0.8208  0.8086  0.6465
 4805SOL     OW15099   1.608   5.057   7.586  0.0057  0.3833 -0.2293
 4805SOL    HW115100   1.577   4.994   7.650 -0.7938  0.7243 -0.2614
 4805SOL    HW215101   1.689   5.092   7.622 -1.0926  1.5212  1.2345
 4806SOL     OW15102   6.302   1.313   4.526 -0.1370  0.0169 -0.0709
 4806SOL    HW115103   6.377   1.254   4.522 -0.5664 -0.6053  0.8118
 4806SOL    HW215104   6.242   1.280   4.459 -0.8411 -1.2351  1.1260
 4807SOL     OW15105   7.725   0.236   4.796  0.3457 -0.3700  0.0041
 4807SOL    HW115106   7.769   0.196   4.871 -1.2868  0.6259  1.5687
 4807SOL    HW215107   7.779   0.313   4.775 -0.7109  1.0267  2.1105
 4808SOL     OW15108   0.022   4.045   4.451 -0.0852  0.3337 -1.0596
 4808SOL    HW115109  -0.069   4.022   4.432 -0.0028  0.9847 -2.3531
 4808SOL    HW215110   0.041   4.002   4.535 -2.9708  3.8488  1.7149
 4809SOL     OW15111   7.611   1.975   2.891 -0.9350  0.2377  0.4955
 4809SOL    HW115112   7.652   2.001   2.973  0.3016 -0.6678  0.1978
 4809SOL    HW215113   7.568   1.892   2.911  1.3996 -1.2696 -0.2638
 4810SOL     OW15114   2.668   2.405   4.797  0.0436 -0.3763 -0.0479
 4810SOL    HW115115   2.586   2.439   4.761 -1.2886 -2.9642  0.2724
 4810SOL    HW215116   2.666   2.431   4.889  0.3557  0.8549 -0.3735
 4811SOL     OW15117   6.274   3.010   5.552 -0.5087 -0.2556  0.3360
 4811SOL    HW115118   6.354   3.040   5.593 -0.4382 -0.5697  0.4266
 4811SOL    HW215119   6.213   3.084   5.561 -0.6244 -0.4653  1.3497
 4812SOL     OW15120   6.989   0.616   6.764 -0.3583 -0.8334  0.1846
 4812SOL    HW115121   6.996   0.558   6.840 -2.2284 -1.9216 -0.4011
 4812SOL    HW215122   7.068   0.670   6.768  1.2008 -2.9995  1.1043
 4813SOL     OW15123   5.577   0.175   3.342  0.1992  0.5828 -0.2418
 4813SOL    HW115124   5.518   0.198   3.414  0.4756  0.2902  0.0782
 4813SOL    HW215125   5.544   0.226   3.267  0.6726  1.8625  0.3976
 4814SOL     OW15126   4.541   0.309   3.629  0.0265 -0.0780  0.7990
 4814SOL    HW115127   4.534   0.364   3.707 -2.4582 -1.3306  1.5684
 4814SOL    HW215128   4.559   0.221   3.662  0.4990 -0.3633 -0.1580
 4815SOL     OW15129   2.566   7.394   6.687  0.2480  0.3780  0.9081
 4815SOL    HW115130   2.537   7.308   6.717 -0.4961  0.9502  1.8999
 4815SOL    HW215131   2.500   7.421   6.623  0.0391  0.5418  1.1889
 4816SOL     OW15132   1.154   7.290   6.970  0.1556 -0.2337  0.0186
 4816SOL    HW115133   1.156   7.218   7.033 -1.2072  0.6480  1.1402
 4816SOL    HW215134   1.235   7.339   6.987  0.9336 -1.2756 -0.5364
 4817SOL     OW15135   5.060   2.801   1.815  0.0182 -0.4363  0.2238
 4817SOL    HW115136   5.146   2.828   1.784 -0.7089  1.9138  0.0156
 4817SOL    HW215137   5.004   2.808   1.737 -0.5759 -0.9115  0.5961
 4818SOL     OW15138   4.384   3.493   6.306 -0.3916 -0.3328 -0.2297
 4818SOL    HW115139   4.355   3.458   6.222 -1.3427  0.5494 -0.2877
 4818SOL    HW215140   4.403   3.585   6.289  1.3704 -0.5837  0.0838
 4819SOL     OW15141   5.275   2.844   5.594 -0.2194 -0.6467  0.1329
 4819SOL    HW115142   5.286   2.831   5.499 -0.3421  0.5313 -0.0540
 4819SOL    HW215143   5.282   2.756   5.631  1.0646 -0.9854 -0.8420
 4820SOL     OW15144   3.123   4.329   0.259 -0.0238  0.5180  0.0573
 4820SOL    HW115145   3.210   4.337   0.297 -0.2279  1.9105  0.2863
 4820SOL    HW215146   3.104   4.235   0.261  1.9925  0.0173 -1.2188
 4821SOL     OW15147   5.518   0.665   2.638 -0.4002  0.5617 -0.0179
 4821SOL    HW115148   5.561   0.749   2.619  0.0700  0.5133  0.7529
 4821SOL    HW215149   5.539   0.610   2.563 -1.7062  1.4749 -1.1108
 4822SOL     OW15150   1.942   0.459   4.925  0.2348 -0.0273  0.4925
 4822SOL    HW115151   1.938   0.468   5.020 -0.2870 -1.4381  0.6282
 4822SOL    HW215152   2.006   0.390   4.910  0.7503  0.5883 -0.2240
 4823SOL     OW15153   0.825   0.988   5.436  0.0497  0.0925 -0.8049
 4823SOL    HW115154   0.775   0.971   5.356  0.3844 -0.7211 -0.8549
 4823SOL    HW215155   0.772   1.050   5.485 -0.3042  0.3743 -1.5263
 4824SOL     OW15156   2.209   0.639   4.402  0.0891 -0.2937  0.7495
 4824SOL    HW115157   2.253   0.691   4.469 -0.6622 -1.1436  1.9535
 4824SOL    HW215158   2.164   0.703   4.347 -0.2747  0.3868  1.8015
 4825SOL     OW15159   6.517   1.439   7.361  0.4420  0.1600  0.2434
 4825SOL    HW115160   6.592   1.409   7.311  1.6532 -1.3340  2.7349
 4825SOL    HW215161   6.545   1.522   7.400 -0.6019  1.4710 -1.6573
 4826SOL     OW15162   4.749   3.281   6.581 -0.5525  0.6061 -0.6231
 4826SOL    HW115163   4.732   3.195   6.542  1.5373 -0.3803  0.4240
 4826SOL    HW215164   4.811   3.322   6.521 -0.7102  0.9255 -0.5669
 4827SOL     OW15165   6.707   4.704   4.340 -0.4452 -0.0118  0.3669
 4827SOL    HW115166   6.681   4.612   4.348  3.0301 -1.3009 -1.2474
 4827SOL    HW215167   6.673   4.732   4.255 -0.9537  0.0014  0.5731
 4828SOL     OW15168   7.344   5.451   5.132  0.2787  0.1684 -0.5924
 4828SOL    HW115169   7.300   5.528   5.095 -0.6527  1.0430  2.1011
 4828SOL    HW215170   7.437   5.464   5.111  0.0669  1.7609 -0.6530
 4829SOL     OW15171   0.697   6.299   2.901  0.1018  0.2364 -0.0210
 4829SOL    HW115172   0.656   6.298   2.988 -2.0386 -1.7061 -0.9652
 4829SOL    HW215173   0.693   6.390   2.874  1.0301  0.9319  1.9726
 4830SOL     OW15174   3.742   7.102   0.276 -0.1428  0.5593  0.1143
 4830SOL    HW115175   3.688   7.143   0.343 -0.8127 -0.7264  0.3856
 4830SOL    HW215176   3.771   7.020   0.315 -1.2961 -0.6600 -1.4457
 4831SOL     OW15177   0.497   7.367   3.368  0.0344 -0.2101 -0.9509
 4831SOL    HW115178   0.572   7.320   3.406  0.0280 -2.4534 -3.4397
 4831SOL    HW215179   0.535   7.416   3.295 -0.0962  3.3395  1.1130
 4832SOL     OW15180   0.438   7.657   4.903 -0.1965 -0.0212 -0.1545
 4832SOL    HW115181   0.514   7.649   4.845 -2.1405 -1.2768 -2.7024
 4832SOL    HW215182   0.458   7.599   4.977  1.0396 -0.8229 -1.0726
 4833SOL     OW15183   6.815   5.333   4.264  0.0280  0.5419  0.5652
 4833SOL    HW115184   6.779   5.257   4.310  0.0432  0.9080  1.1964
 4833SOL    HW215185   6.839   5.394   4.334 -0.7602  1.4830  0.0478
 4834SOL     OW15186   1.040   1.471   0.561  0.2978  0.3598 -0.0102
 4834SOL    HW115187   1.063   1.553   0.516  1.8730  0.3701  0.7471
 4834SOL    HW215188   1.079   1.403   0.506 -1.9385 -0.0176 -1.2328
 4835SOL     OW15189   5.756   3.543   1.436 -0.3330  0.8593  0.3435
 4835SOL    HW115190   5.776   3.591   1.356 -0.1282  2.2882  1.2195
 4835SOL    HW215191   5.840   3.529   1.478 -0.5083  0.7990  0.6821
 4836SOL     OW15192   0.663   7.626   6.116  0.0019 -0.4621  0.3401
 4836SOL    HW115193   0.700   7.614   6.203  0.2787  0.1507  0.3159
 4836SOL    HW215194   0.718   7.694   6.076 -0.0992 -0.7671 -0.3245
 4837SOL     OW15195   1.978   7.654   4.588  0.0047  0.2142  0.5281
 4837SOL    HW115196   2.007   7.570   4.551 -1.2410 -0.8711  1.9102
 4837SOL    HW215197   2.048   7.715   4.566  1.7936 -1.5712  0.9745
 4838SOL     OW15198   1.919   0.141   2.548 -0.1565 -0.5354 -0.2747
 4838SOL    HW115199   2.001   0.120   2.503  1.4593  1.5520  1.5055
 4838SOL    HW215200   1.881   0.055   2.569  1.1303 -1.5614 -1.8203
 4839SOL     OW15201   0.264   3.489   3.420 -0.2738  0.2829 -0.5854
 4839SOL    HW115202   0.334   3.553   3.428 -0.2490  0.1921  0.0252
 4839SOL    HW215203   0.184   3.541   3.413 -0.2479  0.3835 -0.1609
 4840SOL     OW15204   2.056   2.197   3.951  0.1572  0.2298  0.0816
 4840SOL    HW115205   2.147   2.168   3.958  0.5535  1.4227  0.0902
 4840SOL    HW215206   2.031   2.221   4.040 -0.1203  0.0570  0.0522
 4841SOL     OW15207   0.086   7.402   7.219 -0.1909 -0.1291 -0.7333
 4841SOL    HW115208   0.070   7.367   7.131 -0.5647  0.9522 -1.1080
 4841SOL    HW215209   0.105   7.495   7.205  0.5547 -0.1136  0.2605
 4842SOL     OW15210   2.558   1.009   7.473  0.0803  0.2676 -0.0816
 4842SOL    HW115211   2.629   0.960   7.432  0.1150  0.1483  0.1188
 4842SOL    HW215212   2.493   1.021   7.404  0.0830 -0.0439 -0.1377
 4843SOL     OW15213   1.317   5.507   6.888  0.3465 -0.0344  0.5314
 4843SOL    HW115214   1.349   5.566   6.957  0.0622 -0.2221  0.8275
 4843SOL    HW215215   1.394   5.487   6.835  0.3942  0.8320  0.2610
 4844SOL     OW15216   5.716   1.487   5.606 -0.0272 -0.3533 -0.4321
 4844SOL    HW115217   5.751   1.445   5.684 -0.0443 -1.6146 -1.0829
 4844SOL    HW215218   5.623   1.501   5.626  0.5127  1.8467  0.8009
 4845SOL     OW15219   7.006   3.375   3.247  0.8164  0.4267  0.3426
 4845SOL    HW115220   6.987   3.327   3.166  0.8568  0.2427  0.4440
 4845SOL    HW215221   7.081   3.330   3.285  0.7534  0.4720  0.5207
 4846SOL     OW15222   3.561   6.977   7.367 -0.1943  0.2384 -0.0401
 4846SOL    HW115223   3.546   6.888   7.335  0.8581 -0.7380  1.9868
 4846SOL    HW215224   3.644   6.973   7.414  0.4462  2.5916 -0.7886
 4847SOL     OW15225   0.151   4.687   1.955 -0.4795  0.3041  0.1186
 4847SOL    HW115226   0.218   4.725   2.012 -0.3862  0.1119  0.1373
 4847SOL    HW215227   0.139   4.598   1.988 -1.6050  0.7188  0.8692
 4848SOL     OW15228   7.252   6.832   6.807  0.3144  0.4371 -0.1934
 4848SOL    HW115229   7.337   6.848   6.847  0.3798  0.3958 -0.3143
 4848SOL    HW215230   7.258   6.873   6.721  0.2214  0.4119 -0.2121
 4849SOL     OW15231   4.394   2.878   2.817  0.0405 -0.3169 -0.4164
 4849SOL    HW115232   4.315   2.848   2.863  1.3287 -0.5055  1.7845
 4849SOL    HW215233   4.368   2.962   2.778 -1.1924 -0.2441  0.4913
 4850SOL     OW15234   4.586   0.136   1.847  0.0183  0.2756 -0.2118
 4850SOL    HW115235   4.491   0.143   1.852 -0.1481 -1.7871  0.2249
 4850SOL    HW215236   4.616   0.134   1.938  0.3309 -0.4528 -0.3185
 4851SOL     OW15237   5.230   1.634   3.127 -0.3600 -0.2181  0.1223
 4851SOL    HW115238   5.190   1.627   3.040 -1.2066  1.1198  0.3818
 4851SOL    HW215239   5.324   1.640   3.109 -0.5722  0.7307 -0.7571
 4852SOL     OW15240   2.400   2.378   4.997 -0.4912  0.7876 -0.5021
 4852SOL    HW115241   2.322   2.369   4.942 -0.2886 -0.1175 -0.6643
 4852SOL    HW215242   2.406   2.294   5.044  0.5991  0.6913 -0.7810
 4853SOL     OW15243   3.964   5.825   2.401  0.5881 -0.1572  0.1753
 4853SOL    HW115244   3.925   5.870   2.325 -1.1712 -0.5012  0.8411
 4853SOL    HW215245   3.931   5.873   2.477  2.1667  0.0496  0.7538
 4854SOL     OW15246   6.714   0.067   1.197 -0.0902 -0.1900 -0.5745
 4854SOL    HW115247   6.771   0.061   1.120  0.0458 -0.3358 -0.4631
 4854SOL    HW215248   6.701  -0.024   1.224 -1.0424 -0.2177 -1.0897
 4855SOL     OW15249   3.787   5.190   6.647  0.3723  0.0275  0.0280
 4855SOL    HW115250   3.778   5.102   6.612  0.8413  0.1875 -0.5156
 4855SOL    HW215251   3.705   5.234   6.625 -0.5758 -0.7533  1.7749
 4856SOL     OW15252   2.803   2.572   5.284 -0.3222  0.0690 -0.1849
 4856SOL    HW115253   2.768   2.545   5.369 -0.0204 -1.1905 -0.4490
 4856SOL    HW215254   2.840   2.492   5.246  1.2409  0.9838 -0.6925
 4857SOL     OW15255   3.308   4.711   4.940  0.1803  0.2637 -0.5721
 4857SOL    HW115256   3.291   4.770   4.867  3.8023  0.8953 -1.1146
 4857SOL    HW215257   3.329   4.627   4.898 -1.2842 -0.4110 -0.0046
 4858SOL     OW15258   0.410   2.904   6.353 -0.5591  0.7865  0.1847
 4858SOL    HW115259   0.487   2.916   6.408 -2.8511  0.6943  3.7333
 4858SOL    HW215260   0.357   2.982   6.368 -1.7820  0.2619 -1.1198
 4859SOL     OW15261   0.122   5.164   5.548  0.5105 -0.0071 -0.5211
 4859SOL    HW115262   0.133   5.207   5.633  0.9689 -0.9129 -0.1103
 4859SOL    HW215263   0.162   5.224   5.485  0.1003  0.7085 -0.1148
 4860SOL     OW15264   4.161   1.055   4.942  0.1466 -0.5511  0.8307
 4860SOL    HW115265   4.235   1.066   4.882  0.6902  1.3414  1.7499
 4860SOL    HW215266   4.199   1.014   5.020 -0.0145 -0.6104  0.8791
 4861SOL     OW15267   6.286   1.260   4.016  0.0780 -0.2877 -0.4931
 4861SOL    HW115268   6.248   1.291   4.098  1.9113  1.6597 -0.2794
 4861SOL    HW215269   6.293   1.165   4.026  1.4135  0.0216  2.1459
 4862SOL     OW15270   4.777   0.474   4.563 -0.3892 -0.2203 -0.0910
 4862SOL    HW115271   4.809   0.464   4.473  0.5123  0.1424  0.1786
 4862SOL    HW215272   4.856   0.466   4.617 -1.1573 -2.3286  0.8080
 4863SOL     OW15273   0.239   3.551   0.644  0.0794  0.2991 -0.2493
 4863SOL    HW115274   0.312   3.598   0.684  0.2941  2.2785 -2.7045
 4863SOL    HW215275   0.161   3.595   0.677 -0.1222 -1.8081  2.3644
 4864SOL     OW15276   7.597   6.457   5.498 -0.6527  0.0583 -0.4128
 4864SOL    HW115277   7.682   6.500   5.495 -0.0607 -1.0914 -0.5318
 4864SOL    HW215278   7.597   6.409   5.581 -1.3786  0.4239 -0.1908
 4865SOL     OW15279   4.485   2.535   6.488  0.5958 -0.3057  0.0523
 4865SOL    HW115280   4.410   2.477   6.476 -0.2119  0.5139  0.9100
 4865SOL    HW215281   4.446   2.618   6.516  1.8502  0.0601  0.7905
 4866SOL     OW15282   2.561   6.001   3.187  0.5911  0.0965  0.0496
 4866SOL    HW115283   2.566   6.008   3.282 -1.4465 -2.2576  0.4243
 4866SOL    HW215284   2.629   6.059   3.155  0.1279  2.4200  2.8770
 4867SOL     OW15285   0.667   7.076   5.806 -0.2186 -0.3564  0.4613
 4867SOL    HW115286   0.696   7.138   5.872  0.1428 -1.4211  1.3406
 4867SOL    HW215287   0.744   7.061   5.752 -1.1366  2.4252 -1.8685
 4868SOL     OW15288   6.819   4.485   3.548 -0.0521  0.3549  0.4600
 4868SOL    HW115289   6.735   4.443   3.528 -0.5302  1.5197 -0.0663
 4868SOL    HW215290   6.875   4.413   3.577 -1.1832 -0.4691  0.6791
 4869SOL     OW15291   2.013   6.375   2.650  0.4256  0.5662  0.0658
 4869SOL    HW115292   1.997   6.469   2.643  2.2206  0.8412 -1.0996
 4869SOL    HW215293   2.078   6.367   2.720  1.6911  0.4235 -1.0861
 4870SOL     OW15294   4.954   6.361   5.879  0.2603  0.6193 -0.7459
 4870SOL    HW115295   5.035   6.380   5.832 -0.7102  0.5945 -2.5109
 4870SOL    HW215296   4.941   6.436   5.937  1.4063  0.7265 -0.6085
 4871SOL     OW15297   1.300   5.296   0.893 -0.2306  0.0492  0.7221
 4871SOL    HW115298   1.212   5.299   0.856 -0.1334 -1.1672  0.3666
 4871SOL    HW215299   1.309   5.380   0.938 -0.8028  1.0638 -0.9555
 4872SOL     OW15300   6.478   3.256   7.442 -0.0522 -0.1613  0.3033
 4872SOL    HW115301   6.449   3.259   7.350 -0.8262 -2.1668  0.4201
 4872SOL    HW215302   6.561   3.207   7.439 -0.5052 -0.9824  0.7246
 4873SOL     OW15303   2.840   0.360   1.825 -0.1389 -0.2666 -0.2002
 4873SOL    HW115304   2.875   0.386   1.740  0.6187  1.3877  0.5473
 4873SOL    HW215305   2.762   0.415   1.837 -0.1987 -0.4291  0.1876
 4874SOL     OW15306   0.368   1.581   7.021  0.7308  0.8088 -0.0735
 4874SOL    HW115307   0.463   1.587   7.013  0.6245  0.7769 -1.7525
 4874SOL    HW215308   0.349   1.487   7.018  0.5172  0.8776 -2.1842
 4875SOL     OW15309   0.856   5.862   3.523 -0.0656  0.1238 -0.3990
 4875SOL    HW115310   0.816   5.932   3.473 -1.8821 -0.5132  0.0891
 4875SOL    HW215311   0.919   5.822   3.463 -2.2684 -0.7136 -2.2895
 4876SOL     OW15312   4.799   2.641   3.188 -0.0333 -0.2835  0.4193
 4876SOL    HW115313   4.868   2.596   3.138  0.3604  1.2999 -0.5196
 4876SOL    HW215314   4.720   2.631   3.134 -0.2136 -0.7727  0.7575
 4877SOL     OW15315   5.785   3.022   7.180  0.1979 -0.3048  0.2421
 4877SOL    HW115316   5.748   3.081   7.114 -0.4839 -0.5807  0.3718
 4877SOL    HW215317   5.828   3.080   7.243  3.3663 -0.1111 -1.8693
 4878SOL     OW15318   7.501   4.322   6.988 -0.0173  0.0417  0.2674
 4878SOL    HW115319   7.454   4.243   6.962 -0.0976  0.3875 -0.6605
 4878SOL    HW215320   7.432   4.387   7.004  0.1187  0.6318 -1.3620
 4879SOL     OW15321   2.089   3.317   7.533 -0.6407 -0.7059 -0.0006
 4879SOL    HW115322   2.045   3.388   7.486 -0.4965 -0.2933  0.4737
 4879SOL    HW215323   2.094   3.348   7.624  1.1389 -0.4655 -0.1480
 4880SOL     OW15324   3.477   7.454   7.389  0.7092 -0.2913  0.1610
 4880SOL    HW115325   3.460   7.363   7.367 -0.3767 -0.0667  0.0204
 4880SOL    HW215326   3.404   7.502   7.350  0.5063  0.4731  1.4079
 4881SOL     OW15327   2.096   4.692   5.839 -0.0366 -0.3153 -0.0799
 4881SOL    HW115328   2.103   4.766   5.900  1.6690  1.1346 -1.9154
 4881SOL    HW215329   2.145   4.621   5.882  2.4438  1.1438 -0.3517
 4882SOL     OW15330   2.505   7.741   2.421  0.4660 -0.1969  0.6234
 4882SOL    HW115331   2.415   7.768   2.439  0.1003 -1.3857  0.6173
 4882SOL    HW215332   2.558   7.819   2.443 -0.4550  0.1694  1.6349
 4883SOL     OW15333   3.763   6.956   5.854 -0.1150  0.5022 -0.0526
 4883SOL    HW115334   3.685   6.917   5.894 -0.6809  2.7167  1.2008
 4883SOL    HW215335   3.730   7.036   5.812  1.3920  1.1838  0.0174
 4884SOL     OW15336   1.862   6.476   4.191 -0.1021 -0.5617 -0.0165
 4884SOL    HW115337   1.927   6.411   4.166 -0.8654 -1.1240 -0.6263
 4884SOL    HW215338   1.795   6.425   4.237 -0.8231 -0.2655 -0.7138
 4885SOL     OW15339   7.629   5.360   7.178  0.1555  0.5440 -0.9972
 4885SOL    HW115340   7.629   5.419   7.103  4.8977  0.5581 -1.2800
 4885SOL    HW215341   7.647   5.416   7.254 -0.6020  0.0526 -0.4346
 4886SOL     OW15342   1.703   1.865   6.544 -0.2543 -0.7068 -0.1912
 4886SOL    HW115343   1.756   1.831   6.615 -2.2091  0.3017  1.8769
 4886SOL    HW215344   1.727   1.957   6.537 -2.9012  0.3125  2.1460
 4887SOL     OW15345   4.619   0.710   7.073  0.2887 -0.3900  0.6400
 4887SOL    HW115346   4.645   0.768   7.001  0.4729  0.6590  1.5332
 4887SOL    HW215347   4.688   0.644   7.077  1.4148  0.7833  1.2105
 4888SOL     OW15348   0.347   3.253   2.863  0.1018 -0.1951 -0.0827
 4888SOL    HW115349   0.412   3.183   2.861 -0.4561 -0.7362  0.3829
 4888SOL    HW215350   0.348   3.284   2.953 -1.1435 -1.0454  0.2529
 4889SOL     OW15351   5.090   7.319   7.503  0.6256  0.3943  0.5776
 4889SOL    HW115352   5.019   7.287   7.447 -0.0359  0.9180  1.0926
 4889SOL    HW215353   5.060   7.406   7.531  1.6931  0.8230  0.4212
 4890SOL     OW15354   2.246   4.107   7.065  0.0300  0.3041  0.7792
 4890SOL    HW115355   2.241   4.042   6.995  0.2982 -0.4433  1.4232
 4890SOL    HW215356   2.168   4.090   7.118  0.1139  0.4944  0.9643
 4891SOL     OW15357   3.463   4.085   7.707 -0.0967  0.1992 -0.0235
 4891SOL    HW115358   3.373   4.119   7.703 -1.5880 -3.3345 -0.4693
 4891SOL    HW215359   3.460   4.004   7.656  3.1624 -0.5456  0.7237
 4892SOL     OW15360   7.662   1.776   4.321  0.4873 -0.9435  0.2292
 4892SOL    HW115361   7.650   1.838   4.249 -1.5644 -1.8195 -0.2716
 4892SOL    HW215362   7.746   1.734   4.304  2.8936  2.8782  1.6031
 4893SOL     OW15363   0.496   1.141   0.190 -0.2345  0.0297 -0.3540
 4893SOL    HW115364   0.568   1.078   0.190 -0.5497 -0.3383  0.4014
 4893SOL    HW215365   0.530   1.216   0.142  0.4743 -0.3432 -0.4461
 4894SOL     OW15366   0.430   6.266   0.444 -0.5003  0.2927 -0.4924
 4894SOL    HW115367   0.351   6.245   0.494  0.2412 -0.5290  0.3772
 4894SOL    HW215368   0.454   6.184   0.402  2.3079 -0.8251  2.7632
 4895SOL     OW15369   4.493   5.310   3.247 -0.0804  0.0640 -0.2910
 4895SOL    HW115370   4.566   5.248   3.244  1.5281  1.6760  1.9142
 4895SOL    HW215371   4.506   5.366   3.170  1.3151  0.5661  0.2634
 4896SOL     OW15372   3.159   6.179   6.061  0.5213  0.6531 -0.0552
 4896SOL    HW115373   3.226   6.171   6.128  0.6440  2.4462  0.0933
 4896SOL    HW215374   3.099   6.106   6.078  0.2441  1.3515  2.3714
 4897SOL     OW15375   3.891   6.204   0.237  0.0487  0.0453  0.0652
 4897SOL    HW115376   3.967   6.234   0.186  1.2457 -1.4361  0.9182
 4897SOL    HW215377   3.897   6.109   0.235  0.0171 -0.0793  2.7488
 4898SOL     OW15378   0.167   7.628   6.525  0.3632  0.3424 -0.4768
 4898SOL    HW115379   0.207   7.579   6.453 -1.0085  0.3087 -1.2586
 4898SOL    HW215380   0.073   7.611   6.516  0.2029 -0.5800  2.0050
 4899SOL     OW15381   2.975   6.281   6.444 -0.5830  0.2208  0.4418
 4899SOL    HW115382   2.933   6.269   6.529 -0.2311 -0.4163  0.5397
 4899SOL    HW215383   2.959   6.198   6.398 -0.5651  0.4722 -0.0184
 4900SOL     OW15384   3.063   5.332   1.401  0.2234 -0.4395 -0.3609
 4900SOL    HW115385   3.087   5.267   1.466 -1.3574  1.0465  1.8288
 4900SOL    HW215386   3.139   5.390   1.396  0.5791 -0.8946 -0.2891
 4901SOL     OW15387   5.815   1.022   5.823 -0.0447  0.1568 -0.8168
 4901SOL    HW115388   5.818   0.928   5.840  1.7615  0.0965 -1.2532
 4901SOL    HW215389   5.768   1.058   5.898  0.9452 -0.9117  0.3603
 4902SOL     OW15390   5.552   3.005   2.753 -0.0428 -0.7079 -0.2097
 4902SOL    HW115391   5.464   3.040   2.740  0.6360  0.3698 -2.4047
 4902SOL    HW215392   5.547   2.958   2.836 -2.0096  1.4472  1.0122
 4903SOL     OW15393   0.417   5.555   1.020 -0.4974  0.8518 -0.2376
 4903SOL    HW115394   0.371   5.489   0.967 -0.1580  0.3994  0.0188
 4903SOL    HW215395   0.488   5.585   0.964  1.6807 -1.7396  0.9139
 4904SOL     OW15396   3.660   0.121   4.562 -0.2203 -0.0538 -0.1389
 4904SOL    HW115397   3.613   0.099   4.642 -0.3584  1.3417  0.1920
 4904SOL    HW215398   3.741   0.162   4.592  1.2758 -2.3698 -0.6921
 4905SOL     OW15399   3.180   6.800   7.207 -0.3797 -0.3405  0.2606
 4905SOL    HW115400   3.200   6.720   7.255  1.1838  0.0845  0.3686
 4905SOL    HW215401   3.262   6.824   7.165 -0.5674  1.7200  0.9949
 4906SOL     OW15402   4.654   1.520   6.344 -0.2979 -0.2514  0.1341
 4906SOL    HW115403   4.729   1.566   6.381  1.1298  0.0105 -2.8128
 4906SOL    HW215404   4.583   1.536   6.407  1.5714  1.1756  2.0204
 4907SOL     OW15405   3.116   1.256   4.959  0.1150  0.7932 -0.3970
 4907SOL    HW115406   3.021   1.250   4.960  0.1406 -0.4295 -1.8155
 4907SOL    HW215407   3.135   1.347   4.980 -1.4428  1.5229 -1.9299
 4908SOL     OW15408   7.653   3.175   4.532  0.1565 -0.0773  0.2059
 4908SOL    HW115409   7.622   3.264   4.550  0.3360 -0.0084  0.1822
 4908SOL    HW215410   7.749   3.183   4.534  0.2452  0.2706 -2.3474
 4909SOL     OW15411   6.961   6.481   1.024  0.4625  0.0544 -0.2923
 4909SOL    HW115412   6.952   6.439   1.109 -0.9928 -1.0031 -0.9261
 4909SOL    HW215413   6.979   6.409   0.963  0.2084  0.6261 -1.0638
 4910SOL     OW15414   2.480   5.553   4.733 -0.4777 -0.3605  0.3383
 4910SOL    HW115415   2.532   5.627   4.702 -0.8402 -0.0857  0.3849
 4910SOL    HW215416   2.398   5.560   4.685 -1.0190  0.0211  1.3096
 4911SOL     OW15417   0.016   4.822   1.331  0.2189 -0.0048 -0.8463
 4911SOL    HW115418  -0.046   4.751   1.316 -0.0887  0.1086 -0.1401
 4911SOL    HW215419  -0.025   4.877   1.397  1.5169 -0.4957  0.4254
 4912SOL     OW15420   6.502   6.112   4.493 -0.0514  0.1907 -0.3404
 4912SOL    HW115421   6.480   6.023   4.466 -1.3449  0.0808  0.9562
 4912SOL    HW215422   6.490   6.112   4.588 -0.0340  1.7379 -0.3134
 4913SOL     OW15423   6.698   1.848   5.825  0.2368  0.6924 -0.0982
 4913SOL    HW115424   6.758   1.880   5.758  1.5123 -2.5669 -0.7208
 4913SOL    HW215425   6.665   1.766   5.790 -1.1894  0.2202  2.1428
 4914SOL     OW15426   3.419   5.576   1.713 -0.5081 -0.1707 -0.2427
 4914SOL    HW115427   3.367   5.587   1.634 -1.8929 -0.6026  0.5672
 4914SOL    HW215428   3.496   5.631   1.699 -1.1182  0.4103 -1.5300
 4915SOL     OW15429   4.903   3.336   0.610 -0.5539 -0.0725  0.3913
 4915SOL    HW115430   4.853   3.415   0.589 -0.1954 -0.1964 -1.0403
 4915SOL    HW215431   4.854   3.265   0.567 -0.1769 -0.4542  0.5870
 4916SOL     OW15432   3.710   5.837   2.880 -0.6758  0.1746  0.1503
 4916SOL    HW115433   3.653   5.766   2.852 -0.5059  0.3398 -0.6373
 4916SOL    HW215434   3.703   5.903   2.811 -1.2686  1.1756  1.1325
 4917SOL     OW15435   4.415   6.743   0.930  0.0002 -0.7929  0.7714
 4917SOL    HW115436   4.356   6.736   1.005  1.4874 -0.2838  2.0446
 4917SOL    HW215437   4.497   6.704   0.961  1.4240  1.6463  0.3182
 4918SOL     OW15438   3.679   2.512   2.939  0.2456  0.0810 -0.5573
 4918SOL    HW115439   3.775   2.516   2.943  0.2067  0.2903  0.8270
 4918SOL    HW215440   3.659   2.419   2.948  0.2880  0.2559  2.8366
 4919SOL     OW15441   2.822   0.915   7.631 -0.5661  0.0641 -0.2649
 4919SOL    HW115442   2.749   0.855   7.642 -0.0541 -0.6057 -0.4753
 4919SOL    HW215443   2.867   0.913   7.716  1.7112 -2.8920 -1.3602
 4920SOL     OW15444   6.405   3.324   5.653 -0.0181  0.1839  0.2450
 4920SOL    HW115445   6.457   3.344   5.575  1.1947 -0.0919  0.9530
 4920SOL    HW215446   6.411   3.229   5.661 -2.5491 -0.1445 -0.9312
 4921SOL     OW15447   2.230   6.878   3.249 -0.6688 -0.1334 -0.4712
 4921SOL    HW115448   2.144   6.843   3.270 -0.6989 -0.2258 -0.7465
 4921SOL    HW215449   2.247   6.850   3.159  0.2395 -1.3008  0.0379
 4922SOL     OW15450   6.897   6.859   0.266 -0.5494 -0.3041  0.0122
 4922SOL    HW115451   6.929   6.825   0.182 -1.7814 -0.0466 -0.5699
 4922SOL    HW215452   6.896   6.782   0.323 -1.0469 -0.7806 -0.6198
 4923SOL     OW15453   7.325   2.161   3.245 -0.3316  0.4692  0.2721
 4923SOL    HW115454   7.355   2.179   3.156 -1.6347 -0.1908 -0.3120
 4923SOL    HW215455   7.361   2.075   3.265  1.0714  1.1666  0.9130
 4924SOL     OW15456   2.852   0.822   3.341  0.0205 -0.2053 -0.0007
 4924SOL    HW115457   2.803   0.744   3.366  0.2949 -0.3376  0.1309
 4924SOL    HW215458   2.813   0.892   3.394  1.5569 -0.7361  1.9491
 4925SOL     OW15459   5.059   0.862   4.755 -0.1840  0.0855  0.0626
 4925SOL    HW115460   5.090   0.919   4.825 -0.0115 -0.1052  0.1412
 4925SOL    HW215461   4.998   0.803   4.798 -0.3081  0.1635 -0.0057
 4926SOL     OW15462   6.389   3.564   0.921  0.4387  0.5320 -0.3169
 4926SOL    HW115463   6.452   3.506   0.878  0.1268 -2.0618  2.4755
 4926SOL    HW215464   6.304   3.529   0.897  0.2029  0.7835  0.1398
 4927SOL     OW15465   5.530   3.617   4.804  0.1197 -0.4574  0.0942
 4927SOL    HW115466   5.522   3.548   4.869 -2.1149 -1.2444 -0.8953
 4927SOL    HW215467   5.495   3.695   4.847  1.3097 -0.2692  0.7415
 4928SOL     OW15468   2.749   2.723   3.472  0.9211  0.1542  0.5487
 4928SOL    HW115469   2.772   2.631   3.473  1.4581  0.2873  0.6324
 4928SOL    HW215470   2.705   2.738   3.556  0.5270 -0.0999  0.3892
 4929SOL     OW15471   2.209   7.605   0.512 -0.0586 -0.1102  0.1190
 4929SOL    HW115472   2.253   7.628   0.594  1.0505  1.2506 -0.8110
 4929SOL    HW215473   2.150   7.679   0.496 -0.4747 -0.5064 -0.1580
 4930SOL     OW15474   1.058   5.289   2.881 -0.9456 -0.1193 -0.3955
 4930SOL    HW115475   1.132   5.329   2.836 -1.8762 -0.7295 -2.6142
 4930SOL    HW215476   1.061   5.197   2.855 -0.0548 -1.1579  2.9383
 4931SOL     OW15477   3.089   4.371   0.584 -0.3089 -0.0592 -0.2581
 4931SOL    HW115478   3.148   4.395   0.514 -1.6343  0.4360 -1.2447
 4931SOL    HW215479   3.064   4.280   0.565 -1.2303  0.3053 -0.8709
 4932SOL     OW15480   0.147   4.831   0.614 -0.3309 -0.0674  0.1365
 4932SOL    HW115481   0.173   4.852   0.704  1.7910 -0.4081 -0.3367
 4932SOL    HW215482   0.137   4.736   0.613 -0.5283 -0.0471  0.0494
 4933SOL     OW15483   4.986   5.001   5.109  0.0100 -0.3370 -0.0214
 4933SOL    HW115484   4.897   5.033   5.125  0.9166  2.4843  0.0160
 4933SOL    HW215485   5.016   5.051   5.033  1.9275 -0.3797  0.6456
 4934SOL     OW15486   7.454   6.201   4.337 -0.8783 -0.1068  0.1832
 4934SOL    HW115487   7.418   6.182   4.251  1.2760  1.7668 -1.2676
 4934SOL    HW215488   7.421   6.289   4.358  0.3329  0.3735  0.1986
 4935SOL     OW15489   3.122   4.689   1.051 -0.3789 -0.0279 -0.3088
 4935SOL    HW115490   3.142   4.655   0.963 -1.0405 -0.0469 -0.4564
 4935SOL    HW215491   3.030   4.713   1.046 -0.2484  0.5801  0.1900
 4936SOL     OW15492   3.884   1.552   3.648  0.5361  0.2637 -1.0245
 4936SOL    HW115493   3.853   1.462   3.636  0.7406 -0.1928  1.3362
 4936SOL    HW215494   3.935   1.571   3.569 -0.1122 -1.4228 -1.8942
 4937SOL     OW15495   4.579   1.377   5.587  0.3669 -0.5002 -0.1043
 4937SOL    HW115496   4.510   1.395   5.651 -0.5465  0.0259 -1.1905
 4937SOL    HW215497   4.543   1.306   5.533  1.5162 -1.5963  0.5194
 4938SOL     OW15498   2.064   4.140   5.586 -0.7015  0.5234  0.6919
 4938SOL    HW115499   2.039   4.102   5.670  0.1523 -3.4975 -0.6256
 4938SOL    HW215500   2.016   4.088   5.521  1.2560  1.1230 -1.3893
 4939SOL     OW15501   0.878   1.842   5.901  0.5274 -0.8859 -0.1545
 4939SOL    HW115502   0.935   1.899   5.851 -0.2247  1.7550  1.7735
 4939SOL    HW215503   0.934   1.804   5.969  0.4537 -0.0137  0.4049
 4940SOL     OW15504   4.335   0.855   2.879  0.2415  0.1032 -0.0894
 4940SOL    HW115505   4.287   0.886   2.956 -0.6979 -1.1037 -0.1516
 4940SOL    HW215506   4.371   0.771   2.907  0.9831  0.2637 -0.5634
 4941SOL     OW15507   2.485   4.770   6.797  0.0110  0.1037 -0.3700
 4941SOL    HW115508   2.579   4.775   6.816 -0.0993 -2.0858  1.1706
 4941SOL    HW215509   2.452   4.858   6.818  1.2664  0.0936  2.0891
 4942SOL     OW15510   1.017   2.231   2.331 -0.3103 -0.0194  0.3767
 4942SOL    HW115511   1.053   2.306   2.284  2.2751  1.2545  3.8953
 4942SOL    HW215512   1.000   2.264   2.419  0.3532 -3.3610  1.9195
 4943SOL     OW15513   0.457   4.497   4.157 -0.0280 -0.6012  0.4239
 4943SOL    HW115514   0.401   4.424   4.183 -1.7444  0.7630  0.7552
 4943SOL    HW215515   0.529   4.456   4.109 -0.7957 -2.5167  0.8145
 4944SOL     OW15516   6.429   5.327   6.163 -0.3486 -0.4736 -0.6860
 4944SOL    HW115517   6.365   5.322   6.235  1.4250  0.5706  1.0553
 4944SOL    HW215518   6.378   5.308   6.085 -3.0788  1.5135  0.4625
 4945SOL     OW15519   5.283   7.133   3.076 -0.4875  0.3371  0.6393
 4945SOL    HW115520   5.364   7.107   3.119  0.6484  0.7321 -1.1447
 4945SOL    HW215521   5.272   7.070   3.005  0.3263  2.4046 -1.4489
 4946SOL     OW15522   6.585   6.287   3.963  0.6499  0.0513  0.0913
 4946SOL    HW115523   6.644   6.275   4.037 -0.0037 -0.1107  0.5914
 4946SOL    HW215524   6.505   6.323   4.001  0.2528 -0.1807 -0.5055
 4947SOL     OW15525   0.008   2.137   0.010  0.1405  0.4729 -0.2298
 4947SOL    HW115526   0.085   2.083   0.024 -0.0781  0.4710  1.0592
 4947SOL    HW215527  -0.049   2.118   0.084 -0.0837  2.2163  0.0812
 4948SOL     OW15528   4.678   2.862   3.305 -0.8820 -0.1658 -0.0766
 4948SOL    HW115529   4.720   2.786   3.263 -1.1985 -0.6298  0.4317
 4948SOL    HW215530   4.714   2.937   3.259 -0.2069 -0.6030 -0.2834
 4949SOL     OW15531   5.069   0.468   4.653 -0.1850 -0.4429 -0.1295
 4949SOL    HW115532   5.096   0.498   4.740 -0.9198  1.9188 -0.6700
 4949SOL    HW215533   5.146   0.483   4.597 -0.2459 -0.4551 -0.2163
 4950SOL     OW15534   7.284   7.221   6.807 -0.3675 -0.5428  0.4642
 4950SOL    HW115535   7.325   7.306   6.795 -1.6579  0.1406  0.7750
 4950SOL    HW215536   7.356   7.158   6.797  0.3441  0.4799 -1.2781
 4951SOL     OW15537   4.102   5.131   5.064  0.3295  0.3341 -0.0519
 4951SOL    HW115538   4.072   5.093   5.146 -1.3794  3.0962  0.7317
 4951SOL    HW215539   4.024   5.171   5.026  1.4953  0.8193 -2.0609
 4952SOL     OW15540   0.019   7.030   3.991  0.4070 -0.1220  0.2347
 4952SOL    HW115541   0.071   7.025   4.072  1.6242 -0.7191 -0.5494
 4952SOL    HW215542  -0.069   7.052   4.021  0.5401 -1.5295  1.8478
 4953SOL     OW15543   7.298   2.512   6.792 -0.1116  0.6123  0.2052
 4953SOL    HW115544   7.251   2.429   6.783  0.6527  0.1332  0.5085
 4953SOL    HW215545   7.229   2.577   6.811 -0.6504 -0.0682  0.6452
 4954SOL     OW15546   4.243   2.524   3.869  0.7692  0.6172  0.2490
 4954SOL    HW115547   4.301   2.515   3.944 -0.2400  1.0132  1.1011
 4954SOL    HW215548   4.301   2.527   3.793  1.7351 -1.5037  0.8407
 4955SOL     OW15549   6.333   5.380   5.297 -0.4189 -0.5389 -0.2419
 4955SOL    HW115550   6.355   5.473   5.307  0.2707 -0.7310  0.0986
 4955SOL    HW215551   6.378   5.354   5.216  1.0055 -1.0401  0.6850
 4956SOL     OW15552   1.057   0.605   1.623  0.2697 -0.1238  0.5100
 4956SOL    HW115553   1.031   0.513   1.636  0.2695 -0.1036  0.6546
 4956SOL    HW215554   1.043   0.621   1.530  2.2416 -0.8883  0.0338
 4957SOL     OW15555   2.861   5.071   5.117 -0.1375 -0.5272 -0.5602
 4957SOL    HW115556   2.908   5.086   5.200  0.9118  1.5797 -1.4545
 4957SOL    HW215557   2.904   4.995   5.078 -1.1593 -2.0603  1.1187
 4958SOL     OW15558   5.598   2.103   3.643 -0.3346  0.3342  0.3984
 4958SOL    HW115559   5.515   2.057   3.651 -0.0954 -0.3732 -0.9693
 4958SOL    HW215560   5.590   2.154   3.562  1.0811 -0.8837 -0.5499
 4959SOL     OW15561   4.293   6.663   3.421  0.4932  0.0227 -0.0075
 4959SOL    HW115562   4.205   6.700   3.414  0.0834 -1.0344 -0.8996
 4959SOL    HW215563   4.296   6.598   3.351  2.3201  0.6927 -0.5951
 4960SOL     OW15564   5.352   2.669   6.164 -0.6407 -0.0176  0.3326
 4960SOL    HW115565   5.305   2.585   6.161  0.9449 -0.9421 -0.5256
 4960SOL    HW215566   5.444   2.643   6.172  0.2206  1.4852 -3.1059
 4961SOL     OW15567   1.176   6.921   3.468  0.3480  0.2406  0.5008
 4961SOL    HW115568   1.203   6.942   3.378 -1.4260 -0.3155 -0.2028
 4961SOL    HW215569   1.220   6.988   3.522  0.6994  1.1678 -0.8645
 4962SOL     OW15570   3.386   5.404   0.511 -0.8631  0.1457  0.4177
 4962SOL    HW115571   3.406   5.392   0.604 -1.8228  0.0138  0.6187
 4962SOL    HW215572   3.311   5.346   0.495 -0.6083  0.0496 -0.4787
 4963SOL     OW15573   7.632   7.207   6.674  0.7542 -0.5466 -0.4737
 4963SOL    HW115574   7.599   7.156   6.748  3.6762 -0.3696  1.0840
 4963SOL    HW215575   7.565   7.197   6.606 -0.9603 -2.6091  1.3806
 4964SOL     OW15576   2.211   6.155   0.458 -0.0922  0.0638  0.6450
 4964SOL    HW115577   2.199   6.093   0.386 -1.5007  0.9849  0.0405
 4964SOL    HW215578   2.199   6.241   0.418  0.0828  0.6424  1.7963
 4965SOL     OW15579   5.213   1.717   4.495  0.3321  0.6320 -0.1592
 4965SOL    HW115580   5.138   1.736   4.438 -0.7283 -2.8869 -0.1609
 4965SOL    HW215581   5.174   1.695   4.580  1.2589 -1.3769 -0.1917
 4966SOL     OW15582   0.025   6.038   5.305  0.0413  0.1464  0.0435
 4966SOL    HW115583  -0.068   6.048   5.287  0.0914  0.1887 -0.1929
 4966SOL    HW215584   0.068   6.101   5.247  0.1972  0.3575  0.3838
 4967SOL     OW15585   0.785   3.781   4.799  0.4740 -0.0388 -0.2067
 4967SOL    HW115586   0.774   3.689   4.776  2.4425 -0.3215 -0.2114
 4967SOL    HW215587   0.750   3.788   4.888  2.2867 -1.3362  0.6578
 4968SOL     OW15588   4.195   3.297   0.298  0.5405  0.1191  0.5298
 4968SOL    HW115589   4.208   3.392   0.294  1.7309 -0.0606 -2.9266
 4968SOL    HW215590   4.274   3.260   0.260 -1.0323 -2.1074 -0.7882
 4969SOL     OW15591   3.640   7.095   7.021  0.2518  0.1887 -0.0436
 4969SOL    HW115592   3.624   7.183   7.055  0.6311 -0.3023  1.4646
 4969SOL    HW215593   3.670   7.109   6.931 -0.5383  1.5419 -0.1179
 4970SOL     OW15594   7.579   4.070   0.743  0.0445  0.1960 -0.2420
 4970SOL    HW115595   7.626   4.025   0.813 -0.9703  0.4569  0.6329
 4970SOL    HW215596   7.513   4.007   0.714  0.3279  0.1659 -0.8306
 4971SOL     OW15597   2.060   2.372   0.521  0.2710 -0.4627 -0.2203
 4971SOL    HW115598   2.110   2.295   0.548  2.1991  0.8019  0.0848
 4971SOL    HW215599   1.988   2.337   0.469  2.5291 -2.3988 -2.3530
 4972SOL     OW15600   6.411   7.401   5.478 -0.6270 -0.0207 -0.1206
 4972SOL    HW115601   6.421   7.329   5.416  1.4944  0.4900 -0.4222
 4972SOL    HW215602   6.378   7.474   5.426 -0.6259 -0.1276 -0.2703
 4973SOL     OW15603   0.323   3.707   6.149  0.3198  0.1420  0.0418
 4973SOL    HW115604   0.317   3.618   6.183  0.3778  0.8321  1.9686
 4973SOL    HW215605   0.273   3.760   6.211  0.4113  1.4919 -0.9863
 4974SOL     OW15606   4.147   6.340   3.546 -0.1394 -0.0186  0.3880
 4974SOL    HW115607   4.206   6.321   3.473  0.5758  0.6621  0.7635
 4974SOL    HW215608   4.202   6.329   3.624  0.3547  3.3682  0.6599
 4975SOL     OW15609   0.376   2.480   4.576 -0.3392  0.0000 -0.0089
 4975SOL    HW115610   0.446   2.432   4.531  1.2665  0.5190  1.8119
 4975SOL    HW215611   0.297   2.428   4.558  0.6271 -1.0880 -1.4068
 4976SOL     OW15612   2.566   4.111   5.422  0.1508 -0.4337  0.0783
 4976SOL    HW115613   2.558   4.060   5.503  0.2450  0.5318  0.7060
 4976SOL    HW215614   2.475   4.133   5.399  0.2429  1.5484  1.4075
 4977SOL     OW15615   6.672   3.140   0.168 -0.3848 -0.2377  0.4329
 4977SOL    HW115616   6.758   3.178   0.181  0.0218 -0.7068 -0.7517
 4977SOL    HW215617   6.611   3.206   0.199  0.2177  1.9909 -2.6880
 4978SOL     OW15618   6.384   6.408   4.126  0.2024  0.5605 -0.2138
 4978SOL    HW115619   6.297   6.438   4.100  0.0255  0.8998  0.7312
 4978SOL    HW215620   6.402   6.454   4.208  0.8548 -0.2588  0.1172
 4979SOL     OW15621   3.245   0.310   6.615 -0.3515 -0.1859  0.0773
 4979SOL    HW115622   3.220   0.218   6.610 -2.0233  0.2499 -0.2202
 4979SOL    HW215623   3.177   0.351   6.668  0.0208  0.9896 -0.3206
 4980SOL     OW15624   7.048   3.780   7.377 -0.6116 -0.1691  0.1735
 4980SOL    HW115625   6.968   3.760   7.426 -1.4214  0.6759 -0.7597
 4980SOL    HW215626   7.118   3.741   7.429 -1.4736  0.3231  1.7739
 4981SOL     OW15627   3.516   2.924   6.990  0.0935 -0.1668  0.1128
 4981SOL    HW115628   3.528   2.895   7.081  0.5087  1.1194  0.4903
 4981SOL    HW215629   3.460   2.857   6.951  0.9458 -1.4131  0.9459
 4982SOL     OW15630   6.764   5.776   3.628  0.2890 -0.0906  0.0161
 4982SOL    HW115631   6.723   5.828   3.698 -0.8264 -0.4954 -0.3232
 4982SOL    HW215632   6.807   5.704   3.674 -0.4592 -0.3672  0.2890
 4983SOL     OW15633   3.782   1.530   7.437 -0.5750 -0.2648 -0.2532
 4983SOL    HW115634   3.780   1.441   7.403 -2.5054 -0.0087 -0.9589
 4983SOL    HW215635   3.736   1.526   7.521  0.0433 -0.0585  0.1070
 4984SOL     OW15636   1.650   5.552   4.682  0.0479  0.2129 -0.3806
 4984SOL    HW115637   1.693   5.479   4.725  1.0284  0.5450 -0.7584
 4984SOL    HW215638   1.636   5.523   4.592 -2.1003 -0.5230  0.1493
 4985SOL     OW15639   6.366   7.206   2.320 -0.1226 -0.1604 -0.0531
 4985SOL    HW115640   6.338   7.284   2.272 -0.9045 -0.1505  0.3999
 4985SOL    HW215641   6.445   7.234   2.366  0.5277 -0.1166 -1.1643
 4986SOL     OW15642   5.264   4.611   1.015 -0.0843 -0.5708  0.1094
 4986SOL    HW115643   5.168   4.608   1.014 -0.0881 -1.0191  1.0989
 4986SOL    HW215644   5.284   4.702   1.037 -0.2441 -0.0897 -1.5637
 4987SOL     OW15645   2.360   0.582   5.525  0.0102  0.3185  0.1051
 4987SOL    HW115646   2.315   0.498   5.531  3.5093 -1.6990  0.7450
 4987SOL    HW215647   2.408   0.590   5.607  2.6291  1.0904 -1.3947
 4988SOL     OW15648   2.775   1.714   7.322  0.3299 -0.5931 -0.6156
 4988SOL    HW115649   2.813   1.782   7.377 -1.6940  1.1283 -1.2074
 4988SOL    HW215650   2.829   1.637   7.338  1.2279  0.4716  1.9476
 4989SOL     OW15651   4.437   6.873   1.355 -0.2999  0.5115  0.2724
 4989SOL    HW115652   4.533   6.874   1.358 -0.2336  2.5846 -0.5614
 4989SOL    HW215653   4.416   6.840   1.267 -0.4274 -1.0139  0.8397
 4990SOL     OW15654   3.549   1.239   3.362  0.5393  0.2319  0.6637
 4990SOL    HW115655   3.571   1.310   3.423  0.9052  0.7929 -0.1064
 4990SOL    HW215656   3.477   1.273   3.310  0.1114 -0.3128  0.8852
 4991SOL     OW15657   2.753   6.691   6.673  0.1196 -0.2067  0.2763
 4991SOL    HW115658   2.753   6.606   6.717  0.8897  0.3261  1.3279
 4991SOL    HW215659   2.830   6.688   6.616  1.0640  0.3564  1.4840
 4992SOL     OW15660   2.351   2.073   0.139  0.1998  0.1073  0.1707
 4992SOL    HW115661   2.408   2.136   0.183  0.1892 -0.7718  1.4827
 4992SOL    HW215662   2.321   2.120   0.060  0.3015  1.6909  1.0266
 4993SOL     OW15663   7.672   6.583   1.143 -0.1282 -0.4168 -0.0208
 4993SOL    HW115664   7.722   6.665   1.145  1.5376 -1.4200  0.8449
 4993SOL    HW215665   7.601   6.601   1.081  1.7725  0.7867 -2.0005
 4994SOL     OW15666   5.260   0.701   0.047  0.6231  0.1390 -0.2319
 4994SOL    HW115667   5.256   0.726  -0.045  0.4318  0.6663 -0.0880
 4994SOL    HW215668   5.327   0.758   0.085  0.6120  0.0128 -0.0175
 4995SOL     OW15669   3.546   2.930   7.288  0.0772  0.1654 -0.0065
 4995SOL    HW115670   3.639   2.946   7.279 -0.2389  2.1261 -0.1399
 4995SOL    HW215671   3.535   2.905   7.380  0.6601  0.4837  0.1550
 4996SOL     OW15672   6.440   7.584   7.729 -0.3451 -0.5289 -0.0243
 4996SOL    HW115673   6.346   7.571   7.747 -0.2783  0.3988  1.0704
 4996SOL    HW215674   6.472   7.496   7.709 -0.6907 -1.5950  3.3574
 4997SOL     OW15675   2.457   5.413   2.916  0.1882  0.1861 -0.3332
 4997SOL    HW115676   2.532   5.473   2.916 -0.0609  0.5179  0.5704
 4997SOL    HW215677   2.385   5.466   2.951  0.4874 -1.2180  2.7395
 4998SOL     OW15678   6.200   4.078   0.605  0.9078  0.4820 -0.0258
 4998SOL    HW115679   6.143   4.090   0.528  0.8793  0.8008  0.0403
 4998SOL    HW215680   6.263   4.011   0.578 -1.0648 -1.8423  0.7740
 4999SOL     OW15681   5.186   2.483   6.470  0.4554  0.6106 -0.0731
 4999SOL    HW115682   5.244   2.546   6.428 -0.0341  0.5104 -0.9052
 4999SOL    HW215683   5.245   2.420   6.512  0.9830 -0.2524 -2.0185
 5000SOL     OW15684   2.223   3.811   5.859  0.4021 -0.4995  0.1941
 5000SOL    HW115685   2.244   3.904   5.866 -0.7759 -0.1167 -0.9528
 5000SOL    HW215686   2.307   3.769   5.841  0.8399  0.4362 -0.0119
 5001SOL     OW15687   7.208   3.965   3.655  0.5493  0.6451  0.4032
 5001SOL    HW115688   7.250   3.912   3.723 -0.7582 -1.8529 -0.6010
 5001SOL    HW215689   7.115   3.945   3.664  0.2642  0.9094 -1.5509
 5002SOL     OW15690   3.729   3.410   4.136 -0.0377  0.8572 -0.2549
 5002SOL    HW115691   3.655   3.382   4.190 -1.0243 -0.3275 -2.1272
 5002SOL    HW215692   3.795   3.439   4.200 -1.5091  0.5038  1.5252
 5003SOL     OW15693   5.385   0.338   3.243  0.3432  0.3241 -0.0983
 5003SOL    HW115694   5.341   0.378   3.318 -1.9936  2.0753 -2.2490
 5003SOL    HW215695   5.314   0.307   3.187  1.9067  1.0739 -2.6223
 5004SOL     OW15696   7.194   0.400   1.411 -0.0543  0.1606  0.2221
 5004SOL    HW115697   7.137   0.370   1.340 -0.2316  0.6133  0.1692
 5004SOL    HW215698   7.139   0.460   1.462  0.4322  0.7623  0.0515
 5005SOL     OW15699   3.500   5.589   4.165  0.4073  0.0786 -0.0782
 5005SOL    HW115700   3.433   5.655   4.148 -1.1371 -1.4862 -0.3243
 5005SOL    HW215701   3.574   5.617   4.112 -0.5375  1.1013 -0.9178
 5006SOL     OW15702   3.943   0.285   5.323 -0.1102 -0.4901  0.5276
 5006SOL    HW115703   3.928   0.332   5.241 -0.2032  1.1083  1.4230
 5006SOL    HW215704   3.860   0.293   5.371 -0.1940 -1.7568  0.6301
 5007SOL     OW15705   1.411   3.271   4.784 -0.1048 -0.4931  0.6344
 5007SOL    HW115706   1.475   3.216   4.830 -0.0096  0.3504  1.5481
 5007SOL    HW215707   1.343   3.288   4.849 -0.1570  0.4159  0.3527
 5008SOL     OW15708   7.423   6.258   3.848  0.0178 -0.5637  0.0663
 5008SOL    HW115709   7.510   6.261   3.809 -0.8384  1.7776 -1.8573
 5008SOL    HW215710   7.362   6.268   3.775 -1.7991  0.2569  1.5929
 5009SOL     OW15711   0.708   1.985   5.675  0.4847  0.1419  0.3232
 5009SOL    HW115712   0.769   2.052   5.705  0.3980  1.6784 -2.5574
 5009SOL    HW215713   0.633   2.034   5.641 -1.3394 -1.6113  1.5452
 5010SOL     OW15714   7.223   3.592   5.974 -0.0789 -0.0968 -0.0889
 5010SOL    HW115715   7.303   3.584   5.923 -0.8980  0.6799 -1.5627
 5010SOL    HW215716   7.187   3.503   5.976  1.0786 -0.5801  1.1117
 5011SOL     OW15717   6.911   4.601   0.794 -0.2964  0.0462 -0.2767
 5011SOL    HW115718   6.892   4.658   0.869 -1.1394  0.0089 -0.4501
 5011SOL    HW215719   6.883   4.514   0.823 -0.9836  0.0975 -0.7593
 5012SOL     OW15720   4.384   4.036   2.670 -0.8049  0.0584  0.2155
 5012SOL    HW115721   4.445   4.108   2.685  1.1158 -1.1371 -1.2846
 5012SOL    HW215722   4.372   3.996   2.756 -0.7641  1.3050  0.8143
 5013SOL     OW15723   7.501   4.615   1.885  0.2363 -0.8893  0.3074
 5013SOL    HW115724   7.571   4.679   1.900  0.1037 -0.1997 -1.6304
 5013SOL    HW215725   7.534   4.560   1.814 -0.8370 -1.0891 -0.0533
 5014SOL     OW15726   2.794   3.161   7.521  0.5997  0.1973  0.3872
 5014SOL    HW115727   2.784   3.121   7.434  1.6886  2.4490 -0.8794
 5014SOL    HW215728   2.811   3.087   7.579  0.6458 -1.3413 -1.4665
 5015SOL     OW15729   5.391   0.117   3.576 -0.4026 -0.1115  0.4620
 5015SOL    HW115730   5.463   0.073   3.622 -1.0558 -1.9255 -0.1475
 5015SOL    HW215731   5.405   0.210   3.593  1.3319 -0.5006  1.4360
 5016SOL     OW15732   2.781   3.877   0.250 -0.2175  0.6432 -0.2602
 5016SOL    HW115733   2.841   3.826   0.305 -1.2138  0.0332  0.2821
 5016SOL    HW215734   2.803   3.851   0.161 -1.6632 -1.9000  0.0355
 5017SOL     OW15735   0.732   5.313   7.436 -0.5807  0.6479 -0.2848
 5017SOL    HW115736   0.819   5.352   7.423  0.4894 -0.9704  1.4611
 5017SOL    HW215737   0.712   5.329   7.528 -0.7174 -1.6279  0.1359
 5018SOL     OW15738   5.803   6.935   6.218  0.1342 -0.1831  0.4986
 5018SOL    HW115739   5.845   6.917   6.134  0.1165 -0.2756  0.5101
 5018SOL    HW215740   5.876   6.956   6.277  0.0719  1.1138  0.1517
 5019SOL     OW15741   2.100   1.820   2.900 -0.3141 -0.1551 -0.0448
 5019SOL    HW115742   2.137   1.906   2.923  0.2841 -0.5577  0.5055
 5019SOL    HW215743   2.158   1.787   2.831 -1.2029  0.3651 -1.0807
 5020SOL     OW15744   1.406   6.437   7.256 -0.0813  0.1267  0.2593
 5020SOL    HW115745   1.401   6.342   7.247  0.7689  0.0684  0.3568
 5020SOL    HW215746   1.386   6.470   7.168  0.0251 -0.1558  0.1266
 5021SOL     OW15747   2.583   7.738   0.448  0.3542 -0.3159 -0.2426
 5021SOL    HW115748   2.541   7.822   0.466 -0.3535 -0.7463  0.1933
 5021SOL    HW215749   2.590   7.696   0.534  3.2977  0.4368 -0.0388
 5022SOL     OW15750   0.029   4.161   7.655  0.5456  0.5517  0.2238
 5022SOL    HW115751  -0.001   4.245   7.622  2.3862  0.9309 -0.6279
 5022SOL    HW215752   0.032   4.172   7.750 -0.1013  1.1186  0.1841
 5023SOL     OW15753   1.216   1.804   6.482  0.1082 -0.3954 -0.5560
 5023SOL    HW115754   1.237   1.889   6.443 -0.9768  0.0753 -0.1787
 5023SOL    HW215755   1.146   1.769   6.426 -0.4171 -0.3938  0.0862
 5024SOL     OW15756   1.430   6.463   6.991  0.4336 -0.1118  0.1527
 5024SOL    HW115757   1.509   6.418   6.959 -0.6267 -0.2074 -2.6253
 5024SOL    HW215758   1.453   6.556   6.988  0.9990 -0.2082  1.1029
 5025SOL     OW15759   6.928   1.555   4.126 -0.4834 -0.1484 -0.4963
 5025SOL    HW115760   6.960   1.604   4.051  1.9018 -2.4559 -1.1364
 5025SOL    HW215761   6.856   1.502   4.091 -0.3573 -0.1216 -0.7992
 5026SOL     OW15762   0.349   5.724   6.325  0.0890  0.3044  0.0452
 5026SOL    HW115763   0.305   5.652   6.280 -0.0215  0.9821 -0.9701
 5026SOL    HW215764   0.323   5.802   6.276  0.9485  0.9297  0.5543
 5027SOL     OW15765   5.563   1.696   6.182  0.6011 -0.2154 -0.3719
 5027SOL    HW115766   5.572   1.734   6.095 -0.8021  0.6104 -0.1813
 5027SOL    HW215767   5.470   1.676   6.190  0.4065  1.1333  1.4721
 5028SOL     OW15768   0.372   1.819   4.269 -0.1850  0.1917 -0.2743
 5028SOL    HW115769   0.382   1.735   4.224  0.8651 -0.3772  0.9465
 5028SOL    HW215770   0.380   1.884   4.200  1.0524 -0.6584 -0.9682
 5029SOL     OW15771   7.686   5.418   3.746 -0.3942  0.0770 -0.5208
 5029SOL    HW115772   7.722   5.381   3.666  1.2527  0.9230 -0.2158
 5029SOL    HW215773   7.747   5.391   3.815 -1.0172  0.5294  0.2303
 5030SOL     OW15774   2.921   4.562   2.698  0.1199 -0.5012 -0.4026
 5030SOL    HW115775   2.862   4.575   2.624 -0.3123  1.5736  0.2504
 5030SOL    HW215776   2.870   4.587   2.775  1.6746  0.9546  0.2160
 5031SOL     OW15777   1.709   6.809   5.349 -0.0359  0.1167  0.2056
 5031SOL    HW115778   1.671   6.823   5.263 -2.0431  1.4637  1.2268
 5031SOL    HW215779   1.709   6.896   5.390 -1.4635 -0.8225  2.4095
 5032SOL     OW15780   1.653   4.741   2.193  0.4078  0.3647  0.4340
 5032SOL    HW115781   1.612   4.826   2.176  0.0238 -0.1418 -1.3515
 5032SOL    HW215782   1.728   4.738   2.133 -1.0274 -1.5448 -1.3928
 5033SOL     OW15783   7.620   0.532   2.251  0.3060 -0.5563 -0.6345
 5033SOL    HW115784   7.545   0.577   2.290 -1.1125 -1.2961 -2.3710
 5033SOL    HW215785   7.616   0.443   2.288 -0.1371 -0.8080 -1.2620
 5034SOL     OW15786   4.188   5.425   3.981 -0.3254  0.4434 -0.4350
 5034SOL    HW115787   4.271   5.439   3.936 -0.3832  0.2125 -0.6113
 5034SOL    HW215788   4.197   5.339   4.023 -0.9114 -0.1052 -1.4093
 5035SOL     OW15789   1.588   2.849   6.653 -0.3420  0.4348  0.1092
 5035SOL    HW115790   1.573   2.884   6.741 -2.4430  0.3563 -0.1514
 5035SOL    HW215791   1.582   2.754   6.664 -0.9468  0.4356 -0.1376
 5036SOL     OW15792   3.113   5.612   2.213 -0.5139 -0.4414  0.2492
 5036SOL    HW115793   3.077   5.536   2.259 -1.2720 -0.5270 -0.4595
 5036SOL    HW215794   3.093   5.596   2.121 -1.3284  0.9415  0.1551
 5037SOL     OW15795   1.315   5.404   0.290  0.5162 -0.6632 -0.4424
 5037SOL    HW115796   1.242   5.406   0.352  2.2494  2.3834  1.7623
 5037SOL    HW215797   1.385   5.361   0.339  1.8741  1.6741 -0.2224
 5038SOL     OW15798   0.101   4.220   0.160 -0.0005  0.1718  0.1871
 5038SOL    HW115799   0.191   4.222   0.192 -0.2505  0.2852  0.8867
 5038SOL    HW215800   0.054   4.167   0.224 -0.1309 -1.2104 -0.9829
 5039SOL     OW15801   3.967   6.959   2.552  0.8881 -0.1323 -0.1351
 5039SOL    HW115802   3.896   7.021   2.536  1.3590  0.2027 -0.9996
 5039SOL    HW215803   4.012   6.995   2.629 -0.3940 -0.8414  0.9787
 5040SOL     OW15804   7.125   3.197   2.691  0.7925  0.1874 -0.2235
 5040SOL    HW115805   7.114   3.203   2.786 -0.8767 -0.3372 -0.3460
 5040SOL    HW215806   7.176   3.274   2.668 -1.2702  1.9895  0.7919
 5041SOL     OW15807   0.112   3.014   7.692  0.1032 -0.3254  0.2805
 5041SOL    HW115808   0.070   3.097   7.714 -0.0794 -0.4285  0.3192
 5041SOL    HW215809   0.205   3.027   7.715 -0.0245 -0.3221  0.8166
 5042SOL     OW15810   6.833   3.551   5.274 -0.3315  0.3403  0.0311
 5042SOL    HW115811   6.746   3.526   5.305 -0.3629  0.2608 -0.1191
 5042SOL    HW215812   6.866   3.610   5.341 -1.2559  1.8801 -0.8112
 5043SOL     OW15813   4.593   3.505   6.888 -0.2457 -0.2169 -0.5019
 5043SOL    HW115814   4.507   3.514   6.930  0.1480 -2.5176  0.9764
 5043SOL    HW215815   4.576   3.519   6.795 -1.8937  1.0465 -0.0606
 5044SOL     OW15816   2.448   7.300   4.571  0.3089 -0.2437 -0.4566
 5044SOL    HW115817   2.521   7.289   4.632 -0.2173 -0.7488  0.0970
 5044SOL    HW215818   2.486   7.284   4.485  0.8152 -0.7018 -0.1547
 5045SOL     OW15819   2.390   1.292   2.996 -0.3750  0.0127 -0.0503
 5045SOL    HW115820   2.381   1.197   3.005 -0.2023 -0.0330 -0.3365
 5045SOL    HW215821   2.451   1.317   3.065 -1.3211  0.0806  0.7737
 5046SOL     OW15822   0.446   4.634   3.611 -0.0294 -0.2624 -0.1426
 5046SOL    HW115823   0.524   4.581   3.632 -1.2000 -1.2705  1.9273
 5046SOL    HW215824   0.463   4.719   3.652 -0.8000 -1.1100  2.0537
 5047SOL     OW15825   6.170   5.763   7.011 -0.2999  0.0680  1.1558
 5047SOL    HW115826   6.104   5.693   7.013  0.9895 -1.2283 -0.0203
 5047SOL    HW215827   6.234   5.735   6.946  1.8194  0.9460  2.7639
 5048SOL     OW15828   1.751   1.109   2.908  0.5788  0.6773  0.1781
 5048SOL    HW115829   1.692   1.177   2.941  1.1110  1.7887 -1.0666
 5048SOL    HW215830   1.694   1.035   2.889 -0.2443  1.3025  0.1473
 5049SOL     OW15831   1.365   6.288   0.424 -0.0133 -0.3090 -0.3955
 5049SOL    HW115832   1.355   6.367   0.370  1.3369  0.0209 -0.2004
 5049SOL    HW215833   1.347   6.216   0.364  2.9850 -0.0408 -1.8180
 5050SOL     OW15834   5.426   6.938   4.383 -0.5369 -0.5869  0.2170
 5050SOL    HW115835   5.331   6.928   4.382 -0.8357  1.4776  1.8090
 5050SOL    HW215836   5.443   7.017   4.332  0.0907  0.3352  1.7963
 5051SOL     OW15837   7.629   5.703   3.833  0.0346  0.2741 -0.4643
 5051SOL    HW115838   7.705   5.709   3.774 -0.4431  0.9248 -1.0388
 5051SOL    HW215839   7.612   5.794   3.859  0.1399  0.0086  0.5689
 5052SOL     OW15840   2.155   7.033   5.732 -0.1191  0.2232 -0.6442
 5052SOL    HW115841   2.063   7.060   5.731 -0.3836 -0.6474 -1.4557
 5052SOL    HW215842   2.175   7.022   5.825 -1.1779 -0.6177 -0.4870
 5053SOL     OW15843   6.550   6.018   2.822 -0.2823 -0.1567 -0.0422
 5053SOL    HW115844   6.576   5.977   2.740  0.5134 -0.3364  0.2892
 5053SOL    HW215845   6.460   6.048   2.807  0.1335  0.5719 -1.2655
 5054SOL     OW15846   6.162   6.368   7.089 -0.6154 -0.1203 -0.2161
 5054SOL    HW115847   6.247   6.335   7.061 -0.1801  1.6472 -1.1520
 5054SOL    HW215848   6.115   6.291   7.121  1.0212 -1.2648 -0.4709
 5055SOL     OW15849   4.715   0.291   2.685  0.2539  0.3922  0.2728
 5055SOL    HW115850   4.768   0.224   2.729 -0.0154  1.1885  1.8923
 5055SOL    HW215851   4.706   0.259   2.595  1.5860 -0.8700  0.5421
 5056SOL     OW15852   4.296   7.615   2.091 -0.4658 -0.1141 -0.2905
 5056SOL    HW115853   4.296   7.538   2.034  1.3524 -0.5716  0.2525
 5056SOL    HW215854   4.285   7.579   2.179  0.4996  0.2136 -0.0232
 5057SOL     OW15855   0.264   2.348   2.670  0.9166  0.2920 -0.0088
 5057SOL    HW115856   0.218   2.379   2.592  1.4323 -0.5549 -0.6687
 5057SOL    HW215857   0.207   2.283   2.709  0.1174  1.5579  1.0243
 5058SOL     OW15858   2.482   1.115   5.133  0.5273  0.2812  0.9553
 5058SOL    HW115859   2.502   1.208   5.121 -1.8677  0.8300  0.8418
 5058SOL    HW215860   2.446   1.109   5.221 -1.2863 -0.1304  0.2325
 5059SOL     OW15861   1.696   1.154   5.813 -0.5860 -0.6935 -0.8778
 5059SOL    HW115862   1.739   1.201   5.742 -0.0327  0.8189  0.4064
 5059SOL    HW215863   1.648   1.083   5.769  3.1599 -2.5605 -2.3901
 5060SOL     OW15864   5.032   4.632   4.988 -0.3717  0.3885 -0.5082
 5060SOL    HW115865   4.950   4.585   4.997 -0.0521  0.0479  0.8917
 5060SOL    HW215866   5.010   4.709   4.935 -0.9049 -1.2411 -2.7687
 5061SOL     OW15867   7.121   1.402   1.049  0.3534  0.0755 -0.0690
 5061SOL    HW115868   7.130   1.482   1.100  1.9349 -1.4021  2.1338
 5061SOL    HW215869   7.033   1.369   1.069 -0.7248  1.6696 -1.7931
 5062SOL     OW15870   4.817   3.791   2.728  0.6613  0.3721  0.0993
 5062SOL    HW115871   4.811   3.866   2.670  1.2854 -0.9230 -1.7147
 5062SOL    HW215872   4.911   3.780   2.743  0.5436  0.2630  0.8053
 5063SOL     OW15873   6.973   4.901   4.301  0.2933 -0.6008  0.3012
 5063SOL    HW115874   7.020   4.842   4.242 -0.7083  1.1616 -2.3989
 5063SOL    HW215875   7.035   4.972   4.319  0.1050 -0.4237  0.2450
 5064SOL     OW15876   6.930   6.603   3.935  0.0194  0.3285 -0.0628
 5064SOL    HW115877   6.870   6.678   3.939 -0.7936 -0.3382  2.4937
 5064SOL    HW215878   6.973   6.612   3.851  1.5727  4.9044  0.8917
 5065SOL     OW15879   0.370   2.373   7.699  0.1360 -0.1778 -0.0757
 5065SOL    HW115880   0.280   2.369   7.667  0.1336 -1.9198  0.0541
 5065SOL    HW215881   0.385   2.288   7.741  2.5944 -0.9350 -2.1907
 5066SOL     OW15882   5.058   1.504   5.486  0.8193 -0.5996  0.5885
 5066SOL    HW115883   5.078   1.594   5.460 -0.7476 -0.3802  0.0013
 5066SOL    HW215884   4.965   1.506   5.510  1.7347 -1.0685  5.1151
 5067SOL     OW15885   4.609   3.996   4.015 -0.2731 -0.0606 -0.5201
 5067SOL    HW115886   4.680   3.976   4.077 -2.0114  1.1330  1.9884
 5067SOL    HW215887   4.621   4.089   3.994  0.1050 -0.3759 -1.7890
 5068SOL     OW15888   6.717   3.495   5.634 -0.3332  0.0834 -0.0039
 5068SOL    HW115889   6.802   3.493   5.677 -0.2867 -2.9437 -0.0306
 5068SOL    HW215890   6.694   3.588   5.630  2.7712  0.9664  0.3057
 5069SOL     OW15891   2.567   4.094   6.726  0.5822 -0.0884 -0.2307
 5069SOL    HW115892   2.575   4.186   6.752  0.3635 -0.3883  0.9761
 5069SOL    HW215893   2.656   4.060   6.730  0.4287 -0.3854  1.2011
 5070SOL     OW15894   2.764   6.162   2.609  0.0305 -0.3264 -0.2110
 5070SOL    HW115895   2.838   6.221   2.619 -1.4681  1.3845  1.8795
 5070SOL    HW215896   2.768   6.105   2.685 -0.2826 -0.8444 -0.5748
 5071SOL     OW15897   3.926   1.541   5.299 -0.0353  0.2146  0.0594
 5071SOL    HW115898   3.954   1.620   5.253 -1.5235 -0.2709 -1.8107
 5071SOL    HW215899   3.831   1.549   5.306 -0.2730 -1.5475 -0.5149
 5072SOL     OW15900   1.404   6.991   7.096  0.1002 -0.3603 -0.6083
 5072SOL    HW115901   1.331   7.040   7.135 -2.9423 -3.7765 -1.4796
 5072SOL    HW215902   1.421   7.036   7.013  1.2257  2.2788  0.9315
 5073SOL     OW15903   5.856   6.900   4.424  0.2205  0.0075 -0.0732
 5073SOL    HW115904   5.785   6.848   4.386 -0.7042  1.3544 -0.2717
 5073SOL    HW215905   5.814   6.950   4.494  1.0973  0.3940  0.1916
 5074SOL     OW15906   4.163   5.647   6.095 -0.0200  0.4606  0.4605
 5074SOL    HW115907   4.165   5.729   6.145  1.5631  0.4479  0.4814
 5074SOL    HW215908   4.255   5.628   6.077 -0.4789 -0.0572 -1.6325
 5075SOL     OW15909   2.855   6.915   5.737  0.6464  0.0118  0.3788
 5075SOL    HW115910   2.785   6.979   5.721  0.3718 -0.1020  1.1056
 5075SOL    HW215911   2.827   6.836   5.691  0.7132  0.2364 -0.0478
 5076SOL     OW15912   7.406   0.489   7.070 -0.0112  0.2646  0.5743
 5076SOL    HW115913   7.393   0.442   7.152 -0.2344 -0.4674  0.1303
 5076SOL    HW215914   7.345   0.562   7.074 -0.0709  0.1910  1.0313
 5077SOL     OW15915   4.108   6.260   0.080 -0.4215 -0.6648  0.3912
 5077SOL    HW115916   4.191   6.262   0.128 -0.9399  0.0865  1.2739
 5077SOL    HW215917   4.117   6.328   0.013 -0.0743 -1.0589  0.0253
 5078SOL     OW15918   3.985   5.711   1.725  0.5151 -0.0327 -0.1175
 5078SOL    HW115919   4.033   5.758   1.792 -0.8926  0.3231  0.6846
 5078SOL    HW215920   3.996   5.618   1.747 -2.1465  0.1139  2.2969
 5079SOL     OW15921   3.990   1.556   3.889  0.0265  0.0626  0.2825
 5079SOL    HW115922   3.928   1.574   3.818  0.1254  1.0936  0.4457
 5079SOL    HW215923   4.020   1.467   3.872 -2.1752 -0.8362  0.7115
 5080SOL     OW15924   0.239   5.327   7.738 -0.0252  0.4067  0.4328
 5080SOL    HW115925   0.216   5.408   7.783 -0.1799  1.4951 -1.5063
 5080SOL    HW215926   0.168   5.266   7.760 -0.9584  1.4427  0.3547
 5081SOL     OW15927   3.228   0.317   1.521 -0.1728  0.1138  0.0082
 5081SOL    HW115928   3.200   0.330   1.431 -0.2264 -0.5803 -0.0820
 5081SOL    HW215929   3.256   0.226   1.525 -0.4343  0.0524  0.7596
 5082SOL     OW15930   2.224   1.590   5.528 -0.0969 -0.3777  0.7628
 5082SOL    HW115931   2.319   1.577   5.524  0.1331  1.3650 -2.5443
 5082SOL    HW215932   2.190   1.541   5.453 -1.7878 -0.4837  1.5604
 5083SOL     OW15933   4.876   4.918   2.543  0.1982 -0.1519 -0.8135
 5083SOL    HW115934   4.808   4.894   2.480  0.2598 -1.4532 -0.4023
 5083SOL    HW215935   4.958   4.902   2.497  0.2441 -1.1646 -0.4044
 5084SOL     OW15936   6.817   4.386   4.058 -0.0416  0.2527  0.2893
 5084SOL    HW115937   6.864   4.342   4.129 -0.5246 -1.7126 -0.5408
 5084SOL    HW215938   6.876   4.383   3.983 -0.0721  1.0676  0.2233
 5085SOL     OW15939   5.378   7.667   2.770  0.3558  0.0486  0.0290
 5085SOL    HW115940   5.307   7.605   2.755  1.5108 -1.1273 -0.8400
 5085SOL    HW215941   5.458   7.614   2.763  1.3850  1.6170 -0.6873
 5086SOL     OW15942   0.751   5.644   4.747 -0.2316 -0.1642  0.3386
 5086SOL    HW115943   0.714   5.561   4.715 -0.6175  0.2778 -0.4035
 5086SOL    HW215944   0.716   5.653   4.835  0.0499 -0.9387  0.5381
 5087SOL     OW15945   5.769   3.432   3.613 -0.1059 -0.0847 -0.5691
 5087SOL    HW115946   5.856   3.397   3.631 -0.0455 -0.0263 -0.7490
 5087SOL    HW215947   5.782   3.526   3.606 -0.0876 -0.1340 -1.1880
 5088SOL     OW15948   3.340   2.675   3.382  0.6872 -0.1143 -0.1407
 5088SOL    HW115949   3.376   2.586   3.381 -2.5138 -1.6148  1.7293
 5088SOL    HW215950   3.398   2.723   3.442  3.3129 -0.3732 -2.2721
 5089SOL     OW15951   5.753   7.108   5.209  0.0230 -0.1240 -0.4897
 5089SOL    HW115952   5.707   7.031   5.241 -0.0381 -0.1363 -0.6077
 5089SOL    HW215953   5.844   7.095   5.237 -0.0089 -0.1875 -0.4169
 5090SOL     OW15954   5.462   6.995   7.648  0.2683 -0.5880  0.2912
 5090SOL    HW115955   5.472   7.079   7.692 -1.9774 -2.2168  4.4976
 5090SOL    HW215956   5.369   6.989   7.628  0.6265 -1.5587 -1.2541
 5091SOL     OW15957   3.886   1.349   0.105 -0.7439  0.0529  0.2746
 5091SOL    HW115958   3.967   1.309   0.074 -0.3416  1.3772 -0.4631
 5091SOL    HW215959   3.904   1.374   0.195 -0.9647 -1.2831  0.7096
 5092SOL     OW15960   0.174   4.809   6.120 -0.9620 -0.2692  0.4984
 5092SOL    HW115961   0.168   4.873   6.049 -0.9119 -1.3804 -0.5362
 5092SOL    HW215962   0.267   4.806   6.143 -0.9208 -0.2058  0.3376
 5093SOL     OW15963   5.311   1.915   7.166  0.9509  0.1891  0.1969
 5093SOL    HW115964   5.347   1.833   7.132 -1.5608 -0.3449 -1.5169
 5093SOL    HW215965   5.291   1.966   7.087  0.8338  1.6874  1.1678
 5094SOL     OW15966   4.546   0.936   7.199  0.0096  0.6804 -0.9099
 5094SOL    HW115967   4.571   0.854   7.157  0.0734  0.9022 -1.3064
 5094SOL    HW215968   4.540   0.999   7.128 -0.4197  0.9324 -0.6563
 5095SOL     OW15969   1.662   0.586   5.142  0.3063  0.1771 -0.1590
 5095SOL    HW115970   1.752   0.572   5.172  0.4784  1.4456 -0.0072
 5095SOL    HW215971   1.610   0.583   5.223  0.0231 -1.7354 -0.3713
 5096SOL     OW15972   2.200   0.225   1.109 -0.1415  0.5488 -0.2506
 5096SOL    HW115973   2.115   0.206   1.147 -0.0419 -0.5136 -0.5282
 5096SOL    HW215974   2.246   0.276   1.176  0.2655 -1.7753  1.3533
 5097SOL     OW15975   3.587   7.566   3.449  0.3001  0.0724 -0.8102
 5097SOL    HW115976   3.645   7.514   3.504 -0.2137  1.6366  1.3011
 5097SOL    HW215977   3.641   7.591   3.374  2.3426  1.2586  0.9425
 5098SOL     OW15978   4.987   3.275   7.181  0.6938  0.3897 -0.6285
 5098SOL    HW115979   4.984   3.336   7.255  1.1402 -2.1771  1.7061
 5098SOL    HW215980   4.903   3.229   7.184  1.3522 -0.8600 -0.6400
 5099SOL     OW15981   0.227   6.552   3.731 -0.4002 -0.4171  0.4493
 5099SOL    HW115982   0.275   6.626   3.768 -2.1840  1.4363 -0.7279
 5099SOL    HW215983   0.295   6.493   3.699  1.1212  1.5626 -0.1667
 5100SOL     OW15984   4.824   7.286   6.485  0.1593 -0.6328 -0.0461
 5100SOL    HW115985   4.841   7.378   6.465 -0.5801  0.3712  3.3076
 5100SOL    HW215986   4.729   7.281   6.495  0.2244 -1.7158  0.1568
 5101SOL     OW15987   5.697   5.007   1.979 -0.5226 -0.2203 -0.0626
 5101SOL    HW115988   5.607   5.013   2.010 -0.5012 -0.2081 -0.0005
 5101SOL    HW215989   5.737   4.940   2.036 -1.0459 -1.7794 -1.4516
 5102SOL     OW15990   6.235   6.560   0.662 -0.3645  0.6093 -0.3785
 5102SOL    HW115991   6.188   6.520   0.588 -0.2286  0.4086 -0.3582
 5102SOL    HW215992   6.328   6.550   0.639 -0.3274  2.1368 -1.0287
 5103SOL     OW15993   4.879   6.242   2.948 -0.2613 -0.4787  0.7540
 5103SOL    HW115994   4.888   6.238   3.043 -0.6580 -0.7602  0.7817
 5103SOL    HW215995   4.953   6.192   2.915  0.0866 -0.0694  0.9040
 5104SOL     OW15996   7.351   4.151   1.999 -0.6594 -0.4558  0.0483
 5104SOL    HW115997   7.420   4.215   1.984 -1.6242  0.3724 -0.9506
 5104SOL    HW215998   7.323   4.166   2.090 -2.7633  2.5038 -0.9455
 5105SOL     OW15999   5.727   1.249   6.683  0.2298  0.0576 -0.0949
 5105SOL    HW116000   5.763   1.161   6.688  1.2540  0.5228  1.5691
 5105SOL    HW216001   5.702   1.270   6.773 -0.4133  1.2950 -0.5358
 5106SOL     OW16002   6.118   2.579   0.102 -0.4260  0.1878  0.3586
 5106SOL    HW116003   6.047   2.532   0.058 -0.7735  1.1143 -0.0890
 5106SOL    HW216004   6.150   2.641   0.037  0.7777 -0.1828  0.5726
 5107SOL     OW16005   0.643   4.295   6.977  0.2908  0.8504  0.0991
 5107SOL    HW116006   0.574   4.344   7.020 -0.3108  1.1487 -1.1503
 5107SOL    HW216007   0.664   4.346   6.898 -1.9221 -1.8338 -2.4701
 5108SOL     OW16008   2.846   3.926   3.394 -0.3464 -0.5590  0.0705
 5108SOL    HW116009   2.770   3.896   3.344 -0.2495  1.6631 -1.5466
 5108SOL    HW216010   2.921   3.910   3.337 -0.1975  1.7672 -0.4807
 5109SOL     OW16011   7.281   1.374   3.394 -0.0533 -0.1581  0.5105
 5109SOL    HW116012   7.374   1.383   3.376  0.0232 -0.7131  0.6312
 5109SOL    HW216013   7.238   1.404   3.313  0.2373 -0.3719  0.2778
 5110SOL     OW16014   6.468   0.156   6.193  0.1678 -0.6431 -0.5283
 5110SOL    HW116015   6.521   0.178   6.270 -1.6596  1.3553  0.2268
 5110SOL    HW216016   6.500   0.069   6.167  1.7640 -0.7937  1.6412
 5111SOL     OW16017   2.347   7.172   1.469 -0.5445 -0.8626  0.0858
 5111SOL    HW116018   2.390   7.236   1.526 -0.0795 -1.4752  0.4265
 5111SOL    HW216019   2.401   7.172   1.390 -1.1905 -0.0117 -0.3737
 5112SOL     OW16020   7.262   4.925   1.460 -0.7641 -0.2115 -0.8159
 5112SOL    HW116021   7.327   4.985   1.497  0.8486 -1.5728 -1.3522
 5112SOL    HW216022   7.298   4.900   1.375 -2.8631  0.3574 -1.9421
 5113SOL     OW16023   2.943   0.425   1.590 -0.0303  0.2655 -0.3633
 5113SOL    HW116024   3.017   0.381   1.549  0.9312  0.4732  1.0536
 5113SOL    HW216025   2.940   0.511   1.548 -0.3196 -0.2194 -1.3584
 5114SOL     OW16026   2.658   1.556   0.417 -0.2711 -0.1156  0.0748
 5114SOL    HW116027   2.584   1.572   0.476 -1.0577 -0.1797 -0.8606
 5114SOL    HW216028   2.653   1.627   0.353  0.5313 -0.0788  0.0472
 5115SOL     OW16029   1.673   5.204   1.105 -1.2146  0.2164 -0.4472
 5115SOL    HW116030   1.616   5.160   1.041 -0.7310 -0.8219 -0.1931
 5115SOL    HW216031   1.725   5.133   1.143 -1.2827  0.8610  0.8868
 5116SOL     OW16032   4.632   6.209   4.343  0.1592  0.3006  0.1421
 5116SOL    HW116033   4.613   6.243   4.430 -1.6134 -0.5040  0.1210
 5116SOL    HW216034   4.552   6.164   4.317  0.9177 -0.1406 -1.5955
 5117SOL     OW16035   2.950   2.347   5.609 -0.1744 -0.0933 -0.1677
 5117SOL    HW116036   2.925   2.439   5.599 -0.9639 -0.3772 -0.9685
 5117SOL    HW216037   2.891   2.299   5.550  0.4047 -1.0880  0.0262
 5118SOL     OW16038   0.704   6.032   3.398 -0.5201  0.5475 -0.1003
 5118SOL    HW116039   0.689   6.112   3.449 -0.1924 -0.5711  1.8675
 5118SOL    HW216040   0.754   6.061   3.322 -0.3349  2.2116  0.6085
 5119SOL     OW16041   1.920   3.325   6.123  0.0549  0.7082  0.1111
 5119SOL    HW116042   1.848   3.387   6.116 -0.8436 -0.2944  0.2746
 5119SOL    HW216043   1.917   3.293   6.213  0.9588  0.9367  0.2397
 5120SOL     OW16044   7.036   6.247   4.189 -0.0942  0.0451 -0.3205
 5120SOL    HW116045   7.022   6.155   4.213  2.1801 -0.3221 -0.2140
 5120SOL    HW216046   6.950   6.277   4.159 -1.6656 -1.2044  2.5316
 5121SOL     OW16047   4.024   4.553   0.427  0.1369 -0.2846 -0.2168
 5121SOL    HW116048   4.002   4.637   0.467 -2.8983 -0.2268 -1.6434
 5121SOL    HW216049   4.065   4.576   0.344  0.3596 -0.2300 -0.0906
 5122SOL     OW16050   6.767   6.277   2.038  0.2475 -0.2161  0.8162
 5122SOL    HW116051   6.728   6.249   1.955 -0.8784  0.1163  1.2144
 5122SOL    HW216052   6.784   6.196   2.085  0.2164 -0.3716  0.5627
 5123SOL     OW16053   6.386   0.640   2.066 -0.1056  0.3766  0.0600
 5123SOL    HW116054   6.405   0.664   2.157  0.0993 -0.9121  0.3690
 5123SOL    HW216055   6.359   0.548   2.070 -1.2123  0.6268 -1.0481
 5124SOL     OW16056   6.306   4.302   3.281  0.2145  0.2397  0.3556
 5124SOL    HW116057   6.337   4.324   3.193  0.3029  0.2090  0.3784
 5124SOL    HW216058   6.214   4.327   3.281 -0.2862 -1.4255 -0.3374
 5125SOL     OW16059   3.963   7.723   2.536 -0.3106 -0.0309 -0.5822
 5125SOL    HW116060   3.870   7.735   2.558 -0.2346 -0.2019 -0.1583
 5125SOL    HW216061   3.996   7.812   2.523 -0.8379 -0.0157 -2.0495
 5126SOL     OW16062   2.968   0.903   0.717  0.2325 -0.4352  0.1028
 5126SOL    HW116063   2.884   0.926   0.757  0.1144  0.4819 -0.6565
 5126SOL    HW216064   2.958   0.925   0.625  0.8331 -1.6454 -0.2764
 5127SOL     OW16065   4.846   7.317   7.344 -0.2111  0.1298  0.2053
 5127SOL    HW116066   4.886   7.347   7.263 -0.6020  0.2121  0.0430
 5127SOL    HW216067   4.758   7.289   7.319  0.2186 -1.4083  0.2973
 5128SOL     OW16068   1.530   4.664   4.434 -0.5633 -0.6264 -0.5835
 5128SOL    HW116069   1.615   4.621   4.428 -0.6674 -1.0747  0.8776
 5128SOL    HW216070   1.518   4.680   4.527 -1.6578  0.3097 -0.8669
 5129SOL     OW16071   7.053   1.788   0.853  0.0191 -0.3040  0.4427
 5129SOL    HW116072   6.970   1.754   0.887 -0.5171  0.8844  0.3810
 5129SOL    HW216073   7.106   1.805   0.930  0.1958 -1.0522  0.4845
 5130SOL     OW16074   4.470   4.218   1.223  0.3714  0.1668 -0.0674
 5130SOL    HW116075   4.418   4.248   1.299  1.3328  0.4222  0.5051
 5130SOL    HW216076   4.499   4.299   1.181 -0.8020  0.0302 -1.1792
 5131SOL     OW16077   3.472   5.986   5.330 -0.5012  0.4404 -0.0045
 5131SOL    HW116078   3.390   5.936   5.326  0.6118 -1.5891  0.7915
 5131SOL    HW216079   3.500   5.976   5.421  0.5314  1.2992 -0.2200
 5132SOL     OW16080   1.124   7.234   3.754  0.6367 -0.2670  0.2408
 5132SOL    HW116081   1.075   7.154   3.774 -1.2091  1.0397  1.1485
 5132SOL    HW216082   1.097   7.257   3.665  1.0243 -0.5302  0.0511
 5133SOL     OW16083   4.759   1.077   7.709  0.1808  0.0063 -0.0311
 5133SOL    HW116084   4.772   0.999   7.762 -1.3485  0.0314  0.4338
 5133SOL    HW216085   4.732   1.044   7.623 -1.9784 -0.0357  0.5883
 5134SOL     OW16086   5.427   6.166   5.542 -0.4713  0.5201 -0.7569
 5134SOL    HW116087   5.349   6.208   5.504 -1.3333 -1.5296 -1.3783
 5134SOL    HW216088   5.430   6.198   5.632 -0.6391  2.4334 -1.3658
 5135SOL     OW16089   2.345   4.330   3.366  0.1721  0.2047 -0.1160
 5135SOL    HW116090   2.335   4.414   3.321 -0.3864  0.7798  1.0220
 5135SOL    HW216091   2.334   4.352   3.459  0.5817 -1.0430  0.2465
 5136SOL     OW16092   1.627   1.052   3.543 -0.2871 -0.1539 -0.3321
 5136SOL    HW116093   1.603   1.035   3.452  0.3694  0.8457 -0.7116
 5136SOL    HW216094   1.569   1.123   3.571  1.2015  1.3427 -0.8314
 5137SOL     OW16095   4.511   4.801   5.778 -0.3457  0.3028 -0.1891
 5137SOL    HW116096   4.522   4.861   5.851 -1.1375  1.2107 -0.7826
 5137SOL    HW216097   4.552   4.846   5.704 -2.1043  0.7651 -0.9427
 5138SOL     OW16098   1.176   3.600   5.859  0.4103 -0.2421  0.1482
 5138SOL    HW116099   1.159   3.511   5.888 -1.3426  0.1005  0.2424
 5138SOL    HW216100   1.182   3.594   5.764 -0.8456 -0.3041  0.0621
 5139SOL     OW16101   1.193   0.274   6.434  0.3408 -0.2319 -0.2210
 5139SOL    HW116102   1.216   0.318   6.516  0.1275  2.4302 -1.4721
 5139SOL    HW216103   1.103   0.243   6.449  0.7332 -0.8811  0.9372
 5140SOL     OW16104   2.271   7.112   3.995 -0.4694  0.6124  0.2030
 5140SOL    HW116105   2.261   7.018   4.008 -1.1443  0.7502  0.7032
 5140SOL    HW216106   2.359   7.131   4.028 -1.0033  0.4451  1.7899
 5141SOL     OW16107   5.118   3.689   4.072 -0.2230  0.4510 -0.4261
 5141SOL    HW116108   5.140   3.776   4.106 -1.9298  0.5495  0.5375
 5141SOL    HW216109   5.093   3.704   3.981 -1.0123  1.0709 -0.1168
 5142SOL     OW16110   1.611   1.088   3.194  0.0659  0.2617 -0.0376
 5142SOL    HW116111   1.608   0.994   3.180  1.9516 -0.5412  3.5783
 5142SOL    HW216112   1.704   1.108   3.199 -0.3089  2.1208  0.2428
 5143SOL     OW16113   7.243   7.477   1.548 -0.6333 -0.3536 -0.3655
 5143SOL    HW116114   7.326   7.513   1.519 -0.1516 -0.5492  0.7212
 5143SOL    HW216115   7.189   7.474   1.469  0.4441 -0.3890 -1.1178
 5144SOL     OW16116   7.498   5.894   7.610 -0.4716  0.7608 -0.0596
 5144SOL    HW116117   7.428   5.844   7.652  2.4149 -1.3956  2.7915
 5144SOL    HW216118   7.519   5.964   7.672  0.0173  1.2511 -0.7577
 5145SOL     OW16119   7.025   0.642   5.433  0.0179  0.0555 -0.0984
 5145SOL    HW116120   7.070   0.722   5.459  0.9288  0.0513 -1.5146
 5145SOL    HW216121   6.934   0.657   5.455  0.2276  1.3464 -0.0343
 5146SOL     OW16122   3.202   7.348   3.737  0.0744  0.0129 -0.2597
 5146SOL    HW116123   3.273   7.368   3.676  2.3721 -0.4316  2.0876
 5146SOL    HW216124   3.237   7.277   3.791 -2.7498 -1.2215  0.1072
 5147SOL     OW16125   4.064   0.288   7.643  0.1394 -0.2501 -0.5219
 5147SOL    HW116126   4.080   0.345   7.718 -1.1658 -0.0103 -0.4131
 5147SOL    HW216127   4.150   0.280   7.601  0.6749  0.4568  0.3928
 5148SOL     OW16128   1.798   3.757   3.494 -0.1791 -0.2559 -0.2746
 5148SOL    HW116129   1.872   3.703   3.465 -0.4976 -0.9512  0.1723
 5148SOL    HW216130   1.779   3.813   3.420  1.8148  1.0686  0.1437
 5149SOL     OW16131   7.612   6.333   5.764  0.9569 -0.2683  0.1218
 5149SOL    HW116132   7.586   6.262   5.705 -2.5307  1.6152 -0.8318
 5149SOL    HW216133   7.571   6.312   5.847 -1.2450  1.1860 -0.5315
 5150SOL     OW16134   1.315   6.846   2.084  0.1258 -0.1023 -0.0025
 5150SOL    HW116135   1.394   6.843   2.028  0.1535 -0.2274  0.0439
 5150SOL    HW216136   1.349   6.846   2.173  0.0682 -0.2773  0.0187
 5151SOL     OW16137   5.183   6.230   1.299  0.4633  0.3112 -0.2833
 5151SOL    HW116138   5.141   6.315   1.281 -0.5767 -0.3309 -0.9934
 5151SOL    HW216139   5.246   6.219   1.228 -0.9503 -0.4826 -1.4607
 5152SOL     OW16140   4.819   6.240   0.914  0.2318  0.4411  0.2338
 5152SOL    HW116141   4.890   6.205   0.860 -0.1837 -1.0387  0.5866
 5152SOL    HW216142   4.787   6.164   0.963  2.4760  2.0660  4.7680
 5153SOL     OW16143   6.476   1.263   3.511 -0.2964 -0.2972  0.1491
 5153SOL    HW116144   6.452   1.329   3.446  0.5407 -0.1120  0.0202
 5153SOL    HW216145   6.565   1.238   3.488  0.5657  0.7855  2.0316
 5154SOL     OW16146   3.375   6.011   5.753  0.5631  0.0890 -0.1961
 5154SOL    HW116147   3.392   6.100   5.783  2.4547 -0.1564 -0.3699
 5154SOL    HW216148   3.433   6.000   5.678  0.2310 -1.2336 -0.2829
 5155SOL     OW16149   2.024   7.350   3.200  0.1221 -0.2723 -0.5107
 5155SOL    HW116150   2.041   7.350   3.106 -0.2273 -0.9854 -0.5876
 5155SOL    HW216151   2.003   7.258   3.220  2.1777 -0.5568  0.6413
 5156SOL     OW16152   1.375   2.583   5.406 -0.0057 -0.1736  0.6561
 5156SOL    HW116153   1.367   2.672   5.371 -0.0837  0.0786  1.2928
 5156SOL    HW216154   1.323   2.585   5.487 -0.1407 -0.8443  0.5891
 5157SOL     OW16155   2.231   7.037   1.703 -0.2621  0.1709 -0.0384
 5157SOL    HW116156   2.171   7.076   1.766 -1.7087 -2.0804  0.0856
 5157SOL    HW216157   2.175   6.987   1.644  1.2098  0.8740 -2.1372
 5158SOL     OW16158   1.045   1.700   0.439 -0.5851 -0.2359 -0.1190
 5158SOL    HW116159   1.117   1.763   0.443 -0.1358 -0.7243 -0.3366
 5158SOL    HW216160   0.972   1.749   0.400 -1.3964  1.1806  2.9123
 5159SOL     OW16161   5.980   7.223   6.652 -0.2600  0.4504 -0.1192
 5159SOL    HW116162   6.043   7.286   6.687  0.7342 -0.6223  0.0522
 5159SOL    HW216163   5.999   7.220   6.558  0.6817 -0.6583  0.0889
 5160SOL     OW16164   0.272   0.323   6.642 -0.4097  0.5657  0.3054
 5160SOL    HW116165   0.183   0.348   6.615 -0.9082 -0.8223  0.5540
 5160SOL    HW216166   0.263   0.302   6.735 -0.0782 -0.6626  0.0699
 5161SOL     OW16167   7.078   3.777   2.306  0.6662  0.0444 -0.0041
 5161SOL    HW116168   7.047   3.692   2.277  0.3549  0.5164 -1.1073
 5161SOL    HW216169   7.121   3.815   2.229  1.0751  0.7624  0.5543
 5162SOL     OW16170   6.933   1.516   7.279 -0.0531  0.3398 -0.8810
 5162SOL    HW116171   7.016   1.546   7.315 -0.5074  0.5577  0.0128
 5162SOL    HW216172   6.946   1.516   7.184  1.1786 -0.2875 -0.7158
 5163SOL     OW16173   4.714   2.960   5.887  0.1367  0.0756  0.6036
 5163SOL    HW116174   4.705   3.041   5.837 -1.8456  0.1598  1.0157
 5163SOL    HW216175   4.804   2.962   5.920 -0.0500  2.4335  1.1462
 5164SOL     OW16176   7.351   0.042   2.125  0.5945  0.5869  0.6678
 5164SOL    HW116177   7.318   0.068   2.039  0.4558  0.1017  0.5711
 5164SOL    HW216178   7.445   0.054   2.119  0.5366  1.0349  0.6162
 5165SOL     OW16179   2.122   6.155   3.798 -0.1411  0.3095 -0.4551
 5165SOL    HW116180   2.124   6.060   3.788  1.2999  0.3351 -0.5544
 5165SOL    HW216181   2.183   6.188   3.733 -0.2126  1.2753 -0.0511
 5166SOL     OW16182   3.066   6.081   0.718 -0.4235 -0.2392  0.0228
 5166SOL    HW116183   3.130   6.025   0.761  1.9441  2.5221  0.3276
 5166SOL    HW216184   3.074   6.166   0.761 -2.6534  0.8794 -1.5377
 5167SOL     OW16185   1.011   5.004   1.559 -0.0001  0.5624 -0.3361
 5167SOL    HW116186   0.946   4.936   1.577  2.0538 -1.4698 -0.0681
 5167SOL    HW216187   1.028   4.997   1.465  1.0998 -0.2183 -0.1070
 5168SOL     OW16188   5.460   6.642   1.417 -0.3981 -0.1629  0.6823
 5168SOL    HW116189   5.440   6.734   1.433  1.7569  0.3626  0.7136
 5168SOL    HW216190   5.479   6.637   1.324  0.1841 -0.4142  0.8085
 5169SOL     OW16191   0.694   3.141   3.721  0.0050 -0.1556 -0.8215
 5169SOL    HW116192   0.732   3.196   3.790  1.8400 -1.0295 -1.0639
 5169SOL    HW216193   0.759   3.144   3.650  0.0932 -2.4568 -0.9055
 5170SOL     OW16194   3.491   3.570   1.569 -0.7037  0.6552  0.2080
 5170SOL    HW116195   3.482   3.659   1.603 -0.7128  0.8297 -0.2465
 5170SOL    HW216196   3.547   3.579   1.492 -2.6502  0.6449 -1.3081
 5171SOL     OW16197   0.778   3.402   3.752 -0.0660  0.0419  0.5769
 5171SOL    HW116198   0.726   3.427   3.828  2.6681  1.6189  2.0634
 5171SOL    HW216199   0.793   3.484   3.705  1.3015 -0.3257  0.3417
 5172SOL     OW16200   1.732   5.414   5.815 -0.8496 -0.3047 -0.1139
 5172SOL    HW116201   1.673   5.396   5.888 -1.4087  1.2552 -0.1526
 5172SOL    HW216202   1.694   5.490   5.771  2.0598  1.9790  0.9300
 5173SOL     OW16203   2.015   0.988   1.798 -0.1332  0.0439  0.4236
 5173SOL    HW116204   1.928   1.028   1.792 -0.5694 -0.8952  0.1988
 5173SOL    HW216205   2.073   1.052   1.757 -0.4647  1.3593  1.9276
 5174SOL     OW16206   0.296   1.872   6.864 -0.1940  0.2459 -0.0948
 5174SOL    HW116207   0.339   1.787   6.857 -1.9181 -0.7105  0.4638
 5174SOL    HW216208   0.338   1.926   6.797  0.5410 -1.2157 -0.8482
 5175SOL     OW16209   4.552   4.440   4.535  0.8122 -0.0713  0.7715
 5175SOL    HW116210   4.617   4.438   4.465  0.5428 -0.4330  0.5242
 5175SOL    HW216211   4.601   4.420   4.614  1.7531  3.4692  1.2529
 5176SOL     OW16212   3.525   5.579   7.497  0.8584 -0.2812  0.0433
 5176SOL    HW116213   3.455   5.641   7.476 -0.1406 -1.9533 -1.8371
 5176SOL    HW216214   3.605   5.631   7.490 -0.0078  1.0891 -0.2385
 5177SOL     OW16215   6.566   3.371   2.050  0.0709  0.1663 -0.4864
 5177SOL    HW116216   6.561   3.443   1.987  1.2366  0.6002 -0.1225
 5177SOL    HW216217   6.616   3.407   2.123 -3.4138  0.5445  1.9506
 5178SOL     OW16218   2.917   7.403   3.115  0.0638 -0.5778  0.3911
 5178SOL    HW116219   2.960   7.328   3.074  1.1810 -0.6869  1.7145
 5178SOL    HW216220   2.824   7.382   3.109  0.1712 -0.7334 -1.7608
 5179SOL     OW16221   0.466   0.378   4.244 -0.0710 -0.1408  0.2685
 5179SOL    HW116222   0.380   0.389   4.285  0.1845  2.2123  0.3196
 5179SOL    HW216223   0.452   0.401   4.152  0.5647  0.7219  0.3715
 5180SOL     OW16224   4.250   0.946   4.351 -0.0422 -0.4141  0.3545
 5180SOL    HW116225   4.186   0.898   4.298  0.1614  1.5823 -1.8554
 5180SOL    HW216226   4.201   1.021   4.385  0.4717 -0.3561  0.9900
 5181SOL     OW16227   1.206   5.190   3.219 -0.2271 -0.1358  0.5917
 5181SOL    HW116228   1.249   5.151   3.296 -0.6324 -1.2277  0.2908
 5181SOL    HW216229   1.273   5.245   3.179 -0.1980  0.9611  2.0772
 5182SOL     OW16230   5.201   0.238   1.690  0.1875 -0.0720 -0.3042
 5182SOL    HW116231   5.197   0.145   1.713 -1.5186  0.5809  2.5275
 5182SOL    HW216232   5.122   0.253   1.637  0.3630 -0.1762 -0.5993
 5183SOL     OW16233   4.595   5.833   0.685 -0.2438  0.9722 -0.0260
 5183SOL    HW116234   4.657   5.888   0.638 -0.0478  0.2492 -0.6278
 5183SOL    HW216235   4.509   5.865   0.657 -0.2026 -1.1710 -3.0945
 5184SOL     OW16236   3.555   6.339   3.735  0.4009  0.2253  0.5671
 5184SOL    HW116237   3.532   6.383   3.654  1.2802 -0.7992 -0.2741
 5184SOL    HW216238   3.472   6.330   3.782  0.2297  2.9929  0.9355
 5185SOL     OW16239   2.986   5.099   4.806  0.2161 -0.2065 -0.8789
 5185SOL    HW116240   2.980   5.191   4.832  0.0635 -0.2594 -0.7206
 5185SOL    HW216241   2.895   5.073   4.792  0.0653 -0.8832  1.0356
 5186SOL     OW16242   6.096   0.844   0.485  0.3241 -0.0417  0.0558
 5186SOL    HW116243   6.059   0.917   0.535 -3.2965 -1.0700 -0.8477
 5186SOL    HW216244   6.099   0.771   0.547  0.9751  0.0486  0.1383
 5187SOL     OW16245   1.056   3.780   2.554 -0.0784 -0.2646 -0.9124
 5187SOL    HW116246   1.079   3.688   2.541 -0.9491 -0.8627  1.3398
 5187SOL    HW216247   1.007   3.781   2.636  0.1780  2.2666 -0.7224
 5188SOL     OW16248   3.710   5.464   2.662 -0.6670 -0.3026 -0.5055
 5188SOL    HW116249   3.764   5.447   2.584 -0.2009  2.1884 -0.8169
 5188SOL    HW216250   3.764   5.433   2.735  0.5537  0.7168 -0.9333
 5189SOL     OW16251   6.707   6.828   5.469  1.0374 -0.5521 -0.0578
 5189SOL    HW116252   6.767   6.754   5.460 -0.1760 -1.4275 -1.3844
 5189SOL    HW216253   6.756   6.902   5.434  1.6305 -1.0848 -0.3852
 5190SOL     OW16254   0.542   7.752   5.226 -0.2195 -0.4413  0.1043
 5190SOL    HW116255   0.612   7.773   5.164 -0.7090 -1.4193 -0.8113
 5190SOL    HW216256   0.514   7.664   5.202 -1.7592 -0.0805  0.4516
 5191SOL     OW16257   3.176   2.264   1.505 -0.3848 -0.5769  0.1298
 5191SOL    HW116258   3.123   2.282   1.582 -0.5797 -0.4192 -0.0406
 5191SOL    HW216259   3.121   2.290   1.431  0.9785  2.3748  0.0213
 5192SOL     OW16260   0.913   3.451   3.308  0.6680 -0.1535 -0.3403
 5192SOL    HW116261   0.867   3.530   3.336 -0.9402 -1.3969  0.7050
 5192SOL    HW216262   0.973   3.482   3.240 -0.8442  1.7741 -0.9250
 5193SOL     OW16263   0.705   2.995   3.344 -0.2676 -0.1329 -0.7970
 5193SOL    HW116264   0.717   2.976   3.251 -0.5308  0.4667 -0.9553
 5193SOL    HW216265   0.789   3.033   3.371 -0.0718 -0.6198 -0.7026
 5194SOL     OW16266   7.599   2.166   3.778  0.3438  0.7086 -0.1484
 5194SOL    HW116267   7.598   2.078   3.741 -2.5815  0.8383 -0.5893
 5194SOL    HW216268   7.630   2.221   3.706  3.6689  0.0067  0.5711
 5195SOL     OW16269   0.991   7.626   3.431  0.2820  0.0452 -0.1976
 5195SOL    HW116270   1.073   7.601   3.389 -0.0878  0.3168 -1.1061
 5195SOL    HW216271   0.962   7.703   3.382  0.6493  1.3842  1.5742
 5196SOL     OW16272   4.976   7.537   3.541 -0.3214  0.4675 -0.0416
 5196SOL    HW116273   5.009   7.534   3.451  0.7144  0.7025  0.3150
 5196SOL    HW216274   5.050   7.570   3.592 -1.2088  1.2996  0.7508
 5197SOL     OW16275   4.661   6.599   7.663  0.1744 -0.4285 -0.3950
 5197SOL    HW116276   4.734   6.643   7.709  0.2383 -0.2573 -0.6543
 5197SOL    HW216277   4.672   6.625   7.572 -0.6941  0.2651 -0.3113
 5198SOL     OW16278   0.036   3.698   3.495 -0.3720 -0.2981 -0.4078
 5198SOL    HW116279   0.019   3.633   3.563 -2.1503  0.2079 -0.2996
 5198SOL    HW216280   0.006   3.781   3.534  0.3210  0.3145 -1.1382
 5199SOL     OW16281   2.683   7.244   3.367  0.6578  0.0945 -0.7395
 5199SOL    HW116282   2.594   7.237   3.401  0.5941  1.4169 -0.6140
 5199SOL    HW216283   2.735   7.274   3.441  0.7830  1.5675 -1.4012
 5200SOL     OW16284   1.537   3.606   0.236  0.3673  0.1597  0.2693
 5200SOL    HW116285   1.631   3.620   0.252  0.5760 -0.3554 -0.4577
 5200SOL    HW216286   1.528   3.512   0.226 -0.0583  0.2947 -0.7172
 5201SOL     OW16287   6.803   2.475   4.019 -0.0914 -0.0883  0.0869
 5201SOL    HW116288   6.885   2.509   3.984 -0.2731  2.1742  1.6982
 5201SOL    HW216289   6.830   2.403   4.077  0.7692  0.6962  0.6829
 5202SOL     OW16290   2.181   7.304   4.605  0.0728  0.2621 -0.2471
 5202SOL    HW116291   2.146   7.348   4.527 -2.3505 -1.2038 -0.0852
 5202SOL    HW216292   2.274   7.290   4.584 -0.4610  0.0290 -2.8696
 5203SOL     OW16293   4.131   2.763   2.964 -0.3236  0.0875 -0.2186
 5203SOL    HW116294   4.063   2.811   3.012  1.4335  1.0435  1.4454
 5203SOL    HW216295   4.168   2.704   3.029  0.8257 -0.0026 -0.9431
 5204SOL     OW16296   2.973   6.458   4.137 -0.1471  0.0948 -0.2416
 5204SOL    HW116297   2.991   6.513   4.061  1.6503  0.4424  0.3830
 5204SOL    HW216298   3.051   6.466   4.192 -1.8381  0.8544  2.2561
 5205SOL     OW16299   5.110   4.188   5.855  0.3062 -0.2359 -0.2966
 5205SOL    HW116300   5.023   4.189   5.815  0.1531  0.1897  0.0262
 5205SOL    HW216301   5.094   4.217   5.945  0.8263  0.1909 -0.3374
 5206SOL     OW16302   4.933   3.797   5.875  0.0233 -0.2274  0.2205
 5206SOL    HW116303   4.863   3.827   5.933  0.5252 -1.1087  1.3156
 5206SOL    HW216304   4.906   3.710   5.847  0.1219 -0.0905 -0.2989
 5207SOL     OW16305   6.095   7.669   4.433 -0.0383  0.7569 -0.4888
 5207SOL    HW116306   6.056   7.655   4.519  1.2508  1.0458  0.1776
 5207SOL    HW216307   6.120   7.762   4.434  2.5309  0.1454 -0.0185
 5208SOL     OW16308   0.805   2.465   0.288  0.0670  0.8219  0.1850
 5208SOL    HW116309   0.752   2.472   0.367 -0.5962  1.0709 -0.2760
 5208SOL    HW216310   0.830   2.555   0.267  1.0783  0.6675  0.6618
 5209SOL     OW16311   5.110   2.546   1.476  0.3775  0.0258  0.0767
 5209SOL    HW116312   5.073   2.518   1.392 -1.0023  0.9241  0.3556
 5209SOL    HW216313   5.093   2.472   1.534 -1.4264  0.5688  0.3011
 5210SOL     OW16314   3.360   7.688   2.321  0.1332  0.3981 -1.0825
 5210SOL    HW116315   3.285   7.628   2.319  0.9703 -0.6872 -2.2837
 5210SOL    HW216316   3.387   7.692   2.412 -0.0513 -0.9560 -0.9572
 5211SOL     OW16317   1.437   3.739   0.604  0.7237  0.6432  0.1912
 5211SOL    HW116318   1.477   3.770   0.685 -1.3424  1.3952  0.9851
 5211SOL    HW216319   1.460   3.805   0.539  0.8628  1.0141  0.6103
 5212SOL     OW16320   5.154   5.056   4.888  0.3071  0.2002  0.1847
 5212SOL    HW116321   5.241   5.026   4.863  0.4428  0.9821 -0.3240
 5212SOL    HW216322   5.145   5.141   4.845 -0.9866 -0.1944 -0.3657
 5213SOL     OW16323   2.681   0.460   6.858 -0.1830 -0.2039 -0.2200
 5213SOL    HW116324   2.656   0.368   6.861  1.5392 -0.7097 -0.1807
 5213SOL    HW216325   2.754   0.467   6.920  1.7725  0.4697 -2.4369
 5214SOL     OW16326   0.655   0.194   6.930  0.2106 -0.2070 -0.4626
 5214SOL    HW116327   0.610   0.269   6.891  0.8341  0.8710  0.8063
 5214SOL    HW216328   0.748   0.214   6.921  0.3835 -0.7564  0.0267
 5215SOL     OW16329   2.694   1.300   0.841  0.0081 -0.5755 -0.0982
 5215SOL    HW116330   2.598   1.306   0.842  0.0685  1.5320 -1.1369
 5215SOL    HW216331   2.723   1.389   0.820  2.2816 -0.6849  2.1245
 5216SOL     OW16332   2.398   4.445   1.423  0.5023  0.4068 -0.1113
 5216SOL    HW116333   2.337   4.405   1.484  0.0245  0.0402 -0.8159
 5216SOL    HW216334   2.450   4.505   1.476  0.3624 -0.1997  0.7174
 5217SOL     OW16335   1.069   4.399   3.197  0.1748  0.2841  0.4015
 5217SOL    HW116336   0.983   4.432   3.170 -0.5569 -2.0637 -0.3935
 5217SOL    HW216337   1.121   4.397   3.117  0.1303 -0.6334  0.3855
 5218SOL     OW16338   7.162   1.888   4.525  0.4251 -0.5399  0.2227
 5218SOL    HW116339   7.253   1.876   4.500  1.0341 -0.2611  2.1512
 5218SOL    HW216340   7.114   1.887   4.442  2.2445  0.0265 -0.8958
 5219SOL     OW16341   7.775   6.120   2.940 -0.2685  0.0029  0.2355
 5219SOL    HW116342   7.818   6.143   2.857 -1.1764  2.4037  0.3580
 5219SOL    HW216343   7.683   6.139   2.925 -0.9048 -2.2140  0.9582
 5220SOL     OW16344   5.499   4.613   4.848 -0.7391 -0.0934 -0.7048
 5220SOL    HW116345   5.527   4.525   4.822  0.1226  0.0054 -0.1568
 5220SOL    HW216346   5.471   4.604   4.939  0.7989  0.4772 -0.1484
 5221SOL     OW16347   1.606   2.704   5.081  0.0979 -0.1967  0.3295
 5221SOL    HW116348   1.654   2.705   5.163 -1.2743 -1.8170  1.2154
 5221SOL    HW216349   1.571   2.615   5.074 -0.9552  0.2961 -1.3297
 5222SOL     OW16350   4.366   3.626   4.107 -0.1505 -0.6256 -0.7085
 5222SOL    HW116351   4.309   3.594   4.177  1.6680 -0.4598  0.9319
 5222SOL    HW216352   4.416   3.549   4.080 -0.1797 -0.4826 -1.1847
 5223SOL     OW16353   7.413   4.662   3.084  0.0661 -0.0524  0.2516
 5223SOL    HW116354   7.436   4.751   3.058  1.2048 -0.7461 -1.3170
 5223SOL    HW216355   7.329   4.646   3.041 -1.0182  0.8095  1.9518
 5224SOL     OW16356   2.515   2.991   3.256 -0.1918  0.0996  0.0119
 5224SOL    HW116357   2.484   2.924   3.317  0.0640 -1.1584 -1.1953
 5224SOL    HW216358   2.439   3.008   3.200 -0.0111  0.2184 -0.1974
 5225SOL     OW16359   2.214   6.769   2.117  0.5513  0.5217  0.2728
 5225SOL    HW116360   2.286   6.706   2.117 -0.3212 -0.4951  0.3985
 5225SOL    HW216361   2.256   6.852   2.141  1.8477  0.1594 -0.6352
 5226SOL     OW16362   3.199   0.278   2.067 -0.1101  0.6995  0.0873
 5226SOL    HW116363   3.199   0.355   2.123 -0.3946  0.3843  0.5324
 5226SOL    HW216364   3.220   0.311   1.980 -0.4992  1.3147  0.2198
 5227SOL     OW16365   2.243   0.896   5.495  0.4588 -0.5429  0.9020
 5227SOL    HW116366   2.259   0.842   5.417 -0.2050 -0.3045  0.5944
 5227SOL    HW216367   2.157   0.867   5.526  0.0554  0.3883  0.6862
 5228SOL     OW16368   4.596   4.659   3.663 -0.0263  0.5155 -0.4457
 5228SOL    HW116369   4.664   4.640   3.727 -0.6435 -0.9702 -0.1929
 5228SOL    HW216370   4.566   4.747   3.685  1.0102  0.7307  0.1537
 5229SOL     OW16371   0.255   5.139   4.215  0.4644 -0.0602 -0.1515
 5229SOL    HW116372   0.219   5.208   4.269 -0.8289 -0.8882  0.0755
 5229SOL    HW216373   0.294   5.185   4.141  0.9922  0.9932  0.7425
 5230SOL     OW16374   6.388   6.033   7.345  0.2939 -0.0810  0.0070
 5230SOL    HW116375   6.323   6.009   7.279  1.2896 -0.1664 -0.9644
 5230SOL    HW216376   6.450   6.089   7.299  0.1678  1.1652  1.2749
 5231SOL     OW16377   0.545   0.174   7.452  0.0388  0.3753  0.0972
 5231SOL    HW116378   0.531   0.104   7.387 -1.2979  0.6008  0.1199
 5231SOL    HW216379   0.576   0.248   7.400  2.2145 -0.4191  0.1644
 5232SOL     OW16380   2.894   5.862   3.787 -0.6440  0.1950  0.1888
 5232SOL    HW116381   2.920   5.937   3.734 -2.2052 -0.1071 -1.1002
 5232SOL    HW216382   2.828   5.897   3.847  0.2660  0.2916  1.1522
 5233SOL     OW16383   7.402   1.930   4.308 -0.3338  0.3438  0.1993
 5233SOL    HW116384   7.494   1.955   4.312 -0.2754  0.4734 -1.2303
 5233SOL    HW216385   7.354   2.013   4.318 -0.3016  0.2815  0.9025
 5234SOL     OW16386   0.464   6.708   0.437 -0.7698  0.1429 -0.3863
 5234SOL    HW116387   0.380   6.719   0.482 -0.2032 -0.2714  0.7801
 5234SOL    HW216388   0.441   6.660   0.357 -1.3386 -2.0623  1.0295
 5235SOL     OW16389   0.791   3.535   7.087 -0.1533  0.1988 -0.8567
 5235SOL    HW116390   0.768   3.580   7.005 -0.7984  0.5221 -0.5087
 5235SOL    HW216391   0.722   3.469   7.097 -2.5008  2.7411  1.4393
 5236SOL     OW16392   0.417   1.776   6.201 -0.1526 -0.1834  0.0631
 5236SOL    HW116393   0.368   1.697   6.179 -0.9203 -0.0654  1.2310
 5236SOL    HW216394   0.393   1.794   6.292  1.5946  0.2454  0.4644
 5237SOL     OW16395   3.311   5.163   5.330  0.3565  0.3517 -0.2418
 5237SOL    HW116396   3.245   5.215   5.285  0.0695 -0.2575 -0.5385
 5237SOL    HW216397   3.290   5.172   5.423  2.3648  3.5632  0.0375
 5238SOL     OW16398   5.997   2.001   5.408 -0.0750  0.1446 -0.6667
 5238SOL    HW116399   5.908   2.021   5.439 -0.5046 -1.0732 -1.0611
 5238SOL    HW216400   6.054   2.025   5.481 -0.5791  2.2293 -0.8955
 5239SOL     OW16401   5.972   3.450   5.889  0.4644 -0.1859 -0.5541
 5239SOL    HW116402   6.046   3.463   5.829 -0.1603  0.2270 -1.2463
 5239SOL    HW216403   5.971   3.530   5.942 -0.8040  0.8127 -2.0106
 5240SOL     OW16404   2.291   0.227   2.903 -0.2483 -0.1458  0.1417
 5240SOL    HW116405   2.200   0.207   2.877 -0.3586  2.0065 -1.3680
 5240SOL    HW216406   2.282   0.280   2.982 -0.4086  0.9049 -0.5540
 5241SOL     OW16407   1.658   2.489   5.631 -0.4377  0.0604 -0.0441
 5241SOL    HW116408   1.747   2.497   5.596 -0.6274 -0.5918 -0.7118
 5241SOL    HW216409   1.609   2.444   5.562 -0.6827 -1.8684  1.3010
 5242SOL     OW16410   0.783   0.079   6.011 -0.2502 -0.0700 -1.4691
 5242SOL    HW116411   0.831   0.093   6.093  1.4169 -3.0149 -1.8202
 5242SOL    HW216412   0.710   0.141   6.015 -0.6586 -0.5650  2.5590
 5243SOL     OW16413   4.148   3.183   4.041 -0.3842 -0.0349 -0.3425
 5243SOL    HW116414   4.228   3.161   4.089  1.3052  1.6574 -2.1835
 5243SOL    HW216415   4.132   3.275   4.062 -4.0339 -1.1685  2.8026
 5244SOL     OW16416   2.219   1.346   4.151  0.0692  0.0057  0.0768
 5244SOL    HW116417   2.241   1.407   4.221  1.9290 -1.1794  0.6095
 5244SOL    HW216418   2.124   1.346   4.147 -0.0761  0.2432  2.4686
 5245SOL     OW16419   6.067   4.973   6.466  0.1716 -0.3093  0.6015
 5245SOL    HW116420   6.056   4.909   6.536  0.3941 -1.4682 -0.3862
 5245SOL    HW216421   6.158   4.963   6.438  1.3525  2.8931  2.6934
 5246SOL     OW16422   3.785   3.679   5.060 -0.6361 -0.4283  0.2851
 5246SOL    HW116423   3.770   3.769   5.087 -0.7522 -0.3631  0.0073
 5246SOL    HW216424   3.782   3.682   4.964  1.3834 -0.3563  0.1802
 5247SOL     OW16425   0.116   1.540   0.486 -0.3316  0.9723 -0.6971
 5247SOL    HW116426   0.174   1.614   0.469 -0.7212  1.7529  1.0681
 5247SOL    HW216427   0.151   1.500   0.565 -1.4748  0.7092 -0.3056
 5248SOL     OW16428   2.161   7.350   7.730 -0.1693  0.0167  0.1053
 5248SOL    HW116429   2.110   7.425   7.700 -2.0417 -1.3858 -0.4005
 5248SOL    HW216430   2.191   7.375   7.817  1.3576  2.2851 -0.9901
 5249SOL     OW16431   3.722   0.031   5.131  0.3749  0.0351  0.0425
 5249SOL    HW116432   3.645   0.004   5.181 -1.1424  1.2675 -1.5253
 5249SOL    HW216433   3.744  -0.044   5.077  0.2789 -0.3037  0.4661
 5250SOL     OW16434   4.795   0.861   0.093  0.5831 -1.0876 -0.0780
 5250SOL    HW116435   4.785   0.768   0.072 -0.5138 -0.9546 -0.2400
 5250SOL    HW216436   4.721   0.881   0.151  0.8251 -0.3240 -0.0108
 5251SOL     OW16437   2.282   0.059   2.546  0.3512  0.3806  0.1756
 5251SOL    HW116438   2.306   0.135   2.599  2.0379 -0.4301  0.6536
 5251SOL    HW216439   2.218   0.093   2.483 -0.3505  1.7643  1.5537
 5252SOL     OW16440   2.628   4.029   4.457  0.1365  0.5719  0.1785
 5252SOL    HW116441   2.670   4.074   4.530  1.0486 -0.2884  0.2183
 5252SOL    HW216442   2.558   3.977   4.497  1.4071 -0.8513  0.6527
 5253SOL     OW16443   5.847   3.436   0.631  0.1796  0.1332 -0.7554
 5253SOL    HW116444   5.794   3.506   0.593 -0.3112  0.1702 -0.0144
 5253SOL    HW216445   5.792   3.399   0.700  1.8008  1.3732  1.3177
 5254SOL     OW16446   7.684   5.378   1.823  0.6442 -1.2835  0.3019
 5254SOL    HW116447   7.620   5.341   1.883  2.0909 -3.3716  0.6819
 5254SOL    HW216448   7.742   5.430   1.879  0.5468 -1.1681  0.2970
 5255SOL     OW16449   1.011   3.624   6.825  0.0827 -0.0386 -0.2265
 5255SOL    HW116450   0.942   3.689   6.840 -0.2353 -0.0085 -1.7053
 5255SOL    HW216451   1.092   3.672   6.839 -0.1716  0.1452  0.6871
 5256SOL     OW16452   0.650   5.163   1.177  0.3115 -0.0802 -0.2783
 5256SOL    HW116453   0.646   5.192   1.268  0.6197  3.1202 -1.1845
 5256SOL    HW216454   0.573   5.107   1.168  0.9164 -1.4956  2.1981
 5257SOL     OW16455   4.474   6.420   6.606  0.3578  0.2159  0.2036
 5257SOL    HW116456   4.448   6.378   6.688  0.1524  1.4574  0.8055
 5257SOL    HW216457   4.567   6.440   6.618  0.7867 -1.1926 -0.5980
 5258SOL     OW16458   6.084   4.526   2.325 -0.0985 -0.3127  0.6060
 5258SOL    HW116459   6.052   4.616   2.321 -1.6677 -0.7322  2.3079
 5258SOL    HW216460   6.167   4.528   2.277 -0.0324  2.0401  0.6941
 5259SOL     OW16461   4.377   3.895   7.349 -0.0126 -0.1564 -0.2179
 5259SOL    HW116462   4.341   3.854   7.428 -0.1743 -0.9305 -0.6835
 5259SOL    HW216463   4.304   3.948   7.315  0.5168  1.4212  0.9597
 5260SOL     OW16464   1.298   1.587   0.033  0.5585 -0.3970  0.2892
 5260SOL    HW116465   1.329   1.665   0.079  1.6894 -0.1249 -0.8571
 5260SOL    HW216466   1.362   1.575  -0.038 -0.9753 -0.9372 -1.0477
 5261SOL     OW16467   2.913   5.321   0.532  0.0315 -0.0759  0.1557
 5261SOL    HW116468   2.918   5.304   0.626 -1.1938 -0.8740  0.1097
 5261SOL    HW216469   2.890   5.236   0.494  0.6169  0.2163 -0.8823
 5262SOL     OW16470   0.509   1.525   3.101 -0.0426 -0.2978  0.4846
 5262SOL    HW116471   0.588   1.478   3.125  0.3911 -0.1079 -0.5076
 5262SOL    HW216472   0.464   1.542   3.184  1.5144  0.6113  1.1879
 5263SOL     OW16473   4.231   0.382   3.043  0.2548  0.0308  0.5556
 5263SOL    HW116474   4.181   0.302   3.030 -0.4596  0.8258 -2.2017
 5263SOL    HW216475   4.315   0.366   2.999  0.2564  0.6585  0.3191
 5264SOL     OW16476   1.336   3.230   0.764  0.1946  0.1946  0.4574
 5264SOL    HW116477   1.420   3.256   0.802  0.0218  1.1851  0.1858
 5264SOL    HW216478   1.275   3.299   0.791 -0.4965 -0.4110  0.4863
 5265SOL     OW16479   0.649   6.916   0.770 -0.5201 -0.3045  0.2114
 5265SOL    HW116480   0.617   6.945   0.685  0.9054 -0.0876 -0.2777
 5265SOL    HW216481   0.607   6.830   0.783  1.1260 -1.5156 -1.8908
 5266SOL     OW16482   4.000   5.649   0.846 -0.2660 -0.7563 -0.0772
 5266SOL    HW116483   3.910   5.652   0.877 -0.6157  0.6770 -1.1080
 5266SOL    HW216484   4.007   5.566   0.799 -1.9183  0.2846 -2.3382
 5267SOL     OW16485   4.882   3.930   3.863  0.3684 -0.4153  0.1492
 5267SOL    HW116486   4.973   3.932   3.835  0.4780 -3.2225  0.0496
 5267SOL    HW216487   4.874   4.002   3.926  2.9728 -0.8596  1.0860
 5268SOL     OW16488   5.429   5.903   5.582 -0.0064  0.3508  0.3044
 5268SOL    HW116489   5.337   5.888   5.601 -0.5108  1.6611 -0.9117
 5268SOL    HW216490   5.433   5.994   5.552  1.0942 -0.6240 -2.9459
 5269SOL     OW16491   0.360   5.038   3.838 -0.3957  0.7048 -0.2002
 5269SOL    HW116492   0.408   4.959   3.813 -0.0996  1.0920 -0.9159
 5269SOL    HW216493   0.428   5.097   3.871 -0.7384  0.3374  1.2313
 5270SOL     OW16494   0.237   1.611   3.718 -0.3476 -0.4367 -0.0751
 5270SOL    HW116495   0.150   1.623   3.679 -0.0008 -0.3552 -0.8506
 5270SOL    HW216496   0.296   1.604   3.643  0.3800 -0.0383  0.4482
 5271SOL     OW16497   6.254   2.878   3.521 -0.3441 -0.0409 -0.3940
 5271SOL    HW116498   6.336   2.863   3.474  0.0523  0.5795  0.0879
 5271SOL    HW216499   6.224   2.964   3.490 -1.2890 -0.6562 -1.2438
 5272SOL     OW16500   5.631   3.936   7.542  0.4002 -0.2348  0.2027
 5272SOL    HW116501   5.573   3.879   7.593  1.4347 -1.3659  0.1788
 5272SOL    HW216502   5.718   3.918   7.577  0.8561  0.7280 -0.3907
 5273SOL     OW16503   4.573   0.377   0.227 -0.0404 -0.8945 -0.1832
 5273SOL    HW116504   4.623   0.392   0.146  0.8420  0.7778  0.6190
 5273SOL    HW216505   4.583   0.283   0.244 -0.1872 -1.2678 -1.9609
 5274SOL     OW16506   3.286   0.518   5.214  0.8519  0.1399  0.4280
 5274SOL    HW116507   3.288   0.576   5.138 -2.6990 -0.3224 -0.1628
 5274SOL    HW216508   3.379   0.502   5.233  1.9236  1.3647 -2.9080
 5275SOL     OW16509   7.160   6.022   1.713  0.8643  0.0215  0.1910
 5275SOL    HW116510   7.090   6.069   1.758  1.1108  1.8215 -1.1644
 5275SOL    HW216511   7.240   6.052   1.754  0.9357 -0.8851  0.7368
 5276SOL     OW16512   5.862   0.219   0.130 -0.0485  0.3822 -0.7091
 5276SOL    HW116513   5.878   0.226   0.036 -0.8074  1.6516 -0.7650
 5276SOL    HW216514   5.805   0.143   0.140 -0.6299  0.7279 -1.3649
 5277SOL     OW16515   1.463   6.289   2.833 -0.0620 -0.4132 -0.9631
 5277SOL    HW116516   1.558   6.290   2.828 -0.0554 -1.6369 -1.2358
 5277SOL    HW216517   1.442   6.221   2.897 -0.7254  1.1180  0.5438
 5278SOL     OW16518   2.733   2.799   3.010 -0.2944 -0.3113 -0.4080
 5278SOL    HW116519   2.769   2.868   3.066  1.7866 -0.8720 -0.9666
 5278SOL    HW216520   2.643   2.826   2.994 -0.6120  0.4578  2.2242
 5279SOL     OW16521   1.634   4.310   5.897 -0.5096  0.4658  0.0647
 5279SOL    HW116522   1.689   4.387   5.882  0.6504 -0.0401  1.4906
 5279SOL    HW216523   1.656   4.251   5.825  0.4641  0.4791  0.3319
 5280SOL     OW16524   4.273   5.750   5.418 -0.2782 -0.4624 -0.6968
 5280SOL    HW116525   4.236   5.784   5.500 -0.6079  0.4119 -1.1878
 5280SOL    HW216526   4.354   5.799   5.406 -0.6634  0.0330 -1.3218
 5281SOL     OW16527   3.220   6.301   7.088  0.0809 -0.1284  0.1430
 5281SOL    HW116528   3.156   6.370   7.105  0.4459  0.3001 -0.2273
 5281SOL    HW216529   3.261   6.285   7.173 -2.3009 -2.2498  1.0473
 5282SOL     OW16530   3.810   4.246   1.519 -0.0333  0.2394 -0.2560
 5282SOL    HW116531   3.833   4.171   1.464  0.3333  0.2319 -0.0925
 5282SOL    HW216532   3.719   4.229   1.544  0.9125 -1.7240  2.2726
 5283SOL     OW16533   3.683   3.740   5.641  0.4608 -0.4091  0.3495
 5283SOL    HW116534   3.700   3.824   5.683  1.1752 -0.3509 -0.0381
 5283SOL    HW216535   3.600   3.752   5.595  1.3622  0.6292 -1.0697
 5284SOL     OW16536   4.240   2.016   6.508  0.5594  0.0382 -0.1025
 5284SOL    HW116537   4.309   1.950   6.498 -0.6317 -1.8343  2.8089
 5284SOL    HW216538   4.286   2.094   6.538  1.6365 -0.5838 -0.0799
 5285SOL     OW16539   0.628   1.415   2.727 -0.1222 -0.0048  0.7659
 5285SOL    HW116540   0.637   1.388   2.635 -3.1301  1.7428 -0.1626
 5285SOL    HW216541   0.697   1.480   2.739  1.0302 -1.0568  0.1404
 5286SOL     OW16542   1.286   6.195   6.386 -0.2466  0.3768  0.2780
 5286SOL    HW116543   1.238   6.266   6.344  1.2768  1.5032  0.3546
 5286SOL    HW216544   1.261   6.117   6.337 -1.6853  0.9975 -0.0396
 5287SOL     OW16545   7.529   0.831   3.924  0.1675 -0.1871  0.5863
 5287SOL    HW116546   7.623   0.848   3.922 -0.1294  1.7441  1.3840
 5287SOL    HW216547   7.515   0.764   3.857  1.6954  1.5934 -1.6521
 5288SOL     OW16548   3.712   1.123   0.478  0.0692  0.3360  0.9700
 5288SOL    HW116549   3.708   1.217   0.498 -1.5977  0.7170 -0.8101
 5288SOL    HW216550   3.620   1.097   0.467  0.5712 -1.1535 -0.0423
 5289SOL     OW16551   6.401   6.261   7.010  0.4296 -0.0317 -0.6353
 5289SOL    HW116552   6.457   6.329   6.974  1.3237 -0.9047 -0.9454
 5289SOL    HW216553   6.401   6.192   6.944 -1.0176 -0.0673 -0.6394
 5290SOL     OW16554   2.348   6.556   2.518 -0.1687  0.8486 -0.2914
 5290SOL    HW116555   2.438   6.558   2.550 -0.7038  0.2100  1.3785
 5290SOL    HW216556   2.337   6.468   2.483 -0.6654  0.2780  1.2279
 5291SOL     OW16557   1.627   4.107   6.968 -0.1218  0.2451  1.0062
 5291SOL    HW116558   1.689   4.035   6.965 -1.0423 -0.5570  0.4261
 5291SOL    HW216559   1.557   4.081   6.908 -0.7120  1.4050  1.1551
 5292SOL     OW16560   1.230   1.739   6.979  0.0720  0.0872 -0.5568
 5292SOL    HW116561   1.163   1.798   6.947 -1.2582 -1.5471 -0.8972
 5292SOL    HW216562   1.243   1.675   6.909  1.2245 -0.2541 -0.0727
 5293SOL     OW16563   2.485   0.327   6.452  0.0973  0.0156  0.1713
 5293SOL    HW116564   2.431   0.280   6.388  0.1778  1.0564 -0.6982
 5293SOL    HW216565   2.440   0.411   6.464  0.9398  0.4687  0.2509
 5294SOL     OW16566   1.400   4.420   4.637 -0.7996  0.5011  0.4732
 5294SOL    HW116567   1.471   4.443   4.577  1.4049 -2.8278  1.5839
 5294SOL    HW216568   1.422   4.464   4.719  0.4243 -1.0231  1.0024
 5295SOL     OW16569   5.980   3.381   7.319  0.7844 -0.4264  0.2068
 5295SOL    HW116570   6.016   3.402   7.405  0.5413 -0.2062  0.2555
 5295SOL    HW216571   5.908   3.320   7.337  0.6129 -0.2343  0.1755
 5296SOL     OW16572   5.279   2.695   4.305  0.3202 -0.1247 -0.4494
 5296SOL    HW116573   5.204   2.643   4.275  0.9846 -1.5995  0.2995
 5296SOL    HW216574   5.317   2.731   4.225  1.2135 -2.7993 -1.3498
 5297SOL     OW16575   0.685   0.751   2.256 -0.2533  0.4022 -0.2682
 5297SOL    HW116576   0.750   0.681   2.258 -0.6999 -0.0211 -0.3225
 5297SOL    HW216577   0.713   0.808   2.185  0.7860  0.9390  0.5512
 5298SOL     OW16578   0.320   4.284   4.226  0.5998 -0.3504  0.3470
 5298SOL    HW116579   0.230   4.278   4.195  0.5896  1.1448  0.0158
 5298SOL    HW216580   0.336   4.201   4.270 -0.5730 -1.0798 -0.5429
 5299SOL     OW16581   0.151   1.557   1.353  0.1581  0.2692 -0.0982
 5299SOL    HW116582   0.114   1.645   1.349  1.1554  0.6970 -0.3359
 5299SOL    HW216583   0.085   1.505   1.397 -1.7556  0.4557 -2.5147
 5300SOL     OW16584   7.028   6.509   0.674  0.0773 -0.1446  0.3073
 5300SOL    HW116585   6.979   6.435   0.707 -0.6742  0.7175  1.1927
 5300SOL    HW216586   7.119   6.489   0.693 -0.0909 -0.9742  0.2418
 5301SOL     OW16587   6.885   2.091   4.418 -0.4985 -0.5005  0.1102
 5301SOL    HW116588   6.888   2.049   4.504 -0.2993 -2.4193 -0.7900
 5301SOL    HW216589   6.793   2.113   4.405 -0.1757  2.5773  2.0116
 5302SOL     OW16590   7.439   1.024   3.463  0.1233  0.2765  0.4629
 5302SOL    HW116591   7.491   0.971   3.523  2.1306  1.5439 -0.0583
 5302SOL    HW216592   7.368   0.967   3.435  2.1224 -2.1257 -0.0378
 5303SOL     OW16593   3.733   1.598   6.222  0.3560  0.1101 -0.6305
 5303SOL    HW116594   3.659   1.544   6.248  0.4646 -0.6943 -1.9169
 5303SOL    HW216595   3.706   1.688   6.243 -1.0071 -0.1618 -1.1001
 5304SOL     OW16596   7.285   6.711   1.298 -0.1529  0.8167  0.7699
 5304SOL    HW116597   7.369   6.755   1.311 -0.7919  1.6688  2.2570
 5304SOL    HW216598   7.271   6.713   1.203  2.3393 -1.0044  0.2876
 5305SOL     OW16599   3.170   7.054   5.659  0.7075  0.2954 -0.1762
 5305SOL    HW116600   3.253   7.019   5.628  2.0470  0.5956  2.7542
 5305SOL    HW216601   3.131   6.983   5.711 -1.0714  0.0543 -1.7190
 5306SOL     OW16602   3.469   6.231   0.229  0.8315  0.2724  0.2040
 5306SOL    HW116603   3.528   6.294   0.271  0.6585 -0.1903  1.1601
 5306SOL    HW216604   3.520   6.150   0.226  0.2407 -0.1516  1.1103
 5307SOL     OW16605   1.131   3.946   6.824  0.4342  0.1079  0.0257
 5307SOL    HW116606   1.130   3.960   6.919  1.5803  0.7274 -0.0335
 5307SOL    HW216607   1.202   3.883   6.810 -0.2099 -0.5446 -0.3634
 5308SOL     OW16608   3.613   0.557   5.011  0.1864 -0.2329  0.0702
 5308SOL    HW116609   3.589   0.592   5.096 -0.6246 -1.1104  0.2129
 5308SOL    HW216610   3.647   0.470   5.030 -2.0178 -1.3259 -0.6682
 5309SOL     OW16611   5.086   4.070   0.851  0.6592  0.3219  0.3402
 5309SOL    HW116612   5.007   4.081   0.798 -0.5082  1.3463  2.2203
 5309SOL    HW216613   5.150   4.129   0.811 -0.5205  1.8503  0.6153
 5310SOL     OW16614   3.556   1.637   3.835 -0.6002 -0.0780 -0.7725
 5310SOL    HW116615   3.486   1.571   3.837 -0.8094  0.1498 -0.1212
 5310SOL    HW216616   3.624   1.602   3.892 -0.2238 -0.2494 -1.3214
 5311SOL     OW16617   0.545   1.430   1.853 -0.0062 -0.1476 -0.6122
 5311SOL    HW116618   0.535   1.386   1.768 -0.4466  0.5256 -0.9117
 5311SOL    HW216619   0.639   1.426   1.870  0.6953  2.9678 -2.9127
 5312SOL     OW16620   3.230   2.577   6.036 -0.1195  0.2496 -0.6220
 5312SOL    HW116621   3.322   2.596   6.056 -0.1077 -0.7948  0.4052
 5312SOL    HW216622   3.205   2.510   6.100 -1.1432 -0.6201 -1.8797
 5313SOL     OW16623   4.315   4.580   3.610  0.3600 -0.6319 -0.4214
 5313SOL    HW116624   4.286   4.504   3.661  0.5582 -0.5855 -0.2411
 5313SOL    HW216625   4.409   4.585   3.626  0.1130  0.6076  0.8533
 5314SOL     OW16626   5.607   2.618   5.948 -0.7287 -0.5756 -0.0363
 5314SOL    HW116627   5.632   2.624   6.040 -0.9506 -0.2423  0.0075
 5314SOL    HW216628   5.651   2.540   5.915 -1.9470 -1.6519  0.7702
 5315SOL     OW16629   1.547   5.264   2.316  0.3434 -0.0229  0.2430
 5315SOL    HW116630   1.565   5.347   2.271 -1.8707 -0.4803 -1.6979
 5315SOL    HW216631   1.485   5.287   2.386  0.0962  0.0454  0.0045
 5316SOL     OW16632   1.960   1.995   1.385 -0.0289  0.3798 -0.3587
 5316SOL    HW116633   1.897   1.954   1.326 -1.2025  0.3865  0.8511
 5316SOL    HW216634   1.942   2.089   1.378 -2.4655  0.2520  2.3758
 5317SOL     OW16635   3.144   5.091   3.906  0.0239 -0.0177 -0.2131
 5317SOL    HW116636   3.096   5.110   3.826  0.7364 -0.2990 -0.7122
 5317SOL    HW216637   3.212   5.158   3.912  0.2808 -0.2819 -0.1040
 5318SOL     OW16638   5.082   0.214   5.878 -0.8134 -0.1009 -0.2832
 5318SOL    HW116639   5.027   0.136   5.869 -2.1629  0.8626 -0.6960
 5318SOL    HW216640   5.093   0.246   5.789  1.5437 -0.9728 -0.3795
 5319SOL     OW16641   3.381   6.231   5.142 -0.4147 -0.0316 -0.2222
 5319SOL    HW116642   3.386   6.155   5.200  2.4041  0.4732  0.3272
 5319SOL    HW216643   3.449   6.216   5.076 -2.1669  0.4037 -2.2475
 5320SOL     OW16644   2.607   0.307   1.524 -0.1555  0.6642  0.5469
 5320SOL    HW116645   2.693   0.350   1.531  0.1420  0.2598 -0.4113
 5320SOL    HW216646   2.550   0.373   1.486  0.3574  0.1868 -1.1400
 5321SOL     OW16647   3.078   1.537   4.975 -0.5502 -0.2499  0.0771
 5321SOL    HW116648   2.997   1.579   4.944  0.1918  1.0885 -0.1347
 5321SOL    HW216649   3.148   1.592   4.939  0.4201 -0.6037  1.3724
 5322SOL     OW16650   5.767   3.827   5.734 -0.3475 -0.6258  0.1030
 5322SOL    HW116651   5.712   3.902   5.711 -1.7502 -0.9452  2.1730
 5322SOL    HW216652   5.795   3.791   5.650 -1.4017  0.9351 -0.9701
 5323SOL     OW16653   2.081   5.292   0.189  0.3323 -0.1681  0.0230
 5323SOL    HW116654   2.120   5.311   0.274  0.8249  0.4607 -0.3284
 5323SOL    HW216655   1.987   5.307   0.201  0.6222  2.2235 -0.1129
 5324SOL     OW16656   3.888   5.417   0.695 -0.0482 -0.0687 -0.0128
 5324SOL    HW116657   3.917   5.351   0.632 -1.1573  0.6561 -1.3124
 5324SOL    HW216658   3.816   5.376   0.742 -1.2101  0.4417 -1.3134
 5325SOL     OW16659   0.789   4.250   7.201 -0.1648 -0.6971 -0.1405
 5325SOL    HW116660   0.755   4.251   7.111  0.4080 -1.0344 -0.3676
 5325SOL    HW216661   0.745   4.324   7.244  0.8109  0.5371 -1.1744
 5326SOL     OW16662   3.323   2.024   4.288 -0.1279  0.0409  0.0147
 5326SOL    HW116663   3.263   1.952   4.269  0.1729  0.0842 -1.2048
 5326SOL    HW216664   3.272   2.103   4.268  0.1755  0.0899 -0.5988
 5327SOL     OW16665   4.493   4.187   7.769 -0.2512  0.1661  0.5862
 5327SOL    HW116666   4.470   4.106   7.724  0.8272  0.0854  0.1348
 5327SOL    HW216667   4.413   4.238   7.768 -0.5720 -0.3147 -0.4196
 5328SOL     OW16668   2.387   6.644   2.925  0.2875 -0.0510 -0.4613
 5328SOL    HW116669   2.334   6.585   2.979  1.0347  0.5177  0.9536
 5328SOL    HW216670   2.462   6.590   2.897  0.4650 -0.0584  0.0120
 5329SOL     OW16671   3.703   7.001   2.817  0.0911 -0.1217  0.0318
 5329SOL    HW116672   3.699   7.059   2.740 -0.6780  0.5680  0.5698
 5329SOL    HW216673   3.764   7.045   2.876  0.3200 -0.4113  0.0117
 5330SOL     OW16674   7.314   1.867   3.733 -0.4513  0.7511 -0.3370
 5330SOL    HW116675   7.307   1.808   3.659  0.1153 -0.8776  0.8545
 5330SOL    HW216676   7.225   1.876   3.766 -0.5151  0.4440 -0.4298
 5331SOL     OW16677   1.792   4.212   4.012 -0.7413  0.0273 -0.2093
 5331SOL    HW116678   1.844   4.148   3.964 -1.3532 -0.3468 -0.3859
 5331SOL    HW216679   1.702   4.199   3.981 -1.0828  0.0685  0.7186
 5332SOL     OW16680   6.702   7.770   5.186 -0.4323 -0.4003 -0.0110
 5332SOL    HW116681   6.725   7.854   5.224  0.9539 -1.1508  0.9184
 5332SOL    HW216682   6.760   7.707   5.231 -2.9344 -2.1627  1.0078
 5333SOL     OW16683   5.467   4.750   4.016  0.2149 -0.1878 -0.1983
 5333SOL    HW116684   5.374   4.771   4.014 -0.0406 -1.3508 -1.4498
 5333SOL    HW216685   5.493   4.766   4.107 -1.0025  0.9239 -0.0149
 5334SOL     OW16686   3.829   1.949   2.589  0.7230  0.2628  0.1269
 5334SOL    HW116687   3.903   2.002   2.559  1.6958 -0.6408  0.9031
 5334SOL    HW216688   3.866   1.888   2.651 -0.5972 -0.5663  0.1365
 5335SOL     OW16689   6.151   2.979   1.607 -0.2777 -0.3536  0.2393
 5335SOL    HW116690   6.133   3.059   1.657  0.0322 -0.3209  0.2954
 5335SOL    HW216691   6.086   2.916   1.640 -0.9744  0.0739 -0.2893
 5336SOL     OW16692   6.979   5.611   6.212  0.2089  0.3143 -0.3729
 5336SOL    HW116693   6.965   5.524   6.249 -0.1207  0.2829 -0.5642
 5336SOL    HW216694   7.011   5.664   6.285 -1.3663  0.5046  0.2256
 5337SOL     OW16695   0.262   6.969   0.931  0.0261  0.6017 -0.3634
 5337SOL    HW116696   0.260   6.997   0.840  0.4706  1.2169 -0.1850
 5337SOL    HW216697   0.169   6.967   0.957 -0.4541 -2.8945 -1.7997
 5338SOL     OW16698   3.642   3.607   0.466  0.2365 -0.6040 -0.5925
 5338SOL    HW116699   3.627   3.685   0.412 -3.5701 -0.2788  0.6750
 5338SOL    HW216700   3.665   3.642   0.552  1.7918 -1.0437 -0.7900
 5339SOL     OW16701   0.728   4.859   4.979 -0.1211 -0.3797 -0.3639
 5339SOL    HW116702   0.739   4.898   4.893 -0.6017 -1.4454 -0.9214
 5339SOL    HW216703   0.762   4.770   4.970  0.0234 -0.4371  0.6091
 5340SOL     OW16704   5.194   3.306   5.696 -0.0786  0.6155 -0.6839
 5340SOL    HW116705   5.260   3.375   5.694  0.5782  0.0178 -0.0217
 5340SOL    HW216706   5.154   3.313   5.782 -1.3046  1.3500 -1.2890
 5341SOL     OW16707   2.600   4.889   0.111  0.5684  0.4246 -0.0486
 5341SOL    HW116708   2.628   4.948   0.041 -0.3964  1.5785  0.5123
 5341SOL    HW216709   2.505   4.887   0.105  0.5920 -2.1679 -0.8937
 5342SOL     OW16710   6.050   2.782   6.569  0.3405 -0.3169  0.0794
 5342SOL    HW116711   6.120   2.760   6.508 -0.4514 -0.7539 -0.6954
 5342SOL    HW216712   6.001   2.701   6.580 -0.6163  0.2137 -0.1541
 5343SOL     OW16713   2.301   4.099   5.405  0.4550  0.1834  0.5257
 5343SOL    HW116714   2.270   4.029   5.347 -0.2107  2.1346 -1.6188
 5343SOL    HW216715   2.239   4.098   5.478 -2.1055  1.0808 -1.4643
 5344SOL     OW16716   1.717   4.156   0.652  0.1394  0.4793  0.0798
 5344SOL    HW116717   1.775   4.087   0.683  0.8973  1.9646  2.2654
 5344SOL    HW216718   1.677   4.191   0.732 -0.6947  2.1349 -0.9998
 5345SOL     OW16719   7.710   5.234   2.701  0.8431  0.4633 -0.1300
 5345SOL    HW116720   7.646   5.303   2.686  1.8936  1.3246 -0.7726
 5345SOL    HW216721   7.687   5.199   2.787 -0.2386  1.0168 -0.1777
 5346SOL     OW16722   0.740   7.544   3.601  0.3566  0.3826  0.5077
 5346SOL    HW116723   0.673   7.612   3.597 -0.0445  0.0323  1.0714
 5346SOL    HW216724   0.818   7.585   3.563 -0.5483  0.3249 -1.4920
 5347SOL     OW16725   7.630   4.129   1.602  0.4136  0.3667  0.1532
 5347SOL    HW116726   7.580   4.055   1.568  0.4118  0.4608 -0.0496
 5347SOL    HW216727   7.713   4.127   1.554  0.4525  0.4390  0.2154
 5348SOL     OW16728   5.306   7.734   1.304 -0.2891  0.7198  0.0004
 5348SOL    HW116729   5.345   7.716   1.218 -1.4204  0.6681 -0.5234
 5348SOL    HW216730   5.337   7.662   1.359  0.8867  1.0444 -0.2048
 5349SOL     OW16731   2.819   1.370   3.454  0.0136  0.1381  0.2240
 5349SOL    HW116732   2.733   1.402   3.483 -0.3348 -0.9238  0.4150
 5349SOL    HW216733   2.869   1.449   3.437 -1.0843  0.7905 -0.1236
 5350SOL     OW16734   1.095   2.398   6.628  0.0805  0.1918 -0.4022
 5350SOL    HW116735   1.009   2.414   6.588  0.3864  0.9893 -0.7610
 5350SOL    HW216736   1.078   2.398   6.722 -0.5208 -0.9490 -0.4913
 5351SOL     OW16737   1.309   5.389   2.806 -0.2754  0.6183 -0.1470
 5351SOL    HW116738   1.349   5.303   2.809 -0.5953  0.5027  1.8918
 5351SOL    HW216739   1.361   5.438   2.742  0.5915 -0.7315 -0.5070
 5352SOL     OW16740   5.745   4.438   3.057  0.1943  0.1268 -0.3877
 5352SOL    HW116741   5.736   4.495   3.133  2.7116 -0.2400  0.2693
 5352SOL    HW216742   5.719   4.494   2.983 -1.2072  0.8353  0.5814
 5353SOL     OW16743   5.949   2.363   6.120  0.5621  0.2226 -0.4256
 5353SOL    HW116744   6.009   2.364   6.045  0.4368 -0.1003 -0.5321
 5353SOL    HW216745   5.873   2.415   6.091  0.0532 -0.7656 -0.9159
 5354SOL     OW16746   2.236   1.309   6.519 -0.5990  0.0819 -0.1846
 5354SOL    HW116747   2.327   1.323   6.547 -0.6031  1.4179 -0.7920
 5354SOL    HW216748   2.200   1.397   6.511 -2.6425 -0.4182  2.2085
 5355SOL     OW16749   2.250   3.300   3.864 -0.3944 -0.2171  0.0830
 5355SOL    HW116750   2.264   3.219   3.815  2.4263  0.5049 -0.4865
 5355SOL    HW216751   2.276   3.278   3.953  1.9760  0.3908 -0.3960
 5356SOL     OW16752   6.655   0.944   5.487 -0.5661  0.1310  0.5495
 5356SOL    HW116753   6.573   0.930   5.535 -0.5212 -1.1554  0.2940
 5356SOL    HW216754   6.627   0.961   5.397 -0.5621 -0.2060  0.4831
 5357SOL     OW16755   6.611   3.916   3.217 -0.2401 -0.3474 -0.4586
 5357SOL    HW116756   6.628   3.954   3.131  0.6289 -0.7308 -0.4589
 5357SOL    HW216757   6.665   3.968   3.277  0.5851 -1.2611 -0.3975
 5358SOL     OW16758   6.862   5.303   7.539  0.1146 -0.4349 -0.6513
 5358SOL    HW116759   6.843   5.223   7.589  0.8970 -0.6538 -0.6864
 5358SOL    HW216760   6.947   5.332   7.572 -0.9529  1.4138  0.6478
 5359SOL     OW16761   7.177   5.547   6.038 -0.2832 -0.7428  0.0304
 5359SOL    HW116762   7.204   5.455   6.043 -2.0305 -1.2986  0.0122
 5359SOL    HW216763   7.110   5.556   6.106  0.1986  0.6585  0.3485
 5360SOL     OW16764   5.099   1.773   5.443 -0.0676  0.2758  0.2106
 5360SOL    HW116765   5.106   1.866   5.465  2.1532  0.5140 -1.1865
 5360SOL    HW216766   5.033   1.769   5.374 -0.1362  0.8374  0.2392
 5361SOL     OW16767   5.642   1.291   7.379 -0.0314  0.0139 -0.2246
 5361SOL    HW116768   5.680   1.210   7.345 -0.0067 -0.6070  1.2498
 5361SOL    HW216769   5.564   1.264   7.427  0.5828  0.7169  1.2308
 5362SOL     OW16770   4.064   4.914   3.140  0.5801  0.4375 -0.4355
 5362SOL    HW116771   4.098   4.887   3.225 -0.2033 -0.5936 -0.4383
 5362SOL    HW216772   4.141   4.938   3.089  1.0298  1.5081  0.6984
 5363SOL     OW16773   0.245   1.800   0.494  0.2184  0.0776 -0.7610
 5363SOL    HW116774   0.284   1.772   0.577  0.2342  0.9846 -0.4511
 5363SOL    HW216775   0.199   1.881   0.515 -0.1456  0.0863 -1.5528
 5364SOL     OW16776   3.976   4.431   4.099  0.3137  0.1030  0.5920
 5364SOL    HW116777   4.060   4.418   4.055  1.0356  1.6679  1.4193
 5364SOL    HW216778   3.914   4.375   4.051  1.2556  0.9142 -1.7071
 5365SOL     OW16779   4.855   2.267   3.604 -0.8368  0.2199  0.6005
 5365SOL    HW116780   4.878   2.231   3.519  2.1058  2.6407  0.2123
 5365SOL    HW216781   4.854   2.192   3.663  3.1740 -0.8918 -0.4793
 5366SOL     OW16782   1.261   2.486   5.779  0.1791  0.3966 -0.0404
 5366SOL    HW116783   1.203   2.560   5.761 -1.0300 -0.2619  0.9951
 5366SOL    HW216784   1.308   2.511   5.859  0.3875  0.3761 -0.1538
 5367SOL     OW16785   1.241   1.423   6.364 -0.0138 -0.1313  0.1620
 5367SOL    HW116786   1.275   1.465   6.285 -1.1408 -0.5195 -0.5475
 5367SOL    HW216787   1.291   1.341   6.371  1.8456  1.0260  1.2781
 5368SOL     OW16788   7.462   2.674   4.869  0.4365  0.1395 -0.6388
 5368SOL    HW116789   7.408   2.595   4.862 -0.5949  0.8078 -0.3552
 5368SOL    HW216790   7.401   2.743   4.895  1.5357  0.7805  0.3356
 5369SOL     OW16791   3.205   5.898   2.310 -0.6127 -0.3519  0.4586
 5369SOL    HW116792   3.182   5.913   2.219 -0.8881 -1.5618  0.3091
 5369SOL    HW216793   3.204   5.802   2.320 -0.5427 -0.2429  1.7138
 5370SOL     OW16794   5.098   6.108   5.683 -0.8159 -0.1917  0.2582
 5370SOL    HW116795   5.139   6.192   5.701 -1.0259 -0.0401  0.0402
 5370SOL    HW216796   5.080   6.110   5.589  0.5495 -1.0890 -0.0555
 5371SOL     OW16797   6.981   3.331   5.168 -0.2192 -0.4731  0.2416
 5371SOL    HW116798   7.043   3.349   5.097  2.8179 -1.7778  2.3432
 5371SOL    HW216799   6.937   3.414   5.183 -0.1078  0.1453 -2.3074
 5372SOL     OW16800   6.121   0.421   4.912 -0.0688  0.1797  0.5248
 5372SOL    HW116801   6.130   0.337   4.868 -0.2308  0.9489 -1.0476
 5372SOL    HW216802   6.174   0.413   4.991  0.9188 -0.9620 -0.2325
 5373SOL     OW16803   2.802   1.465   6.539  0.0983  0.0851 -0.1527
 5373SOL    HW116804   2.749   1.542   6.561  0.3351 -0.1701  1.4377
 5373SOL    HW216805   2.889   1.487   6.572  1.0026  0.4228 -2.5648
 5374SOL     OW16806   5.086   1.023   1.742 -0.3322 -0.1228  0.2574
 5374SOL    HW116807   5.028   0.963   1.696 -0.2504  0.9716 -1.3391
 5374SOL    HW216808   5.174   0.996   1.716 -0.3004  0.7472 -0.5968
 5375SOL     OW16809   1.182   0.485   2.675 -0.8009 -0.4563  0.7196
 5375SOL    HW116810   1.269   0.446   2.660  0.3164  0.9420  2.9983
 5375SOL    HW216811   1.123   0.410   2.682  0.1125 -1.4324 -1.1783
 5376SOL     OW16812   2.530   4.279   3.608 -0.4773  0.0312 -0.4365
 5376SOL    HW116813   2.518   4.207   3.546 -0.2300 -2.7059  2.4289
 5376SOL    HW216814   2.442   4.307   3.630 -0.8317 -2.1391  1.2357
 5377SOL     OW16815   0.254   3.906   0.719 -0.1569  0.1802  0.8370
 5377SOL    HW116816   0.257   4.002   0.728 -1.8508  0.3109  0.4071
 5377SOL    HW216817   0.317   3.887   0.649  0.2862  0.9696  1.0082
 5378SOL     OW16818   6.749   0.260   5.276  0.6344 -0.2696 -1.0205
 5378SOL    HW116819   6.751   0.355   5.268 -2.1056  0.2155  1.9770
 5378SOL    HW216820   6.827   0.238   5.327  0.2607  0.7113  0.0256
 5379SOL     OW16821   7.606   6.851   5.619  0.0780  0.1512 -1.0002
 5379SOL    HW116822   7.627   6.917   5.552  1.7572 -0.3517 -1.0101
 5379SOL    HW216823   7.539   6.796   5.578  0.1607  0.6128 -1.7928
 5380SOL     OW16824   0.893   4.467   1.936 -0.1321  0.4440  0.5040
 5380SOL    HW116825   0.985   4.492   1.945 -0.2019  0.2992  1.8098
 5380SOL    HW216826   0.869   4.494   1.847  1.2641  0.1562  0.0140
 5381SOL     OW16827   6.656   5.710   6.979 -0.0340 -0.1743 -0.2261
 5381SOL    HW116828   6.712   5.640   6.945  1.3312  0.3507  0.8136
 5381SOL    HW216829   6.624   5.676   7.063 -0.3145 -0.0105 -0.2680
 5382SOL     OW16830   3.800   2.187   3.876 -0.5491 -0.1984  0.5426
 5382SOL    HW116831   3.782   2.164   3.967  1.3754 -2.8471  0.3376
 5382SOL    HW216832   3.887   2.227   3.877 -0.2997 -0.7053 -0.2008
 5383SOL     OW16833   3.148   0.197   4.880 -0.0415  0.1513  0.1116
 5383SOL    HW116834   3.210   0.256   4.836  0.2556 -0.6625 -0.5967
 5383SOL    HW216835   3.198   0.159   4.952  0.8724 -1.7202 -1.3950
 5384SOL     OW16836   3.486   3.290   5.008 -0.2641  0.5715 -0.1035
 5384SOL    HW116837   3.563   3.316   5.059  0.1041  0.0939 -0.4060
 5384SOL    HW216838   3.412   3.324   5.058  0.1477  1.2564  0.0661
 5385SOL     OW16839   1.455   3.536   4.513 -0.6912 -0.2962  0.0297
 5385SOL    HW116840   1.370   3.501   4.487  0.3949 -1.3201 -2.3397
 5385SOL    HW216841   1.518   3.492   4.458  1.3413  1.1296  1.0677
 5386SOL     OW16842   4.613   7.353   7.736 -0.0786  0.4423 -0.0734
 5386SOL    HW116843   4.636   7.287   7.670  0.3559 -0.2283  0.7443
 5386SOL    HW216844   4.643   7.436   7.697 -0.3094  0.1321 -0.9524
 5387SOL     OW16845   0.456   3.700   0.726  0.6418  0.0321  0.1112
 5387SOL    HW116846   0.420   3.788   0.729  0.1532 -0.0933 -1.2613
 5387SOL    HW216847   0.536   3.708   0.675 -1.1342 -0.7886 -3.0954
 5388SOL     OW16848   3.434   2.100   5.109  0.4497  0.3384 -0.1961
 5388SOL    HW116849   3.461   2.143   5.190 -0.4297  0.0133  0.2848
 5388SOL    HW216850   3.467   2.156   5.039  0.7211  0.9264  0.3987
 5389SOL     OW16851   5.591   6.736   7.286  0.0065  0.2584 -0.1784
 5389SOL    HW116852   5.511   6.720   7.237 -0.1103 -0.7449  0.3055
 5389SOL    HW216853   5.660   6.695   7.233  0.1468  0.7544 -0.3870
 5390SOL     OW16854   4.368   3.269   0.053  0.1110 -0.2596 -0.6647
 5390SOL    HW116855   4.377   3.362   0.035  0.5803 -0.3280 -0.8007
 5390SOL    HW216856   4.337   3.232  -0.030  2.2294 -0.5677 -1.4049
 5391SOL     OW16857   7.368   3.778   6.434  0.2003  0.0697  0.4832
 5391SOL    HW116858   7.276   3.799   6.420  0.5607  1.7186  0.4156
 5391SOL    HW216859   7.387   3.710   6.370 -0.9462 -0.2409  0.4511
 5392SOL     OW16860   5.469   5.707   0.056 -0.0040 -0.2524  0.0630
 5392SOL    HW116861   5.475   5.691  -0.038  1.9952  0.5592  0.0023
 5392SOL    HW216862   5.439   5.624   0.093 -1.3156 -0.4389 -1.2980
 5393SOL     OW16863   6.919   7.358   5.457 -0.1326  0.1494  0.0636
 5393SOL    HW116864   7.004   7.327   5.487 -0.4134 -1.3503 -0.5962
 5393SOL    HW216865   6.865   7.358   5.536 -0.0947 -1.0227  0.1171
 5394SOL     OW16866   6.476   6.048   6.865  0.3191  0.3676  0.4700
 5394SOL    HW116867   6.466   5.975   6.804 -0.4539  0.6317  0.2739
 5394SOL    HW216868   6.570   6.049   6.886  0.8948  1.2223 -1.9117
 5395SOL     OW16869   3.771   1.600   7.046 -0.1975 -0.2212  0.3204
 5395SOL    HW116870   3.838   1.583   7.111 -0.7294 -1.6922  0.5105
 5395SOL    HW216871   3.792   1.543   6.973  0.0458  0.9778 -0.5863
 5396SOL     OW16872   1.564   2.794   1.950 -0.1572  0.2307 -0.5270
 5396SOL    HW116873   1.625   2.765   2.018 -0.1724  1.9293  0.2763
 5396SOL    HW216874   1.610   2.779   1.868  1.1522  0.9900  0.0312
 5397SOL     OW16875   2.630   1.913   3.122 -0.1733 -0.4021  0.4184
 5397SOL    HW116876   2.706   1.904   3.179  0.0295 -0.9191  0.0685
 5397SOL    HW216877   2.562   1.948   3.179  0.5467  0.8320  0.5529
 5398SOL     OW16878   2.503   0.395   4.623 -0.4126 -0.7433  0.2838
 5398SOL    HW116879   2.541   0.322   4.574  0.5369  0.9293 -1.5798
 5398SOL    HW216880   2.577   0.431   4.672 -0.2448  0.5454 -0.8619
 5399SOL     OW16881   3.378   2.922   1.800 -0.5437 -0.3167  0.1810
 5399SOL    HW116882   3.353   2.844   1.749 -1.1523  0.7743 -1.2659
 5399SOL    HW216883   3.469   2.937   1.777  0.3331 -1.9014  2.2784
 5400SOL     OW16884   1.404   3.375   5.701  0.3102 -0.2070 -0.3874
 5400SOL    HW116885   1.327   3.401   5.652  0.3013 -1.1673 -0.9039
 5400SOL    HW216886   1.474   3.368   5.636  0.2880 -1.5389 -0.2983
 5401SOL     OW16887   5.222   1.892   2.458  0.3810  0.4122  0.1970
 5401SOL    HW116888   5.291   1.842   2.415 -0.1624  1.0494 -1.4974
 5401SOL    HW216889   5.181   1.943   2.388 -2.3900 -0.5958  0.9567
 5402SOL     OW16890   2.583   3.599   2.840  0.2617 -0.2650  0.2962
 5402SOL    HW116891   2.548   3.675   2.793  2.8112  1.9678  1.6597
 5402SOL    HW216892   2.663   3.577   2.793 -1.1648 -3.2437 -0.9763
 5403SOL     OW16893   0.891   2.504   7.740  0.3201  0.1223 -0.4787
 5403SOL    HW116894   0.904   2.414   7.769 -1.0204  0.0385 -0.0984
 5403SOL    HW216895   0.939   2.556   7.805  0.6165 -0.2807 -0.3676
 5404SOL     OW16896   2.702   6.017   1.033 -0.1079 -0.3529 -0.7343
 5404SOL    HW116897   2.614   5.980   1.027 -0.4875  0.3870  0.0859
 5404SOL    HW216898   2.737   6.010   0.944 -1.2207 -0.0991 -1.2022
 5405SOL     OW16899   1.893   6.803   6.965 -0.8014  0.0571  0.4493
 5405SOL    HW116900   1.983   6.827   6.986 -0.6312 -0.7854  0.7279
 5405SOL    HW216901   1.846   6.810   7.048 -0.5228 -1.5165  0.7756
 5406SOL     OW16902   5.435   7.223   6.483  0.1753 -0.3953 -0.0482
 5406SOL    HW116903   5.344   7.199   6.466 -0.1500  0.4663  0.4228
 5406SOL    HW216904   5.430   7.313   6.515  1.3100  0.1109 -1.2445
 5407SOL     OW16905   6.495   3.214   6.297  0.1809  0.0770  0.2435
 5407SOL    HW116906   6.497   3.296   6.248 -1.4833 -0.1498 -0.2604
 5407SOL    HW216907   6.419   3.167   6.264  1.2649 -1.8492  0.2934
 5408SOL     OW16908   0.756   2.472   1.856  0.3029 -0.6657  0.2331
 5408SOL    HW116909   0.755   2.455   1.951  2.3585 -0.2152  0.3773
 5408SOL    HW216910   0.804   2.399   1.819 -0.2907 -0.7136 -0.4574
 5409SOL     OW16911   5.293   3.691   6.329 -0.3791 -0.2237  0.5775
 5409SOL    HW116912   5.385   3.717   6.336 -0.0836 -1.3493  1.0099
 5409SOL    HW216913   5.285   3.654   6.241 -0.7488  1.0591  0.0444
 5410SOL     OW16914   4.158   2.882   7.432 -0.2523 -0.6692 -0.0246
 5410SOL    HW116915   4.071   2.880   7.393  0.0655  0.6710 -0.8846
 5410SOL    HW216916   4.143   2.888   7.526 -1.0742 -0.6008 -0.1555
 5411SOL     OW16917   4.625   0.706   0.700  0.6417  0.7783  0.0206
 5411SOL    HW116918   4.551   0.646   0.711  0.7941  0.7319  0.8719
 5411SOL    HW216919   4.702   0.649   0.699  0.7304  0.8960  0.0689
 5412SOL     OW16920   4.792   1.029   4.964  0.0945  0.3507 -0.3275
 5412SOL    HW116921   4.739   1.030   4.884 -0.9999 -0.6437  0.3551
 5412SOL    HW216922   4.835   0.944   4.963  0.7370  0.6672 -0.2552
 5413SOL     OW16923   5.735   6.213   0.893 -0.5231  0.2794 -0.1495
 5413SOL    HW116924   5.792   6.136   0.896  0.2423  0.8232  2.4705
 5413SOL    HW216925   5.646   6.178   0.892 -0.2276 -0.7679  2.1566
 5414SOL     OW16926   6.132   5.774   0.795 -0.0662  0.0249  0.5732
 5414SOL    HW116927   6.171   5.736   0.874 -0.0823  2.0611  1.6536
 5414SOL    HW216928   6.204   5.822   0.754 -0.0500 -1.0496 -0.7189
 5415SOL     OW16929   6.132   5.531   4.155  0.0781 -0.7539  0.1867
 5415SOL    HW116930   6.109   5.453   4.104 -1.9730  0.1587 -0.3700
 5415SOL    HW216931   6.058   5.544   4.213  1.0301 -0.0014  1.2698
 5416SOL     OW16932   1.116   2.228   5.387 -0.0783  0.2290  0.1975
 5416SOL    HW116933   1.103   2.310   5.339  1.3775  1.1579  1.3066
 5416SOL    HW216934   1.181   2.250   5.454  1.1038 -2.0949 -0.0978
 5417SOL     OW16935   1.319   7.009   5.363 -0.1887  0.0842 -0.1522
 5417SOL    HW116936   1.235   7.041   5.396  0.8413 -0.3481  3.2946
 5417SOL    HW216937   1.296   6.939   5.302 -2.3807 -0.6084  1.3268
 5418SOL     OW16938   0.718   2.550   4.170  0.0892 -0.2285  0.3110
 5418SOL    HW116939   0.774   2.625   4.148  1.1775 -0.2341  2.7683
 5418SOL    HW216940   0.635   2.568   4.125  0.1264  2.7122  1.2118
 5419SOL     OW16941   4.715   5.764   5.530  0.1638 -0.5481  0.0176
 5419SOL    HW116942   4.721   5.857   5.551 -0.4227 -0.6700  0.7931
 5419SOL    HW216943   4.798   5.743   5.488 -0.2977  0.6809 -1.6626
 5420SOL     OW16944   3.630   5.134   4.396  0.3729 -0.2237 -0.0199
 5420SOL    HW116945   3.549   5.087   4.376  0.5570  0.1110 -1.6508
 5420SOL    HW216946   3.643   5.192   4.321  2.2318 -0.3959  0.1415
 5421SOL     OW16947   2.267   6.569   7.652  0.3461  0.6016 -0.2803
 5421SOL    HW116948   2.354   6.599   7.628  0.4398  0.1670 -0.4979
 5421SOL    HW216949   2.245   6.504   7.585  0.1883  0.1195  0.2354
 5422SOL     OW16950   6.590   6.202   7.620 -0.5466  0.2370 -0.0164
 5422SOL    HW116951   6.603   6.114   7.585  0.7947  0.3073  0.2168
 5422SOL    HW216952   6.634   6.259   7.556 -1.0359  0.6898  0.0525
 5423SOL     OW16953   4.858   3.634   0.499  0.3539  0.3304 -0.1191
 5423SOL    HW116954   4.783   3.615   0.555 -0.3470  1.0437 -0.7789
 5423SOL    HW216955   4.862   3.730   0.497  0.1764  0.3183 -1.5260
 5424SOL     OW16956   5.976   7.735   0.276 -0.4357  0.5602 -0.1131
 5424SOL    HW116957   5.975   7.738   0.181 -1.8616  0.8366 -0.1124
 5424SOL    HW216958   6.069   7.724   0.299 -0.1051  0.2319 -1.5221
 5425SOL     OW16959   7.411   7.501   6.823 -0.8723 -0.2942  0.5517
 5425SOL    HW116960   7.342   7.519   6.759 -0.8017  1.8376  0.9880
 5425SOL    HW216961   7.468   7.577   6.819  1.1623 -1.7373  0.6472
 5426SOL     OW16962   4.045   2.265   6.941 -0.1529 -0.0589 -0.9659
 5426SOL    HW116963   4.006   2.187   6.981 -1.1273  0.4988 -0.8067
 5426SOL    HW216964   4.063   2.323   7.015  1.8415 -0.6473 -0.9285
 5427SOL     OW16965   3.581   6.039   5.579  0.3062 -0.4314 -0.5118
 5427SOL    HW116966   3.671   6.007   5.584  0.5727  0.3594 -0.0535
 5427SOL    HW216967   3.590   6.135   5.576 -0.5599 -0.2712  1.0524
 5428SOL     OW16968   4.879   0.525   1.317  0.0128  0.1784 -0.3754
 5428SOL    HW116969   4.835   0.609   1.312 -1.3060 -0.5488 -2.6122
 5428SOL    HW216970   4.836   0.479   1.389 -1.1558  0.4458 -0.8812
 5429SOL     OW16971   0.208   5.085   0.789  0.6323  0.5715 -0.0667
 5429SOL    HW116972   0.274   5.109   0.724  1.1583 -1.5775 -0.4333
 5429SOL    HW216973   0.125   5.109   0.750  1.0110  0.2371 -1.1127
 5430SOL     OW16974   1.895   6.753   7.448 -0.2089  0.3359  0.5087
 5430SOL    HW116975   1.811   6.763   7.404 -0.3551  0.0473  0.7175
 5430SOL    HW216976   1.902   6.829   7.504  0.0754  0.8192 -0.1655
 5431SOL     OW16977   6.385   4.713   5.991  0.3331 -0.0811  0.0224
 5431SOL    HW116978   6.427   4.798   5.998 -0.7151  0.4035  0.5170
 5431SOL    HW216979   6.297   4.726   6.024  0.6688 -1.7507  1.8085
 5432SOL     OW16980   5.006   3.855   1.556 -0.4486  0.6167 -0.2828
 5432SOL    HW116981   5.023   3.814   1.471  3.7233  0.2112  0.5569
 5432SOL    HW216982   5.013   3.949   1.538 -0.1713  0.5586 -0.4883
 5433SOL     OW16983   3.774   3.659   6.971 -0.6493 -0.1127  0.0746
 5433SOL    HW116984   3.868   3.653   6.984 -0.8274  0.3404  1.8044
 5433SOL    HW216985   3.757   3.606   6.893  1.1214  0.5080 -0.7850
 5434SOL     OW16986   6.413   6.210   3.110 -0.5985  0.0489  0.2426
 5434SOL    HW116987   6.458   6.138   3.065 -1.0685  1.2337 -2.3062
 5434SOL    HW216988   6.472   6.234   3.182  1.2682 -0.5590 -1.0085
 5435SOL     OW16989   2.238   1.037   2.491 -0.0647  0.6017 -0.1703
 5435SOL    HW116990   2.280   1.004   2.571 -0.9288  0.1580  0.1062
 5435SOL    HW216991   2.160   0.983   2.480  0.6521 -0.1384 -1.9975
 5436SOL     OW16992   5.329   4.718   6.472 -0.4013 -0.5475 -0.1423
 5436SOL    HW116993   5.297   4.805   6.497  1.1408  0.6034 -1.9684
 5436SOL    HW216994   5.397   4.699   6.536 -1.3805 -0.8665  0.8345
 5437SOL     OW16995   2.083   5.668   6.827 -0.4159  0.3287  0.3015
 5437SOL    HW116996   2.112   5.715   6.906  0.0483  0.4131  0.0859
 5437SOL    HW216997   2.161   5.663   6.772 -0.9824  1.2581 -0.6457
 5438SOL     OW16998   1.889   2.017   0.622 -0.5683  0.7864  0.4119
 5438SOL    HW116999   1.971   2.065   0.611  0.0401 -0.0679  1.1060
 5438SOL    HW217000   1.899   1.971   0.706 -0.8573 -1.0613 -0.5207
 5439SOL     OW17001   5.843   1.651   2.545  0.2496 -0.3664 -0.0538
 5439SOL    HW117002   5.756   1.612   2.550 -0.0464  0.4154  1.2296
 5439SOL    HW217003   5.899   1.579   2.514 -0.6812 -1.1220 -0.0360
 5440SOL     OW17004   0.456   6.286   0.976  0.3768 -0.6826 -0.3905
 5440SOL    HW117005   0.543   6.267   1.011  0.5253 -0.4344 -0.6200
 5440SOL    HW217006   0.470   6.361   0.918 -0.6021  1.8252  2.3774
 5441SOL     OW17007   1.391   1.450   4.633  0.3498 -0.0026  0.0168
 5441SOL    HW117008   1.353   1.380   4.580 -1.8028  1.5355 -0.6141
 5441SOL    HW217009   1.447   1.498   4.572 -0.2646  0.3697 -0.2632
 5442SOL     OW17010   2.724   6.338   0.038 -0.1448 -0.0346  0.1148
 5442SOL    HW117011   2.779   6.407   0.001 -2.1129  1.2965 -0.5332
 5442SOL    HW217012   2.673   6.306  -0.036  1.3922 -2.9711  0.2015
 5443SOL     OW17013   7.266   6.373   0.685 -0.4630 -0.4341  0.0468
 5443SOL    HW117014   7.192   6.334   0.638 -0.5216 -0.3665  0.0813
 5443SOL    HW217015   7.308   6.300   0.729  0.3949 -0.7046 -1.1785
 5444SOL     OW17016   7.040   5.849   5.995  0.0112  0.4624  0.2672
 5444SOL    HW117017   7.060   5.901   6.074 -0.7971  2.1243 -0.5583
 5444SOL    HW217018   7.086   5.767   6.008 -0.1982  0.6380  2.5387
 5445SOL     OW17019   0.065   5.965   3.445  0.0131 -0.0718  0.2631
 5445SOL    HW117020   0.063   6.034   3.378  1.0416 -0.6434 -0.3890
 5445SOL    HW217021  -0.021   5.925   3.441  0.0889 -0.1698 -0.8306
 5446SOL     OW17022   2.242   1.936   6.179  0.1647 -0.5526  0.5476
 5446SOL    HW117023   2.157   1.974   6.202  1.2994  1.9825  0.9991
 5446SOL    HW217024   2.254   1.958   6.086  0.3210 -0.8857  0.4894
 5447SOL     OW17025   5.794   0.344   0.795 -0.2009  0.6815 -0.4260
 5447SOL    HW117026   5.732   0.324   0.725  0.0155 -0.0492 -0.4149
 5447SOL    HW217027   5.742   0.338   0.875 -0.5438  1.9091 -0.5342
 5448SOL     OW17028   3.847   5.431   7.519  0.0054  0.3111  0.0635
 5448SOL    HW117029   3.812   5.519   7.532  0.3337  0.5947 -0.8524
 5448SOL    HW217030   3.876   5.403   7.605 -0.4654  0.9438  0.4365
 5449SOL     OW17031   5.651   5.882   0.423  0.1326 -0.1858 -0.0208
 5449SOL    HW117032   5.710   5.809   0.403 -1.0005 -1.2803  0.4678
 5449SOL    HW217033   5.636   5.875   0.517 -1.8422 -0.8164 -0.3381
 5450SOL     OW17034   3.507   7.336   3.172 -0.2992 -0.1708 -0.5106
 5450SOL    HW117035   3.492   7.412   3.117 -0.8146 -0.6966 -1.1110
 5450SOL    HW217036   3.438   7.274   3.148  0.3081 -0.9620 -0.2731
 5451SOL     OW17037   6.975   4.857   3.727 -0.7248 -0.0466  0.5911
 5451SOL    HW117038   6.984   4.950   3.707 -1.6506  0.2651  1.5794
 5451SOL    HW217039   7.034   4.814   3.664  0.3358  1.2416  0.6562
 5452SOL     OW17040   6.040   3.931   4.573  0.0756  0.3094  0.9047
 5452SOL    HW117041   6.001   3.879   4.644  0.2455 -0.3785  0.5010
 5452SOL    HW217042   6.029   4.022   4.601 -0.3090  0.0604  1.5795
 5453SOL     OW17043   3.200   4.618   0.418 -0.0069 -0.0480  0.6846
 5453SOL    HW117044   3.210   4.713   0.413 -1.7752  0.1314 -0.2908
 5453SOL    HW217045   3.221   4.596   0.508 -0.8851  1.4589  1.2808
 5454SOL     OW17046   0.544   4.852   0.465  0.5512 -0.2458  0.2169
 5454SOL    HW117047   0.583   4.889   0.544  0.4617  0.9948 -0.2923
 5454SOL    HW217048   0.478   4.915   0.439 -1.3962 -1.9851  0.6790
 5455SOL     OW17049   2.472   6.854   3.915  0.2510  0.4608  0.7318
 5455SOL    HW117050   2.481   6.882   3.824  0.3895  0.8179  0.8541
 5455SOL    HW217051   2.378   6.857   3.933 -0.0361 -1.6982 -0.0519
 5456SOL     OW17052   3.961   4.434   0.853 -0.2226  0.4908 -0.3600
 5456SOL    HW117053   3.947   4.452   0.946 -1.2134 -0.8663 -0.2140
 5456SOL    HW217054   3.931   4.344   0.842  0.6002  0.3790 -1.8507
 5457SOL     OW17055   1.295   4.928   7.280 -0.2558 -0.6810 -0.4777
 5457SOL    HW117056   1.379   4.972   7.290 -0.1728 -0.5932 -1.4299
 5457SOL    HW217057   1.236   4.997   7.247 -0.3873 -1.0266 -0.9765
 5458SOL     OW17058   5.314   0.423   5.719  0.2490  0.1382  0.5822
 5458SOL    HW117059   5.267   0.506   5.729 -1.7590 -0.5662 -1.9435
 5458SOL    HW217060   5.253   0.367   5.672  1.7766 -2.6215  1.6699
 5459SOL     OW17061   3.053   1.190   0.709 -0.3391 -0.5547 -0.3153
 5459SOL    HW117062   2.958   1.182   0.697 -0.4378  2.3580 -2.4904
 5459SOL    HW217063   3.089   1.172   0.622  0.6758  2.4233 -0.6054
 5460SOL     OW17064   0.372   3.197   0.107  0.8542 -0.4474 -0.2369
 5460SOL    HW117065   0.379   3.160   0.195  0.4473 -0.6789 -0.3001
 5460SOL    HW217066   0.381   3.123   0.048 -1.5498 -0.7467 -0.3387
 5461SOL     OW17067   1.610   5.601   5.675 -0.0922  0.0714  0.6465
 5461SOL    HW117068   1.645   5.634   5.592 -2.1977  1.6632  0.3021
 5461SOL    HW217069   1.534   5.548   5.649 -2.1103  2.3745  1.5537
 5462SOL     OW17070   5.455   5.307   7.646 -0.0062  0.3459  0.4444
 5462SOL    HW117071   5.516   5.328   7.576 -1.3569  1.1356 -0.5670
 5462SOL    HW217072   5.417   5.392   7.669 -1.8853 -0.2906 -0.1209
 5463SOL     OW17073   7.286   2.128   2.585  0.0607  0.1537  0.3436
 5463SOL    HW117074   7.198   2.127   2.549 -0.1352 -0.1302  0.8114
 5463SOL    HW217075   7.328   2.049   2.551 -0.1122 -0.0951  0.6946
 5464SOL     OW17076   1.191   4.973   3.641 -0.4665  0.6056  0.3520
 5464SOL    HW117077   1.111   5.005   3.600 -0.4135  2.5112  1.6158
 5464SOL    HW217078   1.224   5.048   3.690  2.7008  0.2068 -0.9851
 5465SOL     OW17079   7.475   0.961   0.081 -0.0151  0.2395  0.2941
 5465SOL    HW117080   7.527   0.915   0.015 -0.4500  3.3487 -2.4917
 5465SOL    HW217081   7.539   0.990   0.146  1.1528  0.6742 -1.0124
 5466SOL     OW17082   3.504   0.265   4.390 -0.1480 -0.5322  0.1749
 5466SOL    HW117083   3.558   0.220   4.456  1.0318  0.5855  0.0194
 5466SOL    HW217084   3.545   0.242   4.306  0.0674  0.2965  0.0489
 5467SOL     OW17085   1.909   6.795   6.509 -0.1646 -0.0561 -0.8207
 5467SOL    HW117086   1.938   6.707   6.533  0.0141 -0.2388 -1.6523
 5467SOL    HW217087   1.989   6.840   6.482 -0.3548  0.1306 -1.0816
 5468SOL     OW17088   3.873   2.459   7.150 -0.2139  0.4456  0.4713
 5468SOL    HW117089   3.817   2.508   7.090 -0.5932 -0.7435 -0.1891
 5468SOL    HW217090   3.828   2.464   7.234 -0.0801  1.4777  0.4922
 5469SOL     OW17091   1.665   2.466   0.946  0.3733 -0.4860 -0.0982
 5469SOL    HW117092   1.752   2.478   0.985  0.0109 -2.1928  1.3704
 5469SOL    HW217093   1.604   2.478   1.019 -0.7147  1.3660 -1.2512
 5470SOL     OW17094   3.191   3.828   4.021  0.1568  0.0266 -0.3702
 5470SOL    HW117095   3.153   3.906   3.981  1.7347  1.0160 -0.0346
 5470SOL    HW217096   3.139   3.814   4.101 -1.5266 -0.6073 -1.5079
 5471SOL     OW17097   3.577   5.438   6.866 -0.4790 -0.0975 -0.2601
 5471SOL    HW117098   3.548   5.383   6.793  0.0048 -1.9845  0.9042
 5471SOL    HW217099   3.662   5.403   6.891 -0.1372  1.2028  0.5496
 5472SOL     OW17100   3.699   2.962   5.242 -0.4832 -0.2055 -0.4176
 5472SOL    HW117101   3.751   2.884   5.259  1.5317  1.4877  2.2076
 5472SOL    HW217102   3.712   2.981   5.149 -0.2142 -2.3714 -0.8693
 5473SOL     OW17103   6.462   0.103   2.157  0.2447 -0.0185  0.0256
 5473SOL    HW117104   6.549   0.106   2.198  0.3403  2.4470 -0.2364
 5473SOL    HW217105   6.402   0.088   2.230  0.7838 -0.6437  0.3594
 5474SOL     OW17106   0.611   5.190   2.565 -0.0038  0.0373 -0.1179
 5474SOL    HW117107   0.598   5.095   2.556  0.1201  0.1101 -1.2680
 5474SOL    HW217108   0.540   5.229   2.515  1.2704  0.4963 -1.6753
 5475SOL     OW17109   6.661   6.427   0.060  0.0905  0.1851 -0.1692
 5475SOL    HW117110   6.745   6.404   0.100  0.9281  0.4636 -1.7054
 5475SOL    HW217111   6.636   6.349   0.010  1.5692  1.4675 -3.1300
 5476SOL     OW17112   7.356   4.604   6.222  0.2286  0.1066 -0.0057
 5476SOL    HW117113   7.450   4.605   6.243  0.3515 -1.6618 -0.3490
 5476SOL    HW217114   7.317   4.550   6.291 -0.3824 -0.0564 -0.4753
 5477SOL     OW17115   4.833   1.628   6.760 -0.2592 -0.2373  0.3070
 5477SOL    HW117116   4.921   1.666   6.765 -0.3780  0.1107 -0.1441
 5477SOL    HW217117   4.840   1.561   6.692 -0.4285  0.0308  0.0252
 5478SOL     OW17118   4.490   5.656   2.279 -0.4479 -0.2178 -0.5064
 5478SOL    HW117119   4.471   5.599   2.354  0.3322 -2.4773 -1.9117
 5478SOL    HW217120   4.547   5.603   2.223  1.4365  2.4650 -1.3333
 5479SOL     OW17121   2.103   2.199   2.403 -0.1743 -0.3127  0.7181
 5479SOL    HW117122   2.068   2.283   2.372 -2.5093 -1.9151 -1.3649
 5479SOL    HW217123   2.183   2.186   2.352  0.3957  0.7858  1.3125
 5480SOL     OW17124   4.564   2.346   2.928 -0.4381  0.0257  0.2496
 5480SOL    HW117125   4.628   2.412   2.901 -0.6302  1.0960  2.2172
 5480SOL    HW217126   4.566   2.281   2.858  1.5522  0.8803 -0.5753
 5481SOL     OW17127   1.352   0.062   4.964  0.6513 -0.1012  0.0842
 5481SOL    HW117128   1.384   0.022   5.045  1.6616 -1.7882 -1.0751
 5481SOL    HW217129   1.261   0.084   4.982  0.6196 -1.1985  1.4205
 5482SOL     OW17130   1.805   4.695   1.626  0.3535 -0.0617 -0.3409
 5482SOL    HW117131   1.757   4.632   1.680 -1.8575  1.4258 -0.4376
 5482SOL    HW217132   1.897   4.674   1.640 -0.1228 -0.2625  3.3689
 5483SOL     OW17133   5.343   4.875   1.100 -0.4368  0.2046  0.2752
 5483SOL    HW117134   5.311   4.951   1.051 -0.7557  0.3832  0.7466
 5483SOL    HW217135   5.276   4.860   1.166 -0.8487 -1.0975 -0.4227
 5484SOL     OW17136   5.505   2.915   4.409  0.3439 -0.1959 -0.2924
 5484SOL    HW117137   5.508   2.831   4.456 -0.0124  0.4121  0.8595
 5484SOL    HW217138   5.538   2.894   4.322  3.3039 -0.9450  0.8708
 5485SOL     OW17139   6.593   0.903   0.126  0.4127  0.1739 -0.2032
 5485SOL    HW117140   6.576   0.987   0.084 -0.9255  0.9323  1.7391
 5485SOL    HW217141   6.684   0.910   0.157  1.0360  0.0262 -1.8559
 5486SOL     OW17142   4.397   1.740   5.890 -0.3766  0.2520 -0.0033
 5486SOL    HW117143   4.302   1.752   5.884 -0.8259 -2.4854  0.3414
 5486SOL    HW217144   4.412   1.711   5.980  0.6082 -0.4407 -0.3723
 5487SOL     OW17145   0.356   5.069   0.377  0.4142  0.4497  0.0929
 5487SOL    HW117146   0.295   5.044   0.446 -1.2386  2.7292 -0.3886
 5487SOL    HW217147   0.318   5.032   0.297  2.2975 -2.1482  0.2758
 5488SOL     OW17148   1.218   6.522   6.562  0.2054 -0.0722  0.8183
 5488SOL    HW117149   1.147   6.478   6.609 -0.0431 -0.7326 -0.1344
 5488SOL    HW217150   1.199   6.506   6.469 -0.5366  3.0258  0.3262
 5489SOL     OW17151   6.097   3.574   1.116 -0.2434 -0.2443  0.0537
 5489SOL    HW117152   6.069   3.496   1.164 -2.0767  0.4829  0.2487
 5489SOL    HW217153   6.061   3.561   1.028 -1.3292  0.7391  0.3242
 5490SOL     OW17154   6.458   3.333   4.772 -0.8274  0.2991  0.2651
 5490SOL    HW117155   6.399   3.302   4.703 -0.3224  0.8155 -0.4072
 5490SOL    HW217156   6.421   3.416   4.801 -0.7131  0.3662  0.2159
 5491SOL     OW17157   0.849   2.023   2.250  0.3318  0.3100 -0.0254
 5491SOL    HW117158   0.914   2.093   2.255  0.0156  0.6922 -0.9644
 5491SOL    HW217159   0.896   1.945   2.277  0.4164  1.0207  2.0736
 5492SOL     OW17160   5.027   0.823   2.297 -0.0815 -0.6330  0.0605
 5492SOL    HW117161   5.087   0.863   2.233 -0.4867  0.2007  0.1931
 5492SOL    HW217162   4.958   0.888   2.309  0.2347 -0.5686  1.7087
 5493SOL     OW17163   5.548   2.129   4.475  0.2261  0.1128  0.9711
 5493SOL    HW117164   5.507   2.058   4.524  1.6471 -0.3570  1.5084
 5493SOL    HW217165   5.637   2.133   4.508 -0.0657  2.8092  1.6978
 5494SOL     OW17166   3.012   0.482   3.089 -0.5992 -0.4975  1.0250
 5494SOL    HW117167   3.056   0.427   3.024  0.2383 -0.5110  1.5896
 5494SOL    HW217168   2.989   0.422   3.160 -3.1967 -0.8661  0.0005
 5495SOL     OW17169   4.527   0.612   7.390  0.0726  0.2198  0.0987
 5495SOL    HW117170   4.542   0.528   7.347 -0.6439  0.7462 -1.2437
 5495SOL    HW217171   4.613   0.655   7.390  0.7358 -0.9955  1.9690
 5496SOL     OW17172   3.979   4.618   5.650  0.3098 -0.2450  0.5175
 5496SOL    HW117173   3.942   4.567   5.578 -0.4600  2.1927 -0.9010
 5496SOL    HW217174   4.073   4.622   5.631  0.0364  0.8188 -0.6630
 5497SOL     OW17175   7.279   5.122   0.947 -0.9437  0.0418  0.5045
 5497SOL    HW117176   7.229   5.060   1.000 -0.8400 -1.1645 -0.7656
 5497SOL    HW217177   7.214   5.187   0.919 -1.4373 -0.5190  0.3334
 5498SOL     OW17178   1.442   1.221   2.729  0.3874  0.4772  0.5082
 5498SOL    HW117179   1.398   1.142   2.697 -3.0949  2.2103  0.5463
 5498SOL    HW217180   1.412   1.230   2.819  0.5243  1.9847  0.4172
 5499SOL     OW17181   4.225   7.375   6.692  0.8013 -0.2181  0.2491
 5499SOL    HW117182   4.247   7.289   6.729  2.8844  0.6869  1.2900
 5499SOL    HW217183   4.190   7.424   6.767  0.0025 -0.0124 -0.2482
 5500SOL     OW17184   4.846   3.912   5.129 -0.6699 -0.3459 -0.6695
 5500SOL    HW117185   4.922   3.966   5.148 -1.4723 -0.1782  2.7268
 5500SOL    HW217186   4.875   3.853   5.059  1.9251  0.9321 -0.7872
 5501SOL     OW17187   0.837   5.336   1.776 -0.0419  0.3578 -0.2247
 5501SOL    HW117188   0.746   5.346   1.749  0.0324  0.7664 -0.3258
 5501SOL    HW217189   0.877   5.286   1.704 -0.3829 -0.5914  0.2288
 5502SOL     OW17190   1.248   4.226   2.175  0.4424 -0.1690 -0.3470
 5502SOL    HW117191   1.155   4.204   2.169  0.1007  1.2431 -0.6130
 5502SOL    HW217192   1.284   4.160   2.234 -1.3388  1.0031  2.2626
 5503SOL     OW17193   7.125   7.229   6.451  0.0693  0.1769  0.1264
 5503SOL    HW117194   7.145   7.188   6.368  1.3812 -1.0309  0.9937
 5503SOL    HW217195   7.078   7.162   6.501 -2.2194  1.4380 -0.1950
 5504SOL     OW17196   4.023   5.746   3.824  0.0557  0.3790 -0.0023
 5504SOL    HW117197   4.002   5.838   3.841 -1.4398 -0.0953  0.9070
 5504SOL    HW217198   4.078   5.748   3.746  0.5768  2.0809  0.3619
 5505SOL     OW17199   3.352   0.598   7.249  0.0444 -0.1299  0.3205
 5505SOL    HW117200   3.428   0.654   7.265  0.4463 -1.0736  1.8973
 5505SOL    HW217201   3.321   0.574   7.336 -2.2172  0.3953 -0.2640
 5506SOL     OW17202   7.200   3.218   3.357 -0.3260 -0.0950 -0.3725
 5506SOL    HW117203   7.187   3.127   3.330  2.3167  0.0231 -2.4241
 5506SOL    HW217204   7.279   3.216   3.410  0.8554  1.1931 -1.9943
 5507SOL     OW17205   4.216   3.870   5.277  0.3985  0.5133 -0.0660
 5507SOL    HW117206   4.152   3.799   5.279  3.0903 -2.1362 -0.4730
 5507SOL    HW217207   4.193   3.921   5.199 -0.7461 -0.8436 -0.6580
 5508SOL     OW17208   2.127   3.983   4.287  1.2408  0.3784  0.0708
 5508SOL    HW117209   2.183   3.911   4.314 -0.1234 -0.7458  0.0237
 5508SOL    HW217210   2.057   3.986   4.353  0.4311  0.6270 -0.7678
 5509SOL     OW17211   4.418   6.842   5.464  0.0943  0.0514 -0.0778
 5509SOL    HW117212   4.433   6.924   5.418 -2.5102  0.0666 -1.0341
 5509SOL    HW217213   4.421   6.866   5.557  2.5787  0.5313 -0.2029
 5510SOL     OW17214   0.374   1.087   3.033  0.1369  0.2005 -0.2632
 5510SOL    HW117215   0.431   1.024   3.076  0.2439  1.1666  1.0519
 5510SOL    HW217216   0.293   1.039   3.016 -0.3877  0.0958  2.2001
 5511SOL     OW17217   3.411   0.336   1.211 -0.3460 -0.0865  0.3275
 5511SOL    HW117218   3.424   0.253   1.256  0.7347 -0.7057 -1.0352
 5511SOL    HW217219   3.316   0.349   1.213 -0.5206 -1.2504  0.7399
 5512SOL     OW17220   5.669   6.342   3.843  0.2322 -0.0522 -0.1410
 5512SOL    HW117221   5.672   6.399   3.767 -0.1518 -2.2034 -1.8815
 5512SOL    HW217222   5.580   6.349   3.876  0.4041  0.8953  0.1570
 5513SOL     OW17223   5.333   3.830   1.598 -0.6598  0.1213 -0.3865
 5513SOL    HW117224   5.253   3.802   1.555 -1.1817  0.2463  0.4930
 5513SOL    HW217225   5.341   3.923   1.575 -0.2880 -0.0943 -1.1881
 5514SOL     OW17226   6.734   6.703   3.367 -0.1801 -0.0513  0.0971
 5514SOL    HW117227   6.762   6.727   3.279  1.5034  0.9233  0.8492
 5514SOL    HW217228   6.685   6.778   3.399  0.3893  0.1793  0.4607
 5515SOL     OW17229   2.053   6.482   7.207  0.2813 -0.5164  1.0492
 5515SOL    HW117230   2.119   6.530   7.256 -0.8727  1.5476  0.7302
 5515SOL    HW217231   2.002   6.436   7.274  2.3722 -2.7503  1.2502
 5516SOL     OW17232   7.730   0.222   5.268  0.2431 -0.8419  0.1030
 5516SOL    HW117233   7.774   0.217   5.183 -1.2875 -0.2293 -0.7674
 5516SOL    HW217234   7.657   0.160   5.261 -1.5315  1.1528 -0.0820
 5517SOL     OW17235   4.726   2.221   4.630  0.2730 -0.2421 -0.2877
 5517SOL    HW117236   4.675   2.147   4.664  0.4704  0.0749  0.7251
 5517SOL    HW217237   4.690   2.297   4.675  1.3120  0.0435  0.0804
 5518SOL     OW17238   0.179   2.752   1.221 -0.1449 -0.0173 -0.1600
 5518SOL    HW117239   0.228   2.764   1.302  1.3652 -0.5051 -0.9605
 5518SOL    HW217240   0.220   2.812   1.159 -0.1103 -0.9141 -1.0367
 5519SOL     OW17241   7.714   5.418   4.841  0.0185 -0.3603 -0.0375
 5519SOL    HW117242   7.664   5.423   4.759 -1.0771 -1.6554  0.5174
 5519SOL    HW217243   7.778   5.349   4.826  2.6378  2.1444 -1.2032
 5520SOL     OW17244   0.677   7.362   2.123 -0.0419 -0.4180 -0.3111
 5520SOL    HW117245   0.688   7.267   2.120 -1.2516 -0.5876 -0.0735
 5520SOL    HW217246   0.599   7.379   2.070  1.2779  0.6730 -2.0184
 5521SOL     OW17247   1.065   2.545   2.693 -0.3117  1.2167 -0.2039
 5521SOL    HW117248   1.049   2.634   2.663  0.5233  1.5468  0.2951
 5521SOL    HW217249   1.066   2.552   2.789 -2.0748  0.3410 -0.0821
 5522SOL     OW17250   3.045   1.552   6.639 -0.0475 -0.2780 -0.2345
 5522SOL    HW117251   3.130   1.594   6.639 -1.2718  2.4231 -0.8861
 5522SOL    HW217252   3.024   1.538   6.732  0.3503  0.7203  0.0127
 5523SOL     OW17253   2.167   1.110   5.185 -0.0477 -0.1926 -0.4180
 5523SOL    HW117254   2.080   1.132   5.218 -0.6465 -2.8095 -0.0015
 5523SOL    HW217255   2.161   1.017   5.161  2.1422  0.0049 -2.0654
 5524SOL     OW17256   0.992   5.009   4.405 -0.8558  0.0559 -0.1928
 5524SOL    HW117257   0.898   4.999   4.417 -0.6195 -0.1779  1.7910
 5524SOL    HW217258   1.019   4.930   4.358 -1.3965 -0.8055  0.8989
 5525SOL     OW17259   1.225   5.522   4.783  0.1833  0.8036 -0.2799
 5525SOL    HW117260   1.191   5.557   4.701 -0.0031  0.9156 -0.1558
 5525SOL    HW217261   1.316   5.552   4.786  0.4344  0.1317 -0.8242
 5526SOL     OW17262   7.344   2.761   5.834  0.4900  0.3759 -0.6774
 5526SOL    HW117263   7.368   2.687   5.890  0.4915  1.9791  1.6158
 5526SOL    HW217264   7.319   2.722   5.751 -0.2094 -2.2495  0.6607
 5527SOL     OW17265   0.618   7.755   2.972 -0.2356 -0.3305 -0.3384
 5527SOL    HW117266   0.536   7.799   2.993 -0.8913 -0.9650 -1.4744
 5527SOL    HW217267   0.596   7.697   2.899  0.6795 -2.2627  0.8532
 5528SOL     OW17268   4.656   6.417   2.052 -0.3190  0.0433  0.4967
 5528SOL    HW117269   4.584   6.480   2.050 -0.0692  0.3367 -2.2604
 5528SOL    HW217270   4.699   6.426   1.967  3.1033 -0.0103  2.0483
 5529SOL     OW17271   3.104   6.836   1.535  0.3266  0.5845 -0.2493
 5529SOL    HW117272   3.182   6.851   1.590  1.0288 -0.8108 -0.8136
 5529SOL    HW217273   3.130   6.765   1.476 -1.0772  0.7357 -1.0840
 5530SOL     OW17274   3.572   1.244   5.727  0.0653  0.5529  0.3199
 5530SOL    HW117275   3.646   1.224   5.784  1.6431 -1.2296 -2.1383
 5530SOL    HW217276   3.514   1.169   5.736  0.4989  0.0861 -0.6132
 5531SOL     OW17277   1.533   4.048   5.991 -0.6213 -0.0918 -0.5103
 5531SOL    HW117278   1.531   4.143   5.976 -0.2115  0.2241  1.2080
 5531SOL    HW217279   1.626   4.028   6.004 -0.9169 -0.2406  1.7474
 5532SOL     OW17280   4.336   5.470   3.592 -0.2043 -0.3356 -0.1683
 5532SOL    HW117281   4.286   5.438   3.517 -2.0757  3.2120 -0.6552
 5532SOL    HW217282   4.425   5.481   3.559 -1.2038  2.2063 -2.3893
 5533SOL     OW17283   7.213   1.366   6.504  0.5267  0.3235  0.1591
 5533SOL    HW117284   7.187   1.280   6.470 -1.6389  0.8126  0.4922
 5533SOL    HW217285   7.139   1.424   6.485  1.2424  1.7310  1.4391
 5534SOL     OW17286   2.850   3.276   1.191  0.1194 -0.2537  0.4435
 5534SOL    HW117287   2.878   3.270   1.282 -0.1697 -3.4541  0.4357
 5534SOL    HW217288   2.801   3.195   1.175 -1.8929  1.2845 -1.9089
 5535SOL     OW17289   5.227   5.709   2.764  0.1920 -0.1426 -0.2723
 5535SOL    HW117290   5.261   5.702   2.854  1.1796  0.8373 -0.5473
 5535SOL    HW217291   5.201   5.620   2.741  1.6634 -0.7564  0.3247
 5536SOL     OW17292   3.844   4.269   7.141 -0.2484 -0.5308 -0.2154
 5536SOL    HW117293   3.853   4.338   7.075  1.3537 -0.3713  0.1317
 5536SOL    HW217294   3.824   4.317   7.222 -0.3047 -0.5680 -0.2077
 5537SOL     OW17295   0.030   4.325   1.066  0.2645 -0.3206 -0.3905
 5537SOL    HW117296  -0.008   4.309   1.152  0.8125 -0.7252 -0.2192
 5537SOL    HW217297  -0.044   4.353   1.012 -0.0891 -0.1097  0.1955
 5538SOL     OW17298   4.197   3.176   4.493 -0.5299  0.3072  0.0125
 5538SOL    HW117299   4.269   3.132   4.538 -0.5768  1.2617  1.0531
 5538SOL    HW217300   4.198   3.139   4.405  1.6099  0.7192 -0.1877
 5539SOL     OW17301   7.763   0.720   5.971 -0.0238  0.1910  0.1713
 5539SOL    HW117302   7.745   0.652   5.907 -1.3353 -0.4636  1.1803
 5539SOL    HW217303   7.858   0.724   5.977  0.0815 -0.8934 -0.5738
 5540SOL     OW17304   0.373   3.939   3.336  0.2334  0.0403  0.6119
 5540SOL    HW117305   0.354   3.977   3.251  0.8583  0.9788  0.8808
 5540SOL    HW217306   0.320   3.990   3.398  1.1996  0.6216  0.9918
 5541SOL     OW17307   6.286   0.772   5.977 -0.0656  0.2515  0.4428
 5541SOL    HW117308   6.221   0.707   6.002 -0.6304  0.6367  0.0141
 5541SOL    HW217309   6.304   0.821   6.057 -0.8792  0.6305  0.4045
 5542SOL     OW17310   4.364   2.843   3.224  0.5565  0.0035 -0.7415
 5542SOL    HW117311   4.324   2.925   3.194  1.4125  1.1939  1.1353
 5542SOL    HW217312   4.447   2.839   3.178 -0.4914 -1.0864 -2.6266
 5543SOL     OW17313   4.410   4.855   6.226  0.1405  0.3466  0.3553
 5543SOL    HW117314   4.386   4.852   6.134 -1.7914 -1.2058  0.8414
 5543SOL    HW217315   4.355   4.925   6.263 -1.5060 -1.1730  0.8916
 5544SOL     OW17316   2.411   5.920   7.646 -0.2620  0.0854  0.2082
 5544SOL    HW117317   2.388   5.828   7.633  1.7132 -0.5261  0.6727
 5544SOL    HW217318   2.490   5.917   7.700 -1.5457  2.1377  2.4379
 5545SOL     OW17319   3.758   4.633   4.089  1.0276  0.2341 -0.5883
 5545SOL    HW117320   3.821   4.564   4.108 -2.0467 -3.4036 -2.3913
 5545SOL    HW217321   3.770   4.652   3.996  1.5882  1.9624 -0.1952
 5546SOL     OW17322   2.671   0.853   0.283 -0.1662  0.3602  0.3965
 5546SOL    HW117323   2.705   0.787   0.224 -0.2941 -0.0636  0.7912
 5546SOL    HW217324   2.739   0.862   0.351 -1.0992 -0.9617  1.5468
 5547SOL     OW17325   3.499   5.626   0.835  0.2818 -0.2939  0.1010
 5547SOL    HW117326   3.460   5.543   0.807  1.1358 -0.8685  0.5924
 5547SOL    HW217327   3.432   5.692   0.814 -0.7866 -1.1999  0.5459
 5548SOL     OW17328   0.451   3.890   2.900  0.3286 -0.2816  0.2329
 5548SOL    HW117329   0.461   3.912   2.807  0.4695 -0.5654  0.1824
 5548SOL    HW217330   0.540   3.882   2.933  0.3423  2.0642  0.9306
 5549SOL     OW17331   5.604   7.587   1.309  0.0289  0.5027  0.3019
 5549SOL    HW117332   5.547   7.539   1.370 -0.0296  0.6716  0.3827
 5549SOL    HW217333   5.578   7.556   1.222  0.5959 -0.2579  0.3997
 5550SOL     OW17334   3.294   6.008   3.692 -0.0691  0.0525  0.0777
 5550SOL    HW117335   3.254   6.091   3.665  0.7393  0.3812 -0.1496
 5550SOL    HW217336   3.384   6.013   3.658 -0.3364 -1.3943 -0.8848
 5551SOL     OW17337   7.304   2.782   4.579 -0.1303  0.2240  0.6859
 5551SOL    HW117338   7.368   2.849   4.555 -0.3630 -0.0572 -0.7885
 5551SOL    HW217339   7.241   2.828   4.634 -0.8922  1.5172 -1.1726
 5552SOL     OW17340   0.943   0.570   2.232  0.3408 -0.5574 -0.2561
 5552SOL    HW117341   1.002   0.588   2.306  0.6213 -0.4541 -0.5010
 5552SOL    HW217342   0.977   0.624   2.161 -0.5091  0.0901 -0.1853
 5553SOL     OW17343   3.671   5.797   0.634  0.7837  0.2356 -0.1877
 5553SOL    HW117344   3.750   5.773   0.585  0.2787 -0.6804 -0.5580
 5553SOL    HW217345   3.648   5.718   0.683  0.9423  0.9500  1.0893
 5554SOL     OW17346   6.125   3.067   2.981  0.5685  0.8113 -0.2922
 5554SOL    HW117347   6.041   3.110   2.998  0.1567 -0.4755  1.1837
 5554SOL    HW217348   6.172   3.074   3.065  1.4065  0.3842 -0.7197
 5555SOL     OW17349   0.123   4.622   7.280 -0.1749  0.0967  0.2181
 5555SOL    HW117350   0.195   4.602   7.220 -0.4480  0.4190 -0.2203
 5555SOL    HW217351   0.146   4.575   7.360  0.6881  0.4502  0.1951
 5556SOL     OW17352   3.630   3.915   1.405 -0.1176 -0.5540 -0.5726
 5556SOL    HW117353   3.580   3.855   1.350  0.0471 -0.4749 -0.8130
 5556SOL    HW217354   3.623   3.880   1.493 -0.6300 -0.5210 -0.6009
 5557SOL     OW17355   0.162   2.274   3.363  0.4474  0.1890 -0.1099
 5557SOL    HW117356   0.114   2.192   3.377 -2.4374  1.5936 -1.0156
 5557SOL    HW217357   0.211   2.259   3.282 -1.8428  0.0060 -1.5614
 5558SOL     OW17358   5.953   5.110   0.795  0.1353 -0.3261  0.0963
 5558SOL    HW117359   5.910   5.065   0.868 -0.6987  2.8461  1.7253
 5558SOL    HW217360   5.885   5.117   0.728  0.5037 -2.0727 -0.5012
 5559SOL     OW17361   4.927   2.849   6.986  0.7207 -0.6133  0.2918
 5559SOL    HW117362   4.833   2.856   7.005  0.3744 -3.0801 -0.1328
 5559SOL    HW217363   4.932   2.850   6.890  0.9143 -2.0954  0.2637
 5560SOL     OW17364   4.170   1.691   0.328  0.0872  0.1171 -0.4693
 5560SOL    HW117365   4.234   1.673   0.397  0.1635 -0.1706 -0.6140
 5560SOL    HW217366   4.215   1.753   0.271  0.1390  0.1187 -0.4277
 5561SOL     OW17367   2.736   1.237   1.405  0.0270 -0.2156  0.2557
 5561SOL    HW117368   2.669   1.254   1.471  0.6691  1.3129  0.5602
 5561SOL    HW217369   2.729   1.311   1.344  0.6543 -0.6574 -0.3727
 5562SOL     OW17370   5.156   3.653   0.548  0.1756  0.1980  0.1248
 5562SOL    HW117371   5.064   3.631   0.560  0.1824 -1.5720 -2.3139
 5562SOL    HW217372   5.204   3.576   0.579  0.6389 -0.1331 -1.3356
 5563SOL     OW17373   5.569   0.744   0.375 -0.2918 -0.2122 -0.4243
 5563SOL    HW117374   5.509   0.705   0.438 -0.2491 -1.2378 -0.9863
 5563SOL    HW217375   5.653   0.702   0.394 -0.4978 -1.3296 -1.8034
 5564SOL     OW17376   2.168   3.357   2.905 -0.1261 -0.0290  0.1852
 5564SOL    HW117377   2.261   3.335   2.905 -0.0034  0.4403 -0.6557
 5564SOL    HW217378   2.162   3.437   2.854 -0.6548  1.5660  2.5833
 5565SOL     OW17379   1.027   1.219   3.890  0.1101  0.2722  0.1284
 5565SOL    HW117380   0.941   1.250   3.863  0.4211 -0.0130 -1.2777
 5565SOL    HW217381   1.009   1.134   3.932 -0.2709  0.1198 -0.3363
 5566SOL     OW17382   0.784   6.267   5.988 -0.1174  0.0144 -0.3593
 5566SOL    HW117383   0.709   6.246   5.932 -1.5651  1.5139  0.9071
 5566SOL    HW217384   0.860   6.264   5.929 -1.1763 -1.2739 -1.7426
 5567SOL     OW17385   4.726   5.436   1.746 -0.5104  0.1983 -0.5734
 5567SOL    HW117386   4.776   5.400   1.820  0.2354 -0.1774 -1.2408
 5567SOL    HW217387   4.643   5.388   1.748  0.1301 -0.9782 -0.9232
 5568SOL     OW17388   6.855   7.423   6.929 -0.1836 -0.0086  0.2980
 5568SOL    HW117389   6.915   7.371   6.876  1.6155  1.9718  0.2651
 5568SOL    HW217390   6.807   7.358   6.981  1.0880 -1.7477 -0.5790
 5569SOL     OW17391   0.780   0.183   7.581  0.0013 -0.5933  0.5137
 5569SOL    HW117392   0.718   0.128   7.534  1.0829 -0.2985 -1.3554
 5569SOL    HW217393   0.767   0.271   7.543  0.9359 -0.3571  0.7135
 5570SOL     OW17394   2.011   5.357   2.879  0.4716 -0.3125  0.5574
 5570SOL    HW117395   2.081   5.403   2.924 -0.2310 -0.3727  1.7667
 5570SOL    HW217396   1.995   5.279   2.933  0.4499 -1.0585 -0.4896
 5571SOL     OW17397   2.638   1.064   1.221 -0.2613  0.4518  0.2916
 5571SOL    HW117398   2.660   1.098   1.308 -0.9111  1.0060  0.2382
 5571SOL    HW217399   2.689   1.118   1.160  0.6603 -0.3193  0.3426
 5572SOL     OW17400   7.303   5.202   3.170  0.2863 -0.1077  0.1744
 5572SOL    HW117401   7.342   5.244   3.093  3.7309 -0.0950  1.7245
 5572SOL    HW217402   7.322   5.263   3.241  0.3181 -1.6943  1.5598
 5573SOL     OW17403   4.731   6.418   3.492 -0.7423 -0.0999 -0.2033
 5573SOL    HW117404   4.733   6.408   3.397  1.0863 -1.5154 -0.0622
 5573SOL    HW217405   4.776   6.501   3.509  2.7732 -1.7941 -0.4492
 5574SOL     OW17406   4.567   5.939   2.518  0.7771  0.0030  0.8337
 5574SOL    HW117407   4.491   5.980   2.560  1.1298 -0.7505  2.2616
 5574SOL    HW217408   4.636   5.942   2.584  1.4583 -0.9158  0.1873
 5575SOL     OW17409   6.364   1.320   6.681  0.0711  0.1198 -0.3636
 5575SOL    HW117410   6.405   1.254   6.737  1.3318  0.9692 -0.2635
 5575SOL    HW217411   6.373   1.285   6.592  0.6289  0.1106 -0.3017
 5576SOL     OW17412   7.467   7.161   4.776  0.0893  0.6369  0.4327
 5576SOL    HW117413   7.393   7.105   4.796 -0.4000  1.5519  1.2599
 5576SOL    HW217414   7.543   7.103   4.783 -0.2783  0.3160  2.5147
 5577SOL     OW17415   7.270   1.688   2.433  0.4294 -0.1109  0.3634
 5577SOL    HW117416   7.285   1.620   2.498 -1.3627 -0.6210  0.2756
 5577SOL    HW217417   7.309   1.654   2.352 -0.6190 -1.1323  0.2739
 5578SOL     OW17418   3.396   7.166   7.261 -0.5208 -0.0062  0.4605
 5578SOL    HW117419   3.322   7.107   7.248 -0.5569 -0.0866  1.0038
 5578SOL    HW217420   3.467   7.110   7.294 -0.7347  0.3305  1.5475
 5579SOL     OW17421   2.718   3.163   1.542 -0.2520  0.1341 -0.3461
 5579SOL    HW117422   2.791   3.102   1.535 -0.3003  0.1687 -1.1661
 5579SOL    HW217423   2.751   3.245   1.505  0.1609  0.9454  1.6766
 5580SOL     OW17424   6.958   0.819   1.012 -0.1818  0.0566 -0.3100
 5580SOL    HW117425   7.025   0.802   1.078 -0.6939 -0.3692  0.1028
 5580SOL    HW217426   6.990   0.774   0.934 -0.2678 -0.6223  0.0478
 5581SOL     OW17427   3.094   5.082   7.765  0.3088 -0.2288 -0.4420
 5581SOL    HW117428   3.177   5.131   7.763  0.0964  0.1730  0.3707
 5581SOL    HW217429   3.095   5.031   7.684  0.5066  1.1701 -1.3540
 5582SOL     OW17430   0.175   4.492   2.878 -0.7397  0.0811 -0.1594
 5582SOL    HW117431   0.204   4.499   2.969 -0.5639 -0.6717 -0.1564
 5582SOL    HW217432   0.083   4.518   2.880 -1.0291 -0.9375  0.4137
 5583SOL     OW17433   6.945   5.586   5.399  0.3321  0.4365 -0.2366
 5583SOL    HW117434   6.931   5.606   5.492  0.8420  2.6755 -0.6013
 5583SOL    HW217435   7.038   5.563   5.394  0.1957 -0.1705 -0.1450
 5584SOL     OW17436   3.318   2.063   3.868  0.0699 -0.0965  0.7130
 5584SOL    HW117437   3.326   2.156   3.889 -0.3858  0.0803  0.1158
 5584SOL    HW217438   3.384   2.048   3.801 -1.0607  0.2176 -0.5093
 5585SOL     OW17439   2.827   3.220   2.321  0.1026 -0.4405  0.3263
 5585SOL    HW117440   2.910   3.173   2.319  0.2169 -0.2151 -0.8911
 5585SOL    HW217441   2.788   3.204   2.235 -0.8458 -0.0543  0.6674
 5586SOL     OW17442   3.713   2.521   5.799 -0.1049 -0.4587  0.1938
 5586SOL    HW117443   3.623   2.488   5.801 -0.1521 -0.4505 -0.9929
 5586SOL    HW217444   3.763   2.452   5.755  0.2017  0.1073 -0.3652
 5587SOL     OW17445   6.594   5.901   0.040 -0.0792 -0.1737  0.5171
 5587SOL    HW117446   6.570   5.914  -0.052  1.0255  0.4267  0.2891
 5587SOL    HW217447   6.672   5.956   0.052 -1.2368  1.1666  2.2947
 5588SOL     OW17448   0.254   4.672   6.447  0.0573 -0.3423  0.4319
 5588SOL    HW117449   0.247   4.767   6.442 -1.8512 -0.5063 -2.3016
 5588SOL    HW217450   0.185   4.646   6.509 -0.3952 -0.0060  0.0763
 5589SOL     OW17451   3.290   7.286   2.987  0.0454  0.1949 -0.1443
 5589SOL    HW117452   3.227   7.287   2.915 -0.7424 -1.3616  0.4780
 5589SOL    HW217453   3.359   7.226   2.957 -0.8451 -1.3668  0.7945
 5590SOL     OW17454   7.081   5.822   5.545  0.0828  0.1774  0.0385
 5590SOL    HW117455   7.139   5.881   5.594  0.4407  0.4357 -0.6890
 5590SOL    HW217456   7.129   5.739   5.543  0.0918  0.1814  0.0760
 5591SOL     OW17457   0.779   6.215   0.751  0.8815 -0.0768  0.2078
 5591SOL    HW117458   0.866   6.249   0.731  0.4969  0.1131 -1.2619
 5591SOL    HW217459   0.756   6.163   0.675 -0.9015  1.1129 -0.1323
 5592SOL     OW17460   2.588   4.759   2.362 -0.0598  0.2505  0.0468
 5592SOL    HW117461   2.524   4.795   2.300 -1.1269  1.3007  1.7075
 5592SOL    HW217462   2.581   4.814   2.439  0.8470 -1.3612  1.3399
 5593SOL     OW17463   6.698   3.926   1.791  0.1188 -0.7350 -0.7682
 5593SOL    HW117464   6.758   3.853   1.806  0.2354 -0.3507  0.9183
 5593SOL    HW217465   6.611   3.887   1.793  0.2014 -0.9007 -0.3765
 5594SOL     OW17466   3.260   6.996   5.344  0.2745  0.2463  0.6376
 5594SOL    HW117467   3.282   7.070   5.401 -1.5091 -0.4222  2.3129
 5594SOL    HW217468   3.326   6.930   5.364 -0.8088 -0.3156  2.7212
 5595SOL     OW17469   2.941   3.074   6.171  0.2272  0.0610  0.3115
 5595SOL    HW117470   2.959   2.982   6.147 -0.5649 -0.2131  0.7382
 5595SOL    HW217471   3.023   3.106   6.207  0.4778 -0.5161  0.2634
 5596SOL     OW17472   0.827   1.473   7.695  0.4255 -0.8614  0.1927
 5596SOL    HW117473   0.769   1.548   7.707  0.1691 -1.0985  0.4516
 5596SOL    HW217474   0.903   1.508   7.650  1.3685  0.0485  2.3468
 5597SOL     OW17475   5.316   5.657   0.521  0.2749 -0.5919  0.5341
 5597SOL    HW117476   5.260   5.583   0.496  1.0036 -1.7773  2.2624
 5597SOL    HW217477   5.405   5.626   0.505  0.5755  0.0124  1.0168
 5598SOL     OW17478   3.710   1.069   4.700 -0.4133 -0.7791 -0.5139
 5598SOL    HW117479   3.635   1.127   4.715 -0.8276 -1.1869 -0.9677
 5598SOL    HW217480   3.774   1.095   4.766 -0.0864  1.0311 -1.4918
 5599SOL     OW17481   2.304   1.035   6.587  0.0489  0.5979  0.6392
 5599SOL    HW117482   2.356   1.067   6.661 -1.0544 -0.2275  1.7999
 5599SOL    HW217483   2.252   1.111   6.561  0.7342  1.0082  0.4245
 5600SOL     OW17484   7.105   6.998   5.238  0.4664  0.1433  0.0340
 5600SOL    HW117485   7.167   6.944   5.189  0.3384  0.1358 -0.1211
 5600SOL    HW217486   7.158   7.070   5.273  0.4213  0.5741 -0.7622
 5601SOL     OW17487   4.956   5.617   0.247 -0.1308 -0.1805 -0.1735
 5601SOL    HW117488   5.024   5.552   0.264 -0.5235 -1.4387 -2.9481
 5601SOL    HW217489   4.998   5.701   0.264  1.1788 -1.0332  1.0035
 5602SOL     OW17490   2.845   3.496   2.781  0.3178  0.0257  0.0444
 5602SOL    HW117491   2.893   3.572   2.747  0.4471 -0.5053 -0.9883
 5602SOL    HW217492   2.889   3.476   2.864  0.3573  0.9938  0.2750
 5603SOL     OW17493   3.836   4.258   3.937 -0.1404 -0.1470  0.2823
 5603SOL    HW117494   3.889   4.246   3.858  1.6383 -0.9054  1.5097
 5603SOL    HW217495   3.853   4.179   3.989 -0.8652  0.5605  1.6328
 5604SOL     OW17496   3.920   7.463   6.374 -0.1862  0.3983 -0.3491
 5604SOL    HW117497   3.947   7.538   6.320  1.3793  0.8733  1.0422
 5604SOL    HW217498   3.884   7.502   6.453  0.4348 -0.3046  0.2936
 5605SOL     OW17499   5.812   1.922   3.239 -0.1034 -0.4483  0.5855
 5605SOL    HW117500   5.838   1.919   3.147 -0.0750  1.3196  0.4958
 5605SOL    HW217501   5.892   1.942   3.286  0.0053 -1.9427  1.1003
 5606SOL     OW17502   7.230   3.865   5.382 -0.1088 -0.2334 -0.5341
 5606SOL    HW117503   7.222   3.865   5.287  0.2101  1.6769 -0.6109
 5606SOL    HW217504   7.256   3.955   5.403 -1.2282 -0.3266  1.4486
 5607SOL     OW17505   0.590   0.227   3.669 -0.0794  0.8328  0.2722
 5607SOL    HW117506   0.606   0.321   3.676  1.9926  0.4700  0.8415
 5607SOL    HW217507   0.495   0.221   3.659 -0.1428  3.0586 -1.4239
 5608SOL     OW17508   1.711   4.469   1.733  0.1094 -0.0532 -0.7392
 5608SOL    HW117509   1.685   4.410   1.804  0.2460 -0.0292 -0.6690
 5608SOL    HW217510   1.628   4.495   1.692  0.1085 -2.0227 -2.1695
 5609SOL     OW17511   7.188   7.335   4.282  0.4352 -0.2459  0.4011
 5609SOL    HW117512   7.235   7.353   4.200  0.3771  0.4841  0.5158
 5609SOL    HW217513   7.198   7.241   4.296  0.0020 -0.4791 -0.7232
 5610SOL     OW17514   4.139   4.360   3.808  0.3365 -0.8038 -0.4064
 5610SOL    HW117515   4.094   4.440   3.781  2.1233  0.0703 -0.9303
 5610SOL    HW217516   4.122   4.298   3.737 -2.5496 -1.6026  0.8000
 5611SOL     OW17517   3.990   5.636   3.410  0.2857 -0.5879  0.3364
 5611SOL    HW117518   4.018   5.589   3.332 -0.8608  2.3141 -2.0174
 5611SOL    HW217519   3.903   5.600   3.429  1.1123 -2.2381  1.1790
 5612SOL     OW17520   5.698   2.744   6.688 -0.0997  0.1078  0.0807
 5612SOL    HW117521   5.653   2.779   6.765  0.8278 -1.1288  1.2235
 5612SOL    HW217522   5.751   2.672   6.721  0.9822  0.0687 -1.5894
 5613SOL     OW17523   5.051   4.578   6.437  0.0327 -0.0846 -0.1205
 5613SOL    HW117524   5.108   4.615   6.369  0.1277  0.6572  0.3473
 5613SOL    HW217525   5.111   4.530   6.494  0.5706  2.2233  1.4425
 5614SOL     OW17526   0.739   1.639   1.103  0.0488 -0.0707 -0.4029
 5614SOL    HW117527   0.791   1.581   1.159 -0.0394 -0.7336 -0.9858
 5614SOL    HW217528   0.770   1.727   1.124  1.3520 -0.4480 -0.6792
 5615SOL     OW17529   6.760   4.294   5.138  0.6045  0.4590 -0.1644
 5615SOL    HW117530   6.839   4.272   5.089 -0.1281 -0.0016 -1.1744
 5615SOL    HW217531   6.718   4.210   5.156  0.4452  0.6831  0.5366
 5616SOL     OW17532   5.076   2.080   0.805 -0.5778 -0.7566 -0.0317
 5616SOL    HW117533   5.037   2.150   0.754  0.7950 -0.0273 -0.1206
 5616SOL    HW217534   5.169   2.103   0.812 -0.0933 -2.5265 -0.0227
 5617SOL     OW17535   2.123   7.458   3.854  0.3866  0.3760 -0.3928
 5617SOL    HW117536   2.081   7.431   3.936  0.1961  1.0103 -0.2752
 5617SOL    HW217537   2.058   7.515   3.811  0.9343  0.9858 -0.4354
 5618SOL     OW17538   7.367   6.767   7.698  0.2658  0.2759 -0.1424
 5618SOL    HW117539   7.364   6.673   7.717 -0.5252  0.1084 -1.0645
 5618SOL    HW217540   7.288   6.802   7.739 -0.3697  0.2401 -1.2916
 5619SOL     OW17541   2.951   1.301   2.332 -0.0156 -0.5419 -0.3529
 5619SOL    HW117542   2.949   1.257   2.416  0.4594 -1.5174 -0.8450
 5619SOL    HW217543   3.044   1.308   2.309 -0.0537  0.9004 -0.2053
 5620SOL     OW17544   1.325   5.699   1.340 -0.4587 -0.2589 -0.2956
 5620SOL    HW117545   1.269   5.759   1.290  0.4074  1.5971  0.8380
 5620SOL    HW217546   1.384   5.756   1.388  0.2432 -2.0456  1.0851
 5621SOL     OW17547   7.468   5.472   7.525  0.4354  1.0695  0.5496
 5621SOL    HW117548   7.485   5.527   7.448 -1.3704 -0.7804 -1.3102
 5621SOL    HW217549   7.373   5.469   7.532  0.5069 -0.9772  1.1864
 5622SOL     OW17550   0.626   4.107   0.252 -0.2198 -0.6370 -0.2076
 5622SOL    HW117551   0.597   4.035   0.196  1.5301 -0.4187 -1.4494
 5622SOL    HW217552   0.688   4.156   0.199 -0.6094  1.2289  0.9652
 5623SOL     OW17553   6.879   6.281   6.121  0.8039  0.0634 -0.0095
 5623SOL    HW117554   6.818   6.298   6.193  0.3617  2.3059 -0.8175
 5623SOL    HW217555   6.830   6.304   6.042  1.9302 -0.3838 -0.8743
 5624SOL     OW17556   0.316   7.036   6.490  0.0662  0.2375 -0.3302
 5624SOL    HW117557   0.249   7.044   6.558 -1.0870 -0.9326 -1.2547
 5624SOL    HW217558   0.398   7.060   6.533 -0.3399 -2.0509  1.9599
 5625SOL     OW17559   2.309   5.961   1.284 -0.0880 -0.8029  0.0429
 5625SOL    HW117560   2.260   5.942   1.204  0.4629  0.7955 -0.7321
 5625SOL    HW217561   2.303   5.881   1.336 -2.2239 -1.1792 -0.6775
 5626SOL     OW17562   4.855   1.790   1.846  0.2152 -0.5196 -0.0775
 5626SOL    HW117563   4.763   1.799   1.871 -0.4381 -3.3242 -1.1086
 5626SOL    HW217564   4.856   1.801   1.751  0.6683 -1.9785 -0.2637
 5627SOL     OW17565   1.182   5.941   0.940  0.2268 -0.1830 -0.2137
 5627SOL    HW117566   1.269   5.901   0.935  0.3579  0.0724  0.0437
 5627SOL    HW217567   1.136   5.907   0.863  1.3196  1.4970 -1.7052
 5628SOL     OW17568   6.606   5.303   7.170 -0.1718 -0.0987  0.8403
 5628SOL    HW117569   6.579   5.217   7.203 -1.8042  0.1189  0.1832
 5628SOL    HW217570   6.695   5.289   7.137 -0.2344 -1.4294  1.1570
 5629SOL     OW17571   0.169   3.095   5.628  0.0765 -0.2407  0.1645
 5629SOL    HW117572   0.229   3.032   5.669  0.2940  1.2559  2.3084
 5629SOL    HW217573   0.214   3.179   5.635 -1.8393  0.7814  1.0186
 5630SOL     OW17574   2.346   1.639   1.940  0.2369 -0.4761 -0.2171
 5630SOL    HW117575   2.280   1.669   1.877  0.7032  0.7437 -0.1576
 5630SOL    HW217576   2.396   1.573   1.892 -1.9576 -2.6219  0.2417
 5631SOL     OW17577   4.946   3.654   6.302  0.0291  0.0729  0.2629
 5631SOL    HW117578   5.000   3.659   6.224  0.3797 -0.8253  0.4383
 5631SOL    HW217579   4.943   3.744   6.335  2.9298 -0.0915  1.2611
 5632SOL     OW17580   3.559   4.990   5.271  0.1245  0.1561 -0.0556
 5632SOL    HW117581   3.616   5.064   5.291 -0.0644  0.5561 -0.9387
 5632SOL    HW217582   3.471   5.028   5.272 -0.0153 -0.1707  0.0008
 5633SOL     OW17583   2.935   0.180   2.169 -0.2369 -0.4705  0.1528
 5633SOL    HW117584   3.018   0.202   2.125 -0.3899  0.9950  0.5377
 5633SOL    HW217585   2.935   0.236   2.247 -2.2013  0.5490 -0.5326
 5634SOL     OW17586   3.714   5.015   6.472  0.0109 -0.7783 -0.2983
 5634SOL    HW117587   3.632   4.966   6.476  0.1559 -1.0684 -0.7707
 5634SOL    HW217588   3.701   5.078   6.402  0.2168 -0.8747 -0.4248
 5635SOL     OW17589   1.802   7.314   5.983 -0.3097  0.2527 -0.4233
 5635SOL    HW117590   1.754   7.277   6.058 -0.7079  1.3902 -0.0798
 5635SOL    HW217591   1.887   7.271   5.985 -0.8351 -0.8184 -0.2149
 5636SOL     OW17592   7.676   1.506   2.487  0.5104  0.6476  0.1792
 5636SOL    HW117593   7.687   1.504   2.392  0.0599  1.2996  0.1056
 5636SOL    HW217594   7.619   1.431   2.507 -0.7797  1.4783 -0.2712
 5637SOL     OW17595   0.001   6.936   5.412 -0.1868  0.6113 -0.2854
 5637SOL    HW117596  -0.020   6.990   5.336  2.5904  0.9667 -0.8880
 5637SOL    HW217597   0.095   6.945   5.424 -0.1970 -1.1161  1.9427
 5638SOL     OW17598   6.783   4.290   1.622  0.1210  0.6406  0.7148
 5638SOL    HW117599   6.818   4.370   1.582 -0.9337  0.1325 -1.3802
 5638SOL    HW217600   6.688   4.301   1.620 -0.0109 -0.1832  1.4947
 5639SOL     OW17601   3.330   6.666   2.925  0.3471  0.1719  0.5478
 5639SOL    HW117602   3.380   6.586   2.913  0.9604  0.8004 -1.3279
 5639SOL    HW217603   3.276   6.674   2.847  0.7999  1.9142  0.3598
 5640SOL     OW17604   7.499   3.851   4.434 -0.0255 -0.1847  0.2288
 5640SOL    HW117605   7.410   3.820   4.421  0.3862 -2.4524  2.1596
 5640SOL    HW217606   7.494   3.946   4.423 -2.9377 -0.0922  1.6211
 5641SOL     OW17607   3.060   7.585   7.677 -0.3541 -0.1449  0.3950
 5641SOL    HW117608   3.146   7.626   7.670  1.1773 -3.0496  0.8598
 5641SOL    HW217609   3.037   7.593   7.770  0.0606 -0.5665  0.5348
 5642SOL     OW17610   1.379   3.274   3.700 -0.3523 -0.3900 -0.1589
 5642SOL    HW117611   1.467   3.271   3.662  0.8567 -0.0688  2.4352
 5642SOL    HW217612   1.355   3.182   3.709 -0.6545 -0.4778 -1.5751
 5643SOL     OW17613   5.040   2.906   3.556  0.5206 -0.0156 -1.0371
 5643SOL    HW117614   5.038   2.855   3.475 -1.3014  0.7175 -1.4983
 5643SOL    HW217615   4.950   2.936   3.568  0.9840  0.8016  0.6920
 5644SOL     OW17616   1.836   2.512   1.199 -0.2391  0.0167  0.1859
 5644SOL    HW117617   1.930   2.514   1.182 -0.3337  2.4951 -0.3654
 5644SOL    HW217618   1.809   2.603   1.197 -2.7964 -0.6727 -0.2965
 5645SOL     OW17619   2.556   2.710   2.659  0.2683  0.1170 -0.6826
 5645SOL    HW117620   2.553   2.791   2.710  0.1919  0.8132 -1.7670
 5645SOL    HW217621   2.495   2.652   2.704  1.4275  0.1113  0.9744
 5646SOL     OW17622   4.957   2.984   6.052  0.5928  0.0888  0.6773
 5646SOL    HW117623   4.943   2.894   6.082  1.3275 -0.6425 -1.0372
 5646SOL    HW217624   4.904   3.038   6.111 -0.3144 -1.5130  1.3810
 5647SOL     OW17625   2.503   0.596   4.938 -1.0921 -0.0383 -0.1935
 5647SOL    HW117626   2.509   0.639   4.852 -1.1214 -2.0606 -1.2596
 5647SOL    HW217627   2.583   0.621   4.983 -1.4259  1.6731 -0.4774
 5648SOL     OW17628   5.574   6.031   6.108 -0.1983 -0.1273  0.0262
 5648SOL    HW117629   5.560   5.966   6.039  2.6056 -0.4346 -0.3573
 5648SOL    HW217630   5.665   6.058   6.097 -0.9907  3.2590  0.7205
 5649SOL     OW17631   1.064   5.414   4.452  0.8196 -0.2165 -0.3010
 5649SOL    HW117632   1.088   5.373   4.369  0.5881 -0.4215 -0.2639
 5649SOL    HW217633   1.071   5.508   4.434 -2.7774 -0.0494 -1.6749
 5650SOL     OW17634   6.258   2.461   6.963 -0.2775  0.2761 -0.0251
 5650SOL    HW117635   6.339   2.512   6.953 -0.5952  1.2311  1.7974
 5650SOL    HW217636   6.287   2.370   6.960  0.9129  0.6016  0.7637
 5651SOL     OW17637   5.386   5.639   5.437  0.3066  0.1174  0.0723
 5651SOL    HW117638   5.325   5.689   5.383  0.6681  0.1126 -0.3470
 5651SOL    HW217639   5.434   5.705   5.486  1.5979  0.2866 -1.3360
 5652SOL     OW17640   7.419   2.200   1.782  0.4785 -0.4925 -0.3628
 5652SOL    HW117641   7.414   2.194   1.877  0.2357  0.0409 -0.3405
 5652SOL    HW217642   7.493   2.260   1.765  0.8431 -0.9775 -0.5214
 5653SOL     OW17643   5.985   5.054   1.185  0.6853  0.3714 -0.7394
 5653SOL    HW117644   6.065   5.002   1.191 -0.0293 -0.6345  0.5462
 5653SOL    HW217645   5.916   4.996   1.216 -0.7431  0.8612 -2.8340
 5654SOL     OW17646   4.063   0.048   0.455 -0.7429 -0.0699  0.3479
 5654SOL    HW117647   4.111   0.102   0.392 -0.3576 -1.9661 -1.0556
 5654SOL    HW217648   4.079   0.091   0.539 -0.2446  1.8391 -0.6404
 5655SOL     OW17649   5.960   3.872   6.872  0.0333  0.2459 -0.0717
 5655SOL    HW117650   5.944   3.794   6.819 -0.8468  0.0595  0.4403
 5655SOL    HW217651   5.997   3.839   6.954 -1.5991  0.2029  0.6897
 5656SOL     OW17652   4.511   3.901   2.186  0.2325  0.4447  0.3223
 5656SOL    HW117653   4.433   3.954   2.205  0.0813  0.2801  0.1593
 5656SOL    HW217654   4.491   3.815   2.222 -0.1867  0.0367 -0.8380
 5657SOL     OW17655   5.876   7.278   6.384  0.6982 -0.5065 -0.3673
 5657SOL    HW117656   5.782   7.297   6.382  0.5968 -0.8783  0.3675
 5657SOL    HW217657   5.917   7.364   6.395  0.3806 -0.4477  0.4466
 5658SOL     OW17658   5.271   0.315   7.016  0.0226  0.3105  0.4292
 5658SOL    HW117659   5.263   0.256   6.940  0.8892  0.1294  0.4631
 5658SOL    HW217660   5.291   0.256   7.089 -2.2990  0.3147  1.1290
 5659SOL     OW17661   7.058   4.778   2.363  0.1995  0.1074  0.0929
 5659SOL    HW117662   6.964   4.781   2.384  0.1789 -1.5239  0.4137
 5659SOL    HW217663   7.088   4.868   2.372 -1.0355  0.4193  1.4572
 5660SOL     OW17664   7.342   5.877   7.001  0.2763 -0.5784 -0.2870
 5660SOL    HW117665   7.299   5.962   7.007  2.1395  0.3794  0.3646
 5660SOL    HW217666   7.311   5.829   7.078  1.4053  0.6300  0.9860
 5661SOL     OW17667   4.552   2.754   5.918  0.6776 -0.1756  0.6481
 5661SOL    HW117668   4.542   2.720   5.829  3.2859 -1.7461  0.8503
 5661SOL    HW217669   4.595   2.839   5.906 -1.1172  0.7385  0.3668
 5662SOL     OW17670   1.642   1.968   6.163 -0.2638  0.1533  0.1786
 5662SOL    HW117671   1.601   2.047   6.127 -2.1760 -1.2073 -0.8165
 5662SOL    HW217672   1.625   1.901   6.097 -0.2639 -1.5121  1.8085
 5663SOL     OW17673   4.326   3.078   6.175  0.0610 -0.1897 -0.3389
 5663SOL    HW117674   4.420   3.066   6.185  0.1330  0.0060 -0.7372
 5663SOL    HW217675   4.296   3.000   6.129  0.0643 -0.1655 -0.3833
 5664SOL     OW17676   6.225   2.548   4.142 -0.3311  0.5414 -0.0613
 5664SOL    HW117677   6.141   2.519   4.106  0.6026 -1.8861 -0.4444
 5664SOL    HW217678   6.232   2.504   4.226 -0.2754  2.2970  0.9006
 5665SOL     OW17679   6.247   2.976   7.196  0.4667 -0.1187 -0.5388
 5665SOL    HW117680   6.230   3.070   7.196 -3.1148 -0.6124  0.9975
 5665SOL    HW217681   6.317   2.964   7.132  0.7640  3.5141 -1.0742
 5666SOL     OW17682   1.494   4.287   6.156  0.0997  0.3035  0.5858
 5666SOL    HW117683   1.558   4.291   6.085 -1.1605  0.7137 -0.5542
 5666SOL    HW217684   1.410   4.308   6.115 -1.2714 -2.8971  1.4397
 5667SOL     OW17685   2.259   1.751   2.691 -0.4956  0.2463 -0.0050
 5667SOL    HW117686   2.208   1.746   2.610 -0.0246  0.6472 -0.3351
 5667SOL    HW217687   2.344   1.785   2.663 -0.1376 -0.1589  0.5763
 5668SOL     OW17688   6.640   6.939   0.063  0.2662 -0.3740 -0.1989
 5668SOL    HW117689   6.578   6.872   0.093 -0.3727 -0.0457 -0.7376
 5668SOL    HW217690   6.599   6.975  -0.016  2.1884 -1.7045 -1.8957
 5669SOL     OW17691   5.904   7.652   1.311  0.3738  0.9451  0.4530
 5669SOL    HW117692   5.960   7.727   1.289  1.1038 -0.0703 -1.2552
 5669SOL    HW217693   5.844   7.644   1.237  1.2745 -1.0525 -0.1160
 5670SOL     OW17694   3.026   3.506   1.329 -0.1658  0.0598 -0.7433
 5670SOL    HW117695   3.094   3.453   1.287 -0.3772  0.3317 -1.4493
 5670SOL    HW217696   3.075   3.573   1.377  0.0643  0.6543 -1.7812
 5671SOL     OW17697   6.122   0.415   4.437 -0.1380 -0.3302  0.0671
 5671SOL    HW117698   6.173   0.436   4.359  1.0866 -1.2357  0.5998
 5671SOL    HW217699   6.057   0.485   4.443  0.4552  0.3437 -1.1408
 5672SOL     OW17700   2.571   3.410   0.932  0.5555  0.1325 -0.2172
 5672SOL    HW117701   2.504   3.477   0.939  1.0939  0.9990 -2.5844
 5672SOL    HW217702   2.533   3.333   0.975 -0.9464  1.2948  0.6015
 5673SOL     OW17703   0.620   3.154   4.191 -0.1753  0.1806  0.2755
 5673SOL    HW117704   0.533   3.160   4.231 -0.3578  1.7961 -0.2871
 5673SOL    HW217705   0.606   3.106   4.110 -0.5613  0.4824  0.1607
 5674SOL     OW17706   3.930   2.138   6.040 -0.5144 -0.1621  0.0303
 5674SOL    HW117707   3.904   2.173   6.125  0.2814 -0.8375  0.5763
 5674SOL    HW217708   3.996   2.199   6.008 -2.1090  1.1032 -0.9786
 5675SOL     OW17709   1.363   7.110   2.984  0.1885 -0.2808 -0.1652
 5675SOL    HW117710   1.385   7.098   3.076 -1.4115  0.4063  0.3325
 5675SOL    HW217711   1.276   7.148   2.984  0.0380 -0.5059 -1.9804
 5676SOL     OW17712   6.711   7.716   7.271  0.2703  0.6665 -0.4000
 5676SOL    HW117713   6.649   7.724   7.344  1.0012  0.0781  0.3028
 5676SOL    HW217714   6.655   7.706   7.194 -0.5382  2.3259 -0.0835
 5677SOL     OW17715   7.537   3.861   1.512  0.1809  0.2473 -0.2521
 5677SOL    HW117716   7.476   3.788   1.523  1.3182 -1.0668 -1.9979
 5677SOL    HW217717   7.615   3.834   1.559  0.4495  0.5348 -0.5269
 5678SOL     OW17718   2.388   5.588   5.795  0.3012 -0.2132  0.4145
 5678SOL    HW117719   2.309   5.555   5.752 -1.1920  1.9618  1.3540
 5678SOL    HW217720   2.448   5.512   5.796 -1.4181 -1.6869 -1.0587
 5679SOL     OW17721   0.948   3.738   3.391  0.5447  0.0801 -0.1336
 5679SOL    HW117722   1.027   3.789   3.409  0.4371 -0.0362  0.7470
 5679SOL    HW217723   0.882   3.804   3.369  0.8673  0.1821 -0.8161
 5680SOL     OW17724   1.029   6.343   0.736 -0.9089  0.0982 -0.6144
 5680SOL    HW117725   1.097   6.296   0.785  0.2864 -0.4322 -2.6487
 5680SOL    HW217726   1.057   6.434   0.737 -1.2721  0.2123  0.2393
 5681SOL     OW17727   5.330   2.792   6.425 -0.4371  0.4832  0.1439
 5681SOL    HW117728   5.315   2.765   6.334 -0.7088 -0.5273  0.4781
 5681SOL    HW217729   5.422   2.769   6.441 -0.6592 -0.2477  0.4179
 5682SOL     OW17730   0.252   0.535   3.509 -0.0008  0.4873 -0.1455
 5682SOL    HW117731   0.299   0.459   3.542 -1.0983 -0.1154  0.0635
 5682SOL    HW217732   0.279   0.542   3.417 -0.0807 -0.3121 -0.2356
 5683SOL     OW17733   6.732   7.087   6.374  0.0484  0.2061  0.0506
 5683SOL    HW117734   6.722   7.176   6.339  0.3294 -0.0761 -0.7761
 5683SOL    HW217735   6.661   7.037   6.333 -0.9450  0.3248  1.5408
 5684SOL     OW17736   5.438   6.741   0.614  0.6716  0.3505 -0.1723
 5684SOL    HW117737   5.475   6.665   0.570  0.8789 -0.1277  0.8025
 5684SOL    HW217738   5.365   6.768   0.558  0.6328 -0.5174 -0.5574
 5685SOL     OW17739   2.575   3.513   2.136  0.0708 -0.1359  0.2094
 5685SOL    HW117740   2.536   3.595   2.108  0.3463 -0.1219 -0.1473
 5685SOL    HW217741   2.506   3.448   2.122  0.0268 -0.0453 -0.0039
 5686SOL     OW17742   6.743   2.111   6.181  0.0440  0.0074  0.2909
 5686SOL    HW117743   6.767   2.019   6.168 -0.3381  0.1876 -2.0411
 5686SOL    HW217744   6.826   2.156   6.195  0.2684 -0.6151  1.0303
 5687SOL     OW17745   5.223   3.250   0.099  0.1007  0.1638  0.1191
 5687SOL    HW117746   5.299   3.194   0.111 -1.2059 -1.2677  2.3590
 5687SOL    HW217747   5.217   3.301   0.180 -1.5667 -0.1075  0.2019
 5688SOL     OW17748   4.387   4.061   3.771  0.5221  0.4802  0.0137
 5688SOL    HW117749   4.368   3.994   3.836  0.4048 -1.8705 -2.2612
 5688SOL    HW217750   4.479   4.049   3.749  1.0215  2.3543  0.8413
 5689SOL     OW17751   2.482   3.064   5.085  0.0793 -0.5287  0.1636
 5689SOL    HW117752   2.548   2.994   5.092  0.4893 -0.0422  1.2944
 5689SOL    HW217753   2.403   3.026   5.124  0.5036 -0.1398  1.4626
 5690SOL     OW17754   6.813   6.084   3.949 -0.2489 -0.8881 -0.4182
 5690SOL    HW117755   6.783   6.166   3.910 -0.4752 -0.8057 -0.0755
 5690SOL    HW217756   6.744   6.021   3.930 -0.8480 -0.6059  0.7024
 5691SOL     OW17757   1.024   7.598   3.912  1.0434  0.7564 -0.1117
 5691SOL    HW117758   1.023   7.663   3.841  1.5049 -0.6204 -1.4218
 5691SOL    HW217759   1.112   7.605   3.949  1.9160 -0.6344 -1.7655
 5692SOL     OW17760   5.106   1.040   2.498 -0.1562 -0.2211 -0.0497
 5692SOL    HW117761   5.149   1.042   2.584  1.5258 -0.4236 -0.8421
 5692SOL    HW217762   5.102   0.947   2.475  1.0344 -0.0802 -0.9325
 5693SOL     OW17763   7.357   0.779   4.119 -0.0234 -0.1773 -0.3242
 5693SOL    HW117764   7.422   0.791   4.050 -0.5494 -1.1801 -1.0227
 5693SOL    HW217765   7.366   0.687   4.145 -1.5064 -0.4896 -0.8168
 5694SOL     OW17766   2.663   1.369   3.176  0.0834  0.1218  0.0885
 5694SOL    HW117767   2.626   1.314   3.246  0.2452 -0.5909 -0.3742
 5694SOL    HW217768   2.609   1.448   3.177  0.0771  0.1209  1.0143
 5695SOL     OW17769   7.567   0.010   6.817 -0.0553  0.3254  0.2487
 5695SOL    HW117770   7.644  -0.027   6.775 -0.5034  0.2318 -0.4978
 5695SOL    HW217771   7.593   0.100   6.840  0.9745 -0.3525  1.9150
 5696SOL     OW17772   3.510   6.694   0.297  0.1589  0.5164 -0.5155
 5696SOL    HW117773   3.448   6.684   0.369  2.0339 -0.6588  1.0531
 5696SOL    HW217774   3.545   6.782   0.308  0.6778  0.2266  0.2656
 5697SOL     OW17775   2.076   6.577   3.874 -0.2550 -0.2976 -1.0096
 5697SOL    HW117776   2.097   6.485   3.891 -0.0527  0.0047  0.5281
 5697SOL    HW217777   1.982   6.577   3.856 -0.7397 -0.5903  1.1829
 5698SOL     OW17778   6.816   7.410   1.868 -0.0422  0.1061 -0.4400
 5698SOL    HW117779   6.874   7.422   1.943 -0.9338 -0.6583  0.3974
 5698SOL    HW217780   6.875   7.401   1.793  0.8677  0.6183  0.1984
 5699SOL     OW17781   3.575   2.169   2.348  0.0625 -0.3291 -0.0011
 5699SOL    HW117782   3.608   2.230   2.413 -0.5994 -0.7060  0.7009
 5699SOL    HW217783   3.606   2.204   2.264  0.1155  0.6828  0.4269
 5700SOL     OW17784   3.448   6.080   4.858 -0.1666 -0.3170  0.0363
 5700SOL    HW117785   3.367   6.128   4.874 -0.4212 -0.9372  0.6929
 5700SOL    HW217786   3.481   6.115   4.776  0.4189  1.9689  1.1907
 5701SOL     OW17787   6.335   7.592   0.557 -0.7248 -0.8071 -0.4997
 5701SOL    HW117788   6.415   7.554   0.594 -0.4458  0.1784 -0.0413
 5701SOL    HW217789   6.265   7.555   0.610 -0.3588  0.2867  0.8419
 5702SOL     OW17790   4.152   6.093   6.875 -0.5168  0.7587 -0.0559
 5702SOL    HW117791   4.149   5.998   6.884 -0.8706  0.8750  1.3313
 5702SOL    HW217792   4.066   6.117   6.840 -1.1730  0.7158  1.4703
 5703SOL     OW17793   3.419   4.541   6.593  0.6877  0.0353  0.1481
 5703SOL    HW117794   3.383   4.520   6.679  1.2215 -0.1368  0.3375
 5703SOL    HW217795   3.495   4.483   6.585  0.6615  0.0810 -0.4208
 5704SOL     OW17796   1.774   2.710   3.172  0.2981 -0.1949  0.0824
 5704SOL    HW117797   1.747   2.620   3.188  1.6331 -0.7899 -0.8881
 5704SOL    HW217798   1.852   2.723   3.225 -0.9325  1.0448  1.7082
 5705SOL     OW17799   5.126   5.596   0.970 -0.1477  0.0237 -0.3353
 5705SOL    HW117800   5.054   5.631   0.918  1.3607 -0.5517 -2.9792
 5705SOL    HW217801   5.203   5.644   0.941  0.6325  0.6621  2.4437
 5706SOL     OW17802   0.238   4.985   0.131 -0.0045  0.3952  0.5230
 5706SOL    HW117803   0.252   4.925   0.057  0.3919  0.4997  0.5150
 5706SOL    HW217804   0.164   5.039   0.103  1.3990  1.7906 -0.6627
 5707SOL     OW17805   0.108   0.713   3.205 -0.2934 -0.3728  0.6209
 5707SOL    HW117806   0.169   0.640   3.197  0.6745  0.2828  1.9148
 5707SOL    HW217807   0.042   0.695   3.138  1.2014 -1.1816 -0.7002
 5708SOL     OW17808   3.042   2.402   1.316 -0.4834 -0.0342  0.6251
 5708SOL    HW117809   3.051   2.493   1.290  0.7696  0.0317  1.1920
 5708SOL    HW217810   2.955   2.395   1.353 -0.0287  1.3318  2.0404
 5709SOL     OW17811   2.057   1.265   7.524 -0.1137 -0.0450 -0.4844
 5709SOL    HW117812   2.071   1.248   7.617  0.5681  2.0432 -0.1508
 5709SOL    HW217813   1.963   1.250   7.510 -0.3593  0.3424  0.7109
 5710SOL     OW17814   4.507   0.102   5.894 -0.3829  0.1202 -0.5800
 5710SOL    HW117815   4.443   0.096   5.965  1.2240  1.1169  1.0182
 5710SOL    HW217816   4.547   0.015   5.891  0.2219  0.3455  0.4436
 5711SOL     OW17817   1.937   7.722   1.297  0.2856 -0.5500  0.0773
 5711SOL    HW117818   1.895   7.711   1.382 -0.9504 -1.3154 -0.5926
 5711SOL    HW217819   2.013   7.664   1.300  0.6658 -0.0167  0.9112
 5712SOL     OW17820   0.854   2.734   0.184  0.7912 -0.0461  0.1984
 5712SOL    HW117821   0.794   2.751   0.257  0.2968 -0.1257 -0.1828
 5712SOL    HW217822   0.823   2.791   0.114  1.3547  0.1391  0.0926
 5713SOL     OW17823   7.527   0.760   0.310  0.0498 -0.0565  1.2210
 5713SOL    HW117824   7.578   0.679   0.314  0.0964  0.0163  2.4670
 5713SOL    HW217825   7.591   0.828   0.291  0.1223 -0.2133  0.8981
 5714SOL     OW17826   2.149   4.598   3.910  0.1035  0.1124 -0.8316
 5714SOL    HW117827   2.109   4.515   3.885 -0.9726  0.1037  0.7606
 5714SOL    HW217828   2.242   4.577   3.922 -0.0956 -0.7895 -0.7942
 5715SOL     OW17829   7.473   1.048   6.810  0.5341  0.9052  0.1731
 5715SOL    HW117830   7.426   0.983   6.758 -0.3809  0.9807  0.8750
 5715SOL    HW217831   7.564   1.019   6.809  0.1564 -0.3465  0.4020
 5716SOL     OW17832   7.302   0.579   5.641 -0.1808 -0.1493  0.2896
 5716SOL    HW117833   7.392   0.603   5.618  0.0846 -1.4129 -0.0649
 5716SOL    HW217834   7.310   0.535   5.726 -0.2085 -1.8591 -0.5640
 5717SOL     OW17835   7.101   6.252   2.199  0.0300 -1.0293 -0.3928
 5717SOL    HW117836   7.078   6.161   2.179 -0.6523 -0.8181 -0.5652
 5717SOL    HW217837   7.166   6.275   2.133 -0.8583 -0.9299 -1.2487
 5718SOL     OW17838   0.793   4.859   0.336  0.1664 -0.2973  0.5194
 5718SOL    HW117839   0.808   4.946   0.298 -0.3595  0.5943  2.2377
 5718SOL    HW217840   0.702   4.861   0.365  0.5307 -0.9282  1.7710
 5719SOL     OW17841   2.629   7.051   5.032 -0.0928  0.1569  0.2507
 5719SOL    HW117842   2.719   7.038   5.004 -0.0209 -0.9907  0.9492
 5719SOL    HW217843   2.624   7.009   5.118 -0.7661  1.9735  1.1554
 5720SOL     OW17844   2.199   3.809   7.746 -0.3220 -0.3664 -0.2248
 5720SOL    HW117845   2.173   3.895   7.779 -1.2201  0.0451 -1.8907
 5720SOL    HW217846   2.291   3.818   7.723 -0.0676 -0.2528  0.7995
 5721SOL     OW17847   7.505   3.499   5.970  0.2784  0.1414  0.7446
 5721SOL    HW117848   7.491   3.489   5.876  0.7750  1.7866  0.4526
 5721SOL    HW217849   7.511   3.410   6.004  1.8348 -0.4981 -1.0601
 5722SOL     OW17850   0.732   0.565   3.099 -0.4141 -0.4506  0.0279
 5722SOL    HW117851   0.789   0.610   3.037 -0.3106 -0.9058 -0.2105
 5722SOL    HW217852   0.788   0.547   3.174  0.1044 -1.9780 -0.6898
 5723SOL     OW17853   6.555   5.534   0.197 -0.0255  0.2494  0.5265
 5723SOL    HW117854   6.532   5.445   0.224  1.8859 -0.3223  0.3922
 5723SOL    HW217855   6.487   5.558   0.133 -1.3680 -0.5410  1.5930
 5724SOL     OW17856   1.596   3.907   4.746 -0.3805  0.2022  1.0531
 5724SOL    HW117857   1.510   3.948   4.757 -0.7455  0.7383 -2.5374
 5724SOL    HW217858   1.658   3.973   4.778 -1.1460  2.1659 -1.1579
 5725SOL     OW17859   1.624   2.072   6.752 -0.2743  0.6143  0.0285
 5725SOL    HW117860   1.556   2.016   6.716  0.6063  0.5758 -1.6563
 5725SOL    HW217861   1.580   2.155   6.769 -0.6513  0.7698 -1.5615
 5726SOL     OW17862   5.708   3.741   4.647 -0.5071 -0.1950  0.0923
 5726SOL    HW117863   5.648   3.708   4.713  0.8433 -0.6810  1.1227
 5726SOL    HW217864   5.728   3.830   4.675 -0.1461 -0.3046  0.1838
 5727SOL     OW17865   3.765   0.141   1.376 -0.0063 -0.5211  0.1264
 5727SOL    HW117866   3.851   0.129   1.415 -0.0044 -0.0472  0.2809
 5727SOL    HW217867   3.754   0.236   1.372 -0.5424 -0.5785  0.1635
 5728SOL     OW17868   4.060   5.803   6.564 -0.1149  0.1642  0.4169
 5728SOL    HW117869   3.989   5.804   6.627  0.9478 -0.7773  1.6693
 5728SOL    HW217870   4.084   5.895   6.554 -2.4322  0.6932 -1.1842
 5729SOL     OW17871   6.063   1.995   2.211  0.0100  0.3860 -0.1559
 5729SOL    HW117872   6.149   2.029   2.238  0.2248 -0.5863  0.4471
 5729SOL    HW217873   6.014   1.988   2.293 -0.0075 -0.7724 -0.2561
 5730SOL     OW17874   6.667   2.830   2.012 -0.7981  0.3547 -0.1404
 5730SOL    HW117875   6.635   2.740   2.025 -1.8086  0.6201 -0.6843
 5730SOL    HW217876   6.588   2.883   2.009 -0.2675  1.1276 -0.8859
 5731SOL     OW17877   6.090   1.413   1.995 -0.1147  0.5991  0.0338
 5731SOL    HW117878   6.032   1.464   2.051 -1.2518  0.6078 -1.1021
 5731SOL    HW217879   6.048   1.327   1.989  1.9835 -0.6928  2.2515
 5732SOL     OW17880   2.604   2.444   4.437  0.3799 -0.1280 -0.3554
 5732SOL    HW117881   2.693   2.478   4.433  0.2352  0.1989 -1.0671
 5732SOL    HW217882   2.589   2.405   4.350  0.0475 -0.7397 -0.0320
 5733SOL     OW17883   2.950   7.498   2.825 -0.5806  0.0335  0.0558
 5733SOL    HW117884   2.863   7.500   2.865  0.0539 -1.1932  1.6112
 5733SOL    HW217885   3.000   7.562   2.876  0.1008 -1.1748  0.9548
 5734SOL     OW17886   3.263   1.593   3.016 -0.2016  0.1801 -0.8895
 5734SOL    HW117887   3.297   1.640   3.092  1.2753  0.0506 -1.4385
 5734SOL    HW217888   3.220   1.660   2.963  0.9131  0.7461 -1.1200
 5735SOL     OW17889   6.015   5.212   1.421 -0.1426  0.5785  0.1552
 5735SOL    HW117890   6.079   5.144   1.439 -0.4894 -0.0230 -0.7964
 5735SOL    HW217891   5.942   5.193   1.481 -0.2308  0.1075 -0.0930
 5736SOL     OW17892   4.714   3.603   3.673 -0.0760 -0.2828  0.0041
 5736SOL    HW117893   4.750   3.603   3.762 -0.1771  0.8541  0.0647
 5736SOL    HW217894   4.681   3.515   3.661 -0.7824 -0.2398  1.4003
 5737SOL     OW17895   2.456   4.044   6.343 -0.0455 -0.7300  0.0841
 5737SOL    HW117896   2.396   3.970   6.338 -1.5281  0.5098 -2.0502
 5737SOL    HW217897   2.429   4.092   6.421 -0.0762 -1.5790  0.6144
 5738SOL     OW17898   0.790   3.940   1.350 -0.4016  0.7319 -0.1986
 5738SOL    HW117899   0.704   3.981   1.346 -0.8181 -0.0876  0.0012
 5738SOL    HW217900   0.847   3.997   1.299 -1.0577  1.2965 -0.3131
 5739SOL     OW17901   2.135   6.927   6.442 -0.4883  0.6526 -0.0320
 5739SOL    HW117902   2.156   7.000   6.384  1.3402 -0.2903 -0.6490
 5739SOL    HW217903   2.185   6.853   6.406 -1.8532 -0.7739  0.8760
 5740SOL     OW17904   6.130   7.046   2.685 -0.6872 -0.1028  0.2728
 5740SOL    HW117905   6.224   7.051   2.703 -0.6259 -0.1974 -0.0168
 5740SOL    HW217906   6.097   7.133   2.705 -0.1386  0.6268 -1.8542
 5741SOL     OW17907   2.850   2.570   7.662 -0.3896  0.5753 -0.2812
 5741SOL    HW117908   2.790   2.507   7.702 -0.8045  0.3986 -1.1427
 5741SOL    HW217909   2.848   2.646   7.719  2.0224 -1.0247  2.1961
 5742SOL     OW17910   0.763   7.273   3.072 -0.0688  0.2187  0.0377
 5742SOL    HW117911   0.695   7.208   3.089  0.0486  0.5955  2.1958
 5742SOL    HW217912   0.844   7.222   3.069  0.0588  0.2431  2.0184
 5743SOL     OW17913   6.590   0.933   3.951 -0.2450  0.5669  0.2976
 5743SOL    HW117914   6.681   0.954   3.973 -0.0692  0.7880 -0.6184
 5743SOL    HW217915   6.597   0.869   3.880 -0.8034  0.4519  0.3447
 5744SOL     OW17916   1.808   3.449   1.745  0.0004  0.0022  0.0970
 5744SOL    HW117917   1.859   3.369   1.759 -0.7035 -0.7104 -1.1719
 5744SOL    HW217918   1.818   3.466   1.651 -1.7287  0.0722 -0.0966
 5745SOL     OW17919   4.974   4.261   2.743  0.3105  0.3117  0.0584
 5745SOL    HW117920   4.919   4.210   2.802  2.1046 -0.7907  0.8725
 5745SOL    HW217921   5.061   4.223   2.753  1.0452  1.3262 -1.9134
 5746SOL     OW17922   5.892   6.549   4.199 -0.2264  0.2455 -0.1227
 5746SOL    HW117923   5.819   6.495   4.230  0.5093 -1.4822 -1.2121
 5746SOL    HW217924   5.853   6.605   4.132 -1.1547  1.6820  1.5524
 5747SOL     OW17925   7.016   0.572   4.593  0.1821 -0.1360  0.3594
 5747SOL    HW117926   7.105   0.605   4.609  0.1121 -0.8241  2.3682
 5747SOL    HW217927   7.015   0.553   4.499  1.4675  1.8436 -0.1240
 5748SOL     OW17928   5.735   0.698   6.695 -0.2101  0.3973  0.4228
 5748SOL    HW117929   5.652   0.708   6.650 -0.3753 -1.8839  0.0968
 5748SOL    HW217930   5.801   0.696   6.625 -0.0442  0.6399  0.5688
 5749SOL     OW17931   3.470   5.888   6.184  0.2525  0.3501  0.3948
 5749SOL    HW117932   3.485   5.800   6.219 -0.0938  1.1666  2.7402
 5749SOL    HW217933   3.543   5.903   6.125  0.4443 -1.4123  0.1342
 5750SOL     OW17934   5.174   5.450   2.277  0.0536 -0.0821  0.1479
 5750SOL    HW117935   5.099   5.395   2.300 -0.5176 -0.6537 -2.6717
 5750SOL    HW217936   5.244   5.388   2.256 -0.1708  0.2222 -1.7047
 5751SOL     OW17937   0.282   4.615   7.029 -0.3504 -0.5965 -0.0032
 5751SOL    HW117938   0.228   4.579   6.959  1.9674 -0.9060 -1.7396
 5751SOL    HW217939   0.295   4.707   7.005 -2.8929  0.4758  2.2751
 5752SOL     OW17940   7.544   3.381   3.046 -0.4630  0.4155 -0.5215
 5752SOL    HW117941   7.575   3.427   3.124  3.0871 -2.6223  0.1070
 5752SOL    HW217942   7.605   3.406   2.977  1.1143 -2.5186 -0.3384
 5753SOL     OW17943   3.673   2.943   2.978 -0.0127  0.2957  0.2791
 5753SOL    HW117944   3.764   2.930   3.004 -0.1790 -1.0949  0.2182
 5753SOL    HW217945   3.624   2.877   3.027 -0.8823  0.4656 -0.3318
 5754SOL     OW17946   0.526   5.569   2.949 -0.6664  0.5552  0.3701
 5754SOL    HW117947   0.546   5.479   2.925 -0.8820  0.6207 -0.0636
 5754SOL    HW217948   0.569   5.622   2.881  0.6722  0.8430  1.4127
 5755SOL     OW17949   3.657   0.887   0.018  0.5759  0.4889  0.1817
 5755SOL    HW117950   3.746   0.915  -0.004  0.3410  1.0795 -0.0335
 5755SOL    HW217951   3.642   0.922   0.106  0.3737  0.8347  0.0127
 5756SOL     OW17952   1.223   6.092   2.221 -0.2959  0.1097  0.3223
 5756SOL    HW117953   1.231   6.063   2.131 -2.3549 -1.1702  0.4939
 5756SOL    HW217954   1.215   6.012   2.272 -0.3904  0.8340  1.5087
 5757SOL     OW17955   2.564   2.000   5.360 -0.4829 -0.3854  0.0168
 5757SOL    HW117956   2.518   2.082   5.378 -1.1569 -0.6202 -0.5777
 5757SOL    HW217957   2.594   1.970   5.446 -1.9816 -0.5321  0.5250
 5758SOL     OW17958   0.512   4.450   0.052 -0.4461 -0.1104 -0.1136
 5758SOL    HW117959   0.605   4.475   0.061 -0.9497  1.6794  0.7450
 5758SOL    HW217960   0.490   4.473  -0.038  0.0596 -1.0756 -0.5037
 5759SOL     OW17961   6.553   7.047   5.077  0.1897  0.4022 -0.2163
 5759SOL    HW117962   6.570   7.084   4.990  0.1612  0.7947 -0.0597
 5759SOL    HW217963   6.615   6.975   5.086  0.1087  0.2843 -0.6136
 5760SOL     OW17964   5.942   4.677   5.616  0.0061 -0.0002 -0.6738
 5760SOL    HW117965   6.020   4.637   5.654  1.8252  3.4837 -0.3064
 5760SOL    HW217966   5.885   4.694   5.691 -0.5959 -1.3981 -0.7847
 5761SOL     OW17967   0.161   2.305   1.802  0.2367 -0.1054 -0.1245
 5761SOL    HW117968   0.154   2.319   1.896  0.6398 -0.1355 -0.0855
 5761SOL    HW217969   0.246   2.343   1.779  0.8014 -1.3824 -0.2292
 5762SOL     OW17970   1.641   2.963   3.552  0.3876  0.1579  0.5902
 5762SOL    HW117971   1.669   2.872   3.562  1.3983  0.4626  0.5839
 5762SOL    HW217972   1.692   3.011   3.617 -0.9514  0.5745  1.3735
 5763SOL     OW17973   6.786   0.114   1.904  0.1425 -0.1250  0.0085
 5763SOL    HW117974   6.743   0.058   1.839 -0.5402 -0.7511  0.9845
 5763SOL    HW217975   6.829   0.182   1.851  0.4385 -1.1769 -1.1583
 5764SOL     OW17976   2.800   6.545   7.206  0.1455 -0.2501  0.4392
 5764SOL    HW117977   2.868   6.540   7.139 -0.7821 -0.3820 -0.5071
 5764SOL    HW217978   2.807   6.634   7.240 -1.1452  0.7713 -1.7623
 5765SOL     OW17979   7.669   7.262   2.855 -0.1878  0.8428 -0.4683
 5765SOL    HW117980   7.755   7.293   2.827  0.1834  2.5275  2.1662
 5765SOL    HW217981   7.681   7.168   2.870  0.8146  0.8120 -1.3257
 5766SOL     OW17982   2.400   0.522   2.013  0.2949 -0.3021 -0.2539
 5766SOL    HW117983   2.304   0.526   2.020  0.3754  1.6548  0.3598
 5766SOL    HW217984   2.431   0.569   2.090  1.7279  0.3304 -1.1823
 5767SOL     OW17985   4.537   5.367   7.330 -0.3098 -0.3260 -0.2039
 5767SOL    HW117986   4.595   5.420   7.275 -0.6968  0.6410  0.2903
 5767SOL    HW217987   4.496   5.430   7.389 -0.0715 -1.2993  1.0573
 5768SOL     OW17988   2.704   1.494   4.559  0.1706 -0.5643  0.2379
 5768SOL    HW117989   2.707   1.453   4.646  0.6174  0.0448  0.5203
 5768SOL    HW217990   2.667   1.427   4.502 -1.5547 -0.4986  1.1861
 5769SOL     OW17991   6.513   2.991   2.958 -0.2273  0.5160 -0.0836
 5769SOL    HW117992   6.505   2.933   3.034  3.5337 -0.8065 -0.4603
 5769SOL    HW217993   6.497   2.934   2.882  1.9293  0.2154 -0.3898
 5770SOL     OW17994   6.409   7.126   4.555 -0.1211  0.2853  0.8954
 5770SOL    HW117995   6.319   7.110   4.584 -0.0689  1.7325  1.9674
 5770SOL    HW217996   6.411   7.218   4.531  1.0957  0.2989  0.9846
 5771SOL     OW17997   3.872   4.083   4.949 -0.3172  0.0955  0.2085
 5771SOL    HW117998   3.844   4.159   4.999 -0.0645 -0.3505  1.0521
 5771SOL    HW217999   3.863   4.109   4.857  2.4432  2.1819  0.4100
 5772SOL     OW18000   4.351   0.148   2.421  0.5109  0.0687 -0.1057
 5772SOL    HW118001   4.424   0.100   2.383  0.5266 -0.1880  0.2468
 5772SOL    HW218002   4.305   0.185   2.345  1.0710  0.3327 -0.3164
 5773SOL     OW18003   5.660   6.708   5.356  0.1757 -0.7086 -0.1373
 5773SOL    HW118004   5.620   6.639   5.410  1.6467 -0.2340  1.6528
 5773SOL    HW218005   5.753   6.686   5.356  0.4632  0.4810 -0.7600
 5774SOL     OW18006   6.937   4.255   2.132  0.4510  0.5229  0.5373
 5774SOL    HW118007   6.966   4.268   2.042  1.1961 -0.2514  0.6484
 5774SOL    HW218008   6.866   4.191   2.125  1.0728 -0.1921  0.5561
 5775SOL     OW18009   0.503   1.219   1.130 -0.2361 -0.7705  0.1156
 5775SOL    HW118010   0.500   1.293   1.190  1.8673 -2.2272  2.1982
 5775SOL    HW218011   0.582   1.232   1.078 -0.0315 -1.3685  0.2635
 5776SOL     OW18012   4.896   1.142   0.529 -0.3281  0.2603  0.7563
 5776SOL    HW118013   4.819   1.141   0.472  0.0300 -1.3539  0.2651
 5776SOL    HW218014   4.875   1.083   0.601  1.3900 -2.4285 -0.7798
 5777SOL     OW18015   2.831   0.005   4.509  0.0380  0.0729 -0.2412
 5777SOL    HW118016   2.827  -0.090   4.521 -1.6753  0.0111 -1.0756
 5777SOL    HW218017   2.857   0.016   4.417 -2.3492  0.3275 -0.9585
 5778SOL     OW18018   5.129   1.065   0.403  0.1301 -0.2245  0.5016
 5778SOL    HW118019   5.062   1.091   0.466  0.7924  0.4778  0.9425
 5778SOL    HW218020   5.081   1.022   0.332 -0.7650  0.1678  0.8589
 5779SOL     OW18021   1.943   5.333   6.736 -0.3994 -0.4401 -0.3911
 5779SOL    HW118022   1.880   5.269   6.771  0.7559 -1.9009 -0.8477
 5779SOL    HW218023   1.903   5.418   6.753 -1.4826 -1.2250  1.3171
 5780SOL     OW18024   5.548   4.244   3.793 -0.5868 -0.2101  0.9634
 5780SOL    HW118025   5.523   4.337   3.789  0.5252  0.0692 -0.9135
 5780SOL    HW218026   5.640   4.246   3.818  0.1796 -0.5987 -1.5640
 5781SOL     OW18027   1.744   6.347   4.852  0.3026 -0.2527  0.7821
 5781SOL    HW118028   1.839   6.352   4.853  0.4266 -0.6153 -2.0535
 5781SOL    HW218029   1.724   6.257   4.877  0.9272 -1.1384 -1.6777
 5782SOL     OW18030   1.683   0.338   5.665  0.1561  0.2821 -0.2116
 5782SOL    HW118031   1.593   0.328   5.633  0.2280 -0.6931 -0.1500
 5782SOL    HW218032   1.674   0.395   5.742 -0.8300 -1.8916  1.4219
 5783SOL     OW18033   4.970   3.001   5.641 -0.8102 -0.1479  0.1461
 5783SOL    HW118034   4.927   2.923   5.604  1.5757 -0.7533 -1.6284
 5783SOL    HW218035   5.054   2.969   5.672  0.4309  1.7706 -1.0405
 5784SOL     OW18036   2.357   3.001   5.651  0.2464  0.4883  0.4429
 5784SOL    HW118037   2.280   2.975   5.600 -0.1596  1.7001  0.3969
 5784SOL    HW218038   2.392   3.077   5.605  0.6764  0.7783  1.2192
 5785SOL     OW18039   5.595   4.378   5.694  0.0578 -0.0273  0.0556
 5785SOL    HW118040   5.587   4.473   5.684 -0.1196 -0.2443 -2.6380
 5785SOL    HW218041   5.511   4.351   5.733 -1.0431  0.6836 -1.6803
 5786SOL     OW18042   4.631   0.833   5.151 -0.6099  0.1606 -0.4073
 5786SOL    HW118043   4.654   0.919   5.117 -0.6294  0.6147  0.6848
 5786SOL    HW218044   4.538   0.822   5.128 -0.2817 -0.1552 -1.6955
 5787SOL     OW18045   3.231   1.612   7.275 -0.0119 -0.1519  0.4937
 5787SOL    HW118046   3.199   1.631   7.187 -0.8866 -0.2246  0.7863
 5787SOL    HW218047   3.326   1.602   7.264  0.0498  1.0481 -0.2284
 5788SOL     OW18048   5.410   3.103   5.019 -0.0146  0.7326  0.5344
 5788SOL    HW118049   5.335   3.152   5.052  0.0013  1.1605 -0.0494
 5788SOL    HW218050   5.389   3.012   5.038 -2.5599  0.3610 -2.9920
 5789SOL     OW18051   5.876   4.548   4.054 -0.1861  0.3583  0.3721
 5789SOL    HW118052   5.822   4.470   4.042  0.5905  0.0617 -1.6997
 5789SOL    HW218053   5.821   4.620   4.025  0.2726  0.1088 -1.2689
 5790SOL     OW18054   5.020   4.640   3.633 -0.2232  0.4372  0.3862
 5790SOL    HW118055   4.993   4.616   3.544  1.4882  2.0636 -0.6513
 5790SOL    HW218056   5.048   4.731   3.626  1.2860  0.1953  2.2685
 5791SOL     OW18057   3.465   7.074   2.941  0.5995 -0.1707 -0.0822
 5791SOL    HW118058   3.439   7.034   3.024 -2.1901  0.7339 -0.4139
 5791SOL    HW218059   3.523   7.009   2.901  0.1803 -1.6491  1.5526
 5792SOL     OW18060   5.937   2.964   1.944 -0.1142  0.1135 -0.4535
 5792SOL    HW118061   5.843   2.983   1.949 -0.7414 -2.6103 -0.5634
 5792SOL    HW218062   5.947   2.916   1.862  1.3632  0.1837 -0.3329
 5793SOL     OW18063   0.042   0.036   4.198  0.5312  0.3953 -0.0257
 5793SOL    HW118064   0.017   0.115   4.247  0.5115 -0.0597  0.7144
 5793SOL    HW218065   0.061   0.068   4.109  0.7410  1.2674  0.3160
 5794SOL     OW18066   3.280   1.587   2.242  0.1727 -0.2249  0.9049
 5794SOL    HW118067   3.315   1.569   2.330  0.9705  2.2118  1.1552
 5794SOL    HW218068   3.303   1.679   2.226 -1.5456 -0.0985 -1.1277
 5795SOL     OW18069   3.493   6.786   1.164  0.1306 -0.2548  0.4788
 5795SOL    HW118070   3.445   6.839   1.227  0.2575 -0.3501  0.6566
 5795SOL    HW218071   3.558   6.845   1.126  1.8580 -0.8510  2.3748
 5796SOL     OW18072   2.428   2.941   2.880 -0.1650  0.9900 -0.3087
 5796SOL    HW118073   2.343   2.913   2.846 -0.5890  3.2524 -1.3191
 5796SOL    HW218074   2.436   3.033   2.852  1.3182  1.7502  2.2442
 5797SOL     OW18075   5.045   7.628   6.190  0.4807 -0.0089  0.0072
 5797SOL    HW118076   5.060   7.699   6.251 -0.5720  1.1910 -1.0836
 5797SOL    HW218077   4.952   7.607   6.199  0.2349  0.3934 -1.3457
 5798SOL     OW18078   4.488   4.199   7.446 -0.3983  0.5341  0.6476
 5798SOL    HW118079   4.423   4.227   7.511 -0.1201 -1.4859  1.8672
 5798SOL    HW218080   4.546   4.140   7.494 -0.6213 -1.6466 -1.5784
 5799SOL     OW18081   2.517   0.672   6.835  0.1074 -0.0901 -0.0050
 5799SOL    HW118082   2.574   0.747   6.815  0.8324 -1.0020 -1.5692
 5799SOL    HW218083   2.572   0.613   6.886  0.1703 -0.4088 -0.4369
 5800SOL     OW18084   7.028   2.168   6.221 -0.0433  0.9110  0.2618
 5800SOL    HW118085   7.086   2.244   6.228  3.3796 -1.4245 -0.1286
 5800SOL    HW218086   7.087   2.094   6.208 -3.1440 -1.8994  0.7278
 5801SOL     OW18087   4.431   5.959   2.858 -0.1738  0.0634 -0.5279
 5801SOL    HW118088   4.490   6.016   2.907  1.4642 -0.6304 -1.5870
 5801SOL    HW218089   4.401   5.894   2.921  0.8463 -0.0352 -0.1327
 5802SOL     OW18090   7.331   2.415   4.842  0.0488 -0.1956 -0.0922
 5802SOL    HW118091   7.239   2.389   4.842  0.0567 -0.2405  0.6385
 5802SOL    HW218092   7.366   2.380   4.760 -0.3873 -0.8844  0.0134
 5803SOL     OW18093   5.945   7.534   6.572 -0.5229 -0.2515  0.7246
 5803SOL    HW118094   6.001   7.599   6.614 -0.2564 -0.1123  0.1703
 5803SOL    HW218095   5.890   7.499   6.642  1.5294 -1.7543  1.6590
 5804SOL     OW18096   5.714   6.119   4.681 -0.6600  0.0407 -0.2514
 5804SOL    HW118097   5.733   6.189   4.743  0.6818 -0.7210  0.2273
 5804SOL    HW218098   5.658   6.058   4.730  0.8450 -0.8347  0.4231
 5805SOL     OW18099   7.618   7.546   0.496 -0.0282 -0.1011 -0.0971
 5805SOL    HW118100   7.648   7.503   0.416 -2.0265 -1.1371 -0.3462
 5805SOL    HW218101   7.644   7.487   0.566 -0.7785 -0.6141 -0.2443
 5806SOL     OW18102   0.690   4.757   5.324 -0.6830 -0.4659  0.0135
 5806SOL    HW118103   0.751   4.685   5.339 -0.5629 -0.4892 -0.5453
 5806SOL    HW218104   0.744   4.835   5.323 -0.4190 -0.6118 -1.8696
 5807SOL     OW18105   5.898   6.688   3.013  0.1420  0.7158  0.3232
 5807SOL    HW118106   5.918   6.721   2.926  1.3746  2.2588  1.1545
 5807SOL    HW218107   5.833   6.750   3.047 -0.1483  0.2598  0.6072
 5808SOL     OW18108   2.464   6.740   6.623 -0.0041 -0.8193  0.5050
 5808SOL    HW118109   2.448   6.809   6.687 -0.2653 -0.7387  0.3542
 5808SOL    HW218110   2.558   6.721   6.631  0.0828 -0.4003  0.4976
 5809SOL     OW18111   2.933   7.634   4.768 -0.0675  0.7411  0.6931
 5809SOL    HW118112   2.891   7.628   4.853  0.2549 -0.4265  0.7758
 5809SOL    HW218113   2.906   7.555   4.721  1.0223  0.5818  0.2959
 5810SOL     OW18114   7.020   7.757   3.354 -0.2099  0.1385  0.4993
 5810SOL    HW118115   6.929   7.735   3.377  0.2423 -0.2001  2.0733
 5810SOL    HW218116   7.061   7.778   3.438  2.2669 -3.7505  0.5004
 5811SOL     OW18117   3.145   6.445   2.870  0.1652  0.2851  0.7830
 5811SOL    HW118118   3.170   6.512   2.806  1.7371 -1.4543 -0.5518
 5811SOL    HW218119   3.204   6.460   2.944  2.2432 -1.0164 -0.5110
 5812SOL     OW18120   5.049   5.268   4.774 -0.3524 -0.0889 -0.3585
 5812SOL    HW118121   5.097   5.351   4.776  0.1200 -0.3068 -1.5647
 5812SOL    HW218122   4.997   5.268   4.854  2.3078 -0.2429  1.5073
 5813SOL     OW18123   6.024   3.221   3.251 -0.1651 -0.2943 -0.3827
 5813SOL    HW118124   6.065   3.296   3.293 -0.8306 -1.4080  2.5145
 5813SOL    HW218125   5.938   3.253   3.222  0.8522  0.8588 -2.3085
 5814SOL     OW18126   5.110   1.346   7.660  0.5099  0.0238  0.4115
 5814SOL    HW118127   5.097   1.357   7.566  0.3614  2.7722  0.6913
 5814SOL    HW218128   5.166   1.419   7.685 -0.0313 -0.2454  2.5817
 5815SOL     OW18129   7.244   4.137   4.949  0.3102  0.2663 -0.2751
 5815SOL    HW118130   7.283   4.157   4.865  0.8020  2.0209  0.3249
 5815SOL    HW218131   7.313   4.092   4.998  1.1793  2.1775  0.3175
 5816SOL     OW18132   1.403   3.017   7.187 -0.2943  0.3629  0.5330
 5816SOL    HW118133   1.394   3.004   7.093  2.0532  1.5171  0.0708
 5816SOL    HW218134   1.443   2.936   7.219 -2.7858 -0.7943  0.9294
 5817SOL     OW18135   7.573   7.516   0.047 -0.5157  0.3452  0.4330
 5817SOL    HW118136   7.544   7.461  -0.025  0.9903 -2.3320  1.7457
 5817SOL    HW218137   7.620   7.588   0.004  0.1101 -1.0172 -1.2950
 5818SOL     OW18138   0.874   6.496   3.788  0.0194 -0.1622 -0.0844
 5818SOL    HW118139   0.792   6.542   3.807 -0.3110 -0.8675  0.2222
 5818SOL    HW218140   0.866   6.414   3.835  2.5030  1.2657  3.1756
 5819SOL     OW18141   3.545   6.628   2.301  0.4209 -0.0005  0.3838
 5819SOL    HW118142   3.574   6.691   2.236  0.0911  0.4247  0.6436
 5819SOL    HW218143   3.528   6.548   2.251  0.8055  0.1236  0.0490
 5820SOL     OW18144   7.380   0.563   1.789 -0.9052 -0.1625 -0.1675
 5820SOL    HW118145   7.409   0.478   1.754 -0.7196  0.2257 -0.9806
 5820SOL    HW218146   7.444   0.585   1.856 -0.1526 -0.0111 -0.9246
 5821SOL     OW18147   6.256   2.851   2.848 -0.1708 -0.0881 -0.7149
 5821SOL    HW118148   6.231   2.913   2.916  0.7793  0.0377 -0.4683
 5821SOL    HW218149   6.199   2.873   2.774  0.0796  1.0133 -0.5963
 5822SOL     OW18150   5.239   7.631   4.914  0.1791  0.2293 -0.3000
 5822SOL    HW118151   5.157   7.670   4.945  1.1905  0.5419  2.1425
 5822SOL    HW218152   5.223   7.536   4.918  0.2178  0.2582  1.1229
 5823SOL     OW18153   4.061   4.847   2.624  0.2948  0.6583 -0.4827
 5823SOL    HW118154   4.020   4.871   2.541  1.5640  1.2777 -0.9513
 5823SOL    HW218155   3.996   4.792   2.668 -0.6865  0.9275 -1.5592
 5824SOL     OW18156   2.253   3.687   3.531 -0.1939  0.3526 -0.3070
 5824SOL    HW118157   2.284   3.610   3.577 -3.5091 -0.8018  0.2352
 5824SOL    HW218158   2.329   3.715   3.478  2.1745 -1.1780  2.0144
 5825SOL     OW18159   4.010   5.579   0.323 -0.3989 -0.0667 -0.0252
 5825SOL    HW118160   3.971   5.544   0.243  0.7238 -0.0915 -0.5807
 5825SOL    HW218161   4.090   5.527   0.336  0.5185  1.2899 -0.0464
 5826SOL     OW18162   6.470   0.471   3.134 -1.0065  0.3762  0.2362
 5826SOL    HW118163   6.424   0.418   3.068 -1.3104  1.1168 -0.1590
 5826SOL    HW218164   6.490   0.553   3.089  1.8154 -0.3345 -0.0185
 5827SOL     OW18165   1.843   1.444   3.464 -0.4263  0.6746 -0.2101
 5827SOL    HW118166   1.870   1.410   3.379  1.6255 -0.5458  0.8564
 5827SOL    HW218167   1.752   1.416   3.473  0.3297 -2.1979 -0.5949
 5828SOL     OW18168   6.795   1.727   5.520  1.0132 -0.1431 -0.1968
 5828SOL    HW118169   6.747   1.809   5.522  0.6569 -0.3569  0.2810
 5828SOL    HW218170   6.884   1.750   5.546  0.3239 -0.2795  2.6320
 5829SOL     OW18171   1.166   2.195   0.524  0.1272 -0.0339 -0.1082
 5829SOL    HW118172   1.087   2.246   0.543  0.4190  0.0658  0.9170
 5829SOL    HW218173   1.170   2.131   0.596  1.3955  0.4836  0.2988
 5830SOL     OW18174   3.224   5.270   3.480  0.0322 -0.3496 -0.3732
 5830SOL    HW118175   3.317   5.264   3.499 -0.0537 -0.8428 -0.0598
 5830SOL    HW218176   3.211   5.212   3.405 -0.0212 -0.3031 -0.3998
 5831SOL     OW18177   5.663   3.544   0.262 -0.3045  0.0400  0.2069
 5831SOL    HW118178   5.666   3.561   0.356 -1.0959 -0.8807  0.4116
 5831SOL    HW218179   5.748   3.573   0.229  0.2460 -0.2811  1.3181
 5832SOL     OW18180   1.321   0.012   3.487 -0.7564 -0.1908  0.6142
 5832SOL    HW118181   1.261   0.086   3.477  0.3325  0.8307  1.3685
 5832SOL    HW218182   1.265  -0.063   3.501 -1.8752  0.9958  3.0599
 5833SOL     OW18183   6.072   5.901   5.408 -0.0318 -0.7030  0.2178
 5833SOL    HW118184   6.037   5.981   5.369  0.4264  0.3166  1.8233
 5833SOL    HW218185   6.020   5.831   5.369 -2.3260  0.5639  0.8302
 5834SOL     OW18186   0.151   3.043   3.514  0.6225  0.2801 -0.2916
 5834SOL    HW118187   0.196   3.111   3.564  0.8092  0.4676 -0.7078
 5834SOL    HW218188   0.145   3.078   3.425 -0.7143  0.4259 -0.1639
 5835SOL     OW18189   3.002   4.258   3.786  0.0858 -0.1060 -0.0433
 5835SOL    HW118190   2.916   4.286   3.816  0.8388  1.9241  0.4274
 5835SOL    HW218191   2.999   4.269   3.691 -0.7843 -1.9729 -0.2607
 5836SOL     OW18192   3.765   0.693   5.245  0.6331  0.5337 -0.0171
 5836SOL    HW118193   3.761   0.739   5.328 -0.0323  0.7312 -0.1536
 5836SOL    HW218194   3.805   0.756   5.184 -1.2059  1.3505 -0.4555
 5837SOL     OW18195   7.537   3.564   5.339  0.1827  0.1461  0.0300
 5837SOL    HW118196   7.555   3.488   5.284  0.7297  0.0803  0.2928
 5837SOL    HW218197   7.619   3.579   5.387 -0.1927  0.3836  0.6074
 5838SOL     OW18198   0.852   0.004   3.262 -0.0123  0.1760  1.1726
 5838SOL    HW118199   0.757  -0.003   3.275 -0.6461 -0.4264 -2.6629
 5838SOL    HW218200   0.867   0.097   3.246  0.0692  0.2618  1.7178
 5839SOL     OW18201   1.443   7.113   3.583 -0.2382  0.2965 -1.0016
 5839SOL    HW118202   1.507   7.165   3.631 -0.0324 -0.3658 -0.5446
 5839SOL    HW218203   1.415   7.170   3.511  0.0406  1.0026 -0.5637
 5840SOL     OW18204   5.563   1.514   3.986 -0.0117  0.4367 -0.7125
 5840SOL    HW118205   5.526   1.466   4.060 -1.0327  2.0989 -0.0845
 5840SOL    HW218206   5.506   1.590   3.976 -0.1491  0.0730 -3.4926
 5841SOL     OW18207   6.079   0.498   3.801 -0.2752 -0.3277 -0.1711
 5841SOL    HW118208   6.156   0.442   3.789  0.5914  1.1619 -2.2494
 5841SOL    HW218209   6.079   0.554   3.724 -2.7879  0.5437  0.3876
 5842SOL     OW18210   0.534   1.350   5.617  0.7926 -0.3110  0.2241
 5842SOL    HW118211   0.473   1.418   5.645  1.4946  0.0561  0.8677
 5842SOL    HW218212   0.511   1.335   5.525 -0.1015 -0.0090  0.3834
 5843SOL     OW18213   2.171   7.673   6.321  0.0638  0.2352  0.8330
 5843SOL    HW118214   2.094   7.670   6.265  1.5142  0.2589 -1.2663
 5843SOL    HW218215   2.204   7.583   6.321  1.9775  0.8524 -1.2497
 5844SOL     OW18216   5.496   5.746   4.656 -0.7930 -0.4110 -0.4873
 5844SOL    HW118217   5.509   5.737   4.750 -1.9318 -1.8465 -0.4355
 5844SOL    HW218218   5.469   5.837   4.644 -4.3470 -1.0879  1.1099
 5845SOL     OW18219   4.179   4.117   3.985  0.1263 -0.6754  0.2781
 5845SOL    HW118220   4.170   4.182   3.915 -0.4799  0.7935  1.6687
 5845SOL    HW218221   4.188   4.034   3.939  0.7237  0.3495 -1.5626
 5846SOL     OW18222   3.051   6.903   2.995 -0.0184 -0.0404 -0.0590
 5846SOL    HW118223   3.084   6.902   2.905  1.9689  0.9331  0.6194
 5846SOL    HW218224   2.957   6.886   2.985 -0.0379  1.0245 -2.3858
 5847SOL     OW18225   0.756   3.532   1.592 -0.1174  0.2041 -0.2642
 5847SOL    HW118226   0.782   3.445   1.620 -1.6191 -0.8983 -2.0700
 5847SOL    HW218227   0.660   3.531   1.596 -0.2401  1.1660 -1.9752
 5848SOL     OW18228   2.256   5.454   6.424 -0.4363 -0.3601  0.3044
 5848SOL    HW118229   2.224   5.382   6.479  0.2570 -0.0787  1.0902
 5848SOL    HW218230   2.342   5.426   6.395 -0.2440  0.0686  0.4519
 5849SOL     OW18231   2.206   1.291   4.958 -0.1365  0.1498  0.0022
 5849SOL    HW118232   2.293   1.329   4.951 -0.1524  0.0728 -0.6548
 5849SOL    HW218233   2.205   1.248   5.044  0.4872  0.1069 -0.0119
 5850SOL     OW18234   2.433   3.161   1.497 -0.2438  0.2324 -1.0403
 5850SOL    HW118235   2.524   3.137   1.512 -0.3900  0.3288  0.0995
 5850SOL    HW218236   2.427   3.173   1.403  0.9756  0.4313 -1.1121
 5851SOL     OW18237   1.850   4.029   4.846  0.1553  0.1996  0.3346
 5851SOL    HW118238   1.898   4.111   4.835 -0.1973  0.3867  0.1870
 5851SOL    HW218239   1.917   3.961   4.837  0.3439  0.4456 -0.1590
 5852SOL     OW18240   3.865   2.010   4.974 -0.1223 -0.4594 -0.2847
 5852SOL    HW118241   3.882   2.045   4.887 -1.2519 -0.8711 -0.6910
 5852SOL    HW218242   3.912   2.069   5.034 -0.5465  0.6977 -1.0663
 5853SOL     OW18243   0.322   2.100   2.478 -0.3344 -0.1915 -0.8402
 5853SOL    HW118244   0.387   2.104   2.408 -0.3772  1.6082 -0.8360
 5853SOL    HW218245   0.322   2.188   2.515 -1.4993 -0.6578  0.3402
 5854SOL     OW18246   3.958   0.137   2.119 -0.6387  0.2633 -0.4093
 5854SOL    HW118247   3.981   0.163   2.030  1.4593 -2.2742 -0.7429
 5854SOL    HW218248   4.023   0.181   2.174 -0.4438 -0.0221 -0.4076
 5855SOL     OW18249   4.456   0.369   2.275  0.2454  0.0968 -0.4625
 5855SOL    HW118250   4.422   0.391   2.189 -0.7634 -0.2584 -0.1712
 5855SOL    HW218251   4.431   0.442   2.331 -0.1903 -0.2356 -0.2134
 5856SOL     OW18252   6.010   3.764   7.115 -0.3407  0.3573  0.4603
 5856SOL    HW118253   6.054   3.685   7.085 -1.4769  0.1631 -0.8491
 5856SOL    HW218254   5.919   3.737   7.127 -1.0697  1.7313 -1.4120
 5857SOL     OW18255   0.236   2.976   5.087  0.4240  0.3539 -0.3506
 5857SOL    HW118256   0.315   3.023   5.114  0.7240  0.0319 -0.6476
 5857SOL    HW218257   0.172   2.996   5.155  1.6573 -1.8335  1.6003
 5858SOL     OW18258   3.149   7.227   6.651  0.8150 -0.7556  0.3078
 5858SOL    HW118259   3.223   7.254   6.706  1.7006 -2.9456  0.3272
 5858SOL    HW218260   3.141   7.133   6.668 -0.9844 -0.8674 -0.9036
 5859SOL     OW18261   0.412   6.454   6.263  0.1564 -0.3604  0.0975
 5859SOL    HW118262   0.414   6.506   6.183  0.4906  0.0040  0.3405
 5859SOL    HW218263   0.363   6.507   6.326  1.1384  0.0004  0.5741
 5860SOL     OW18264   1.122   1.957   0.172 -0.0059 -0.5223  0.4036
 5860SOL    HW118265   1.033   1.946   0.138 -0.5351  1.7266  0.9029
 5860SOL    HW218266   1.178   1.947   0.095 -0.9291  0.9219 -0.5079
 5861SOL     OW18267   2.362   4.181   6.130 -0.9745  0.3680  0.0199
 5861SOL    HW118268   2.415   4.131   6.192 -0.2703 -0.8298 -1.4892
 5861SOL    HW218269   2.280   4.199   6.177 -0.4895 -0.5436  1.2570
 5862SOL     OW18270   0.910   4.531   2.201  0.0391 -0.9815 -0.0820
 5862SOL    HW118271   0.920   4.487   2.117  0.5892 -1.0400  0.0073
 5862SOL    HW218272   0.866   4.466   2.256  0.5489 -1.3123 -0.0485
 5863SOL     OW18273   6.539   4.982   3.878 -0.3351  0.3130 -0.0550
 5863SOL    HW118274   6.532   5.077   3.873 -0.0773  0.3104 -0.4442
 5863SOL    HW218275   6.566   4.965   3.968 -1.7835  0.5258  0.4446
 5864SOL     OW18276   5.179   2.833   2.584  0.0224 -0.6435  0.2118
 5864SOL    HW118277   5.223   2.781   2.518  0.0670 -1.6489  1.0036
 5864SOL    HW218278   5.198   2.924   2.560  0.7772 -1.0102 -0.6297
 5865SOL     OW18279   0.395   2.643   6.277  0.6382  0.4994 -0.2430
 5865SOL    HW118280   0.375   2.735   6.259  0.7035  0.6342  0.3710
 5865SOL    HW218281   0.373   2.631   6.369 -0.1948 -0.3257 -0.5383
 5866SOL     OW18282   6.558   4.688   3.057 -0.4237 -0.2439 -0.1046
 5866SOL    HW118283   6.529   4.768   3.101 -2.3013 -1.3401  0.7646
 5866SOL    HW218284   6.600   4.637   3.126  2.1512  0.5587 -0.9745
 5867SOL     OW18285   2.170   0.374   3.777  0.2304  0.3387  0.1540
 5867SOL    HW118286   2.207   0.460   3.759  0.4634  0.0992 -0.5468
 5867SOL    HW218287   2.152   0.337   3.691  0.7340 -0.5818  0.4337
 5868SOL     OW18288   2.541   6.571   5.272  0.3715 -0.0024 -0.2741
 5868SOL    HW118289   2.632   6.587   5.298 -0.0873 -1.3054  2.4146
 5868SOL    HW218290   2.541   6.483   5.235  0.0661 -0.4514  0.7496
 5869SOL     OW18291   1.340   1.058   5.785  0.0091  0.5606 -0.1804
 5869SOL    HW118292   1.315   1.054   5.692  1.7282 -0.7632 -0.6407
 5869SOL    HW218293   1.429   1.023   5.787 -0.2574 -0.1319  2.0984
 5870SOL     OW18294   6.435   7.259   3.659  0.0325 -0.5343  0.3974
 5870SOL    HW118295   6.408   7.313   3.733 -2.0673 -2.0035  0.8243
 5870SOL    HW218296   6.375   7.283   3.588  1.0575 -0.1847 -0.3687
 5871SOL     OW18297   0.601   4.307   0.647 -0.4649  0.3827  0.1909
 5871SOL    HW118298   0.578   4.220   0.679 -1.0916  0.7160  0.6676
 5871SOL    HW218299   0.517   4.352   0.636 -0.1769  0.7849 -0.4752
 5872SOL     OW18300   4.134   2.448   7.138  0.3379 -0.0269  0.9779
 5872SOL    HW118301   4.039   2.463   7.142 -0.0061 -1.5488 -0.3841
 5872SOL    HW218302   4.166   2.475   7.224 -1.3076  0.6353  1.4287
 5873SOL     OW18303   0.572   3.056   2.896 -0.0624  0.8810 -0.2097
 5873SOL    HW118304   0.558   2.961   2.894  0.7417  0.7494 -0.0762
 5873SOL    HW218305   0.634   3.069   2.968 -1.6240  1.7210  1.0413
 5874SOL     OW18306   1.970   7.213   7.406  0.0308 -0.0219  0.5596
 5874SOL    HW118307   1.958   7.307   7.394  2.5788  0.3429  0.1288
 5874SOL    HW218308   1.985   7.202   7.500  2.4987  0.5106  0.3149
 5875SOL     OW18309   4.252   3.003   6.924  0.1626  0.7230  0.1801
 5875SOL    HW118310   4.340   3.017   6.889  0.2561 -1.0875 -0.3963
 5875SOL    HW218311   4.266   2.969   7.012  0.0858 -0.1992 -0.1495
 5876SOL     OW18312   0.610   5.638   6.303 -0.5624 -0.1596  0.9440
 5876SOL    HW118313   0.517   5.632   6.280 -0.2987  0.4933 -0.3828
 5876SOL    HW218314   0.629   5.732   6.301  0.0595 -0.2691  1.5023
 5877SOL     OW18315   1.533   6.207   1.251  0.3936  0.0884 -0.0857
 5877SOL    HW118316   1.579   6.250   1.323 -0.7838 -3.0692  2.7709
 5877SOL    HW218317   1.585   6.129   1.232  0.7381  0.8616 -2.8963
 5878SOL     OW18318   5.143   1.635   6.721 -0.0358 -0.2478 -0.1224
 5878SOL    HW118319   5.109   1.674   6.641  1.1746  1.7225  0.2597
 5878SOL    HW218320   5.177   1.550   6.695 -0.6370 -0.0913 -1.4686
 5879SOL     OW18321   3.254   0.730   5.547 -0.6100  0.4292  0.3458
 5879SOL    HW118322   3.324   0.755   5.487  0.0208 -0.1802  0.8185
 5879SOL    HW218323   3.221   0.647   5.513 -0.0496 -0.0680  1.0084
 5880SOL     OW18324   2.494   0.160   6.173 -0.2257 -0.0221 -0.0024
 5880SOL    HW118325   2.560   0.193   6.112 -0.1461  1.3194  0.7701
 5880SOL    HW218326   2.412   0.200   6.143 -0.4904 -0.7418 -0.2535
 5881SOL     OW18327   4.067   0.780   3.287 -0.2392  0.0678  0.8992
 5881SOL    HW118328   4.093   0.688   3.289  0.2776  0.2194  2.6442
 5881SOL    HW218329   4.084   0.812   3.375 -1.5368  1.5425  0.6573
 5882SOL     OW18330   1.351   3.437   6.726  0.5978  0.9716 -0.3921
 5882SOL    HW118331   1.438   3.458   6.691  1.4567 -1.9593 -0.2152
 5882SOL    HW218332   1.324   3.359   6.679 -0.7382  0.2490  1.4668
 5883SOL     OW18333   5.969   4.464   0.526  0.5024  0.1390  0.1170
 5883SOL    HW118334   5.969   4.508   0.441 -1.8243 -0.6514 -0.3570
 5883SOL    HW218335   5.939   4.530   0.588  1.6926  0.5604  0.2750
 5884SOL     OW18336   4.559   5.924   3.726 -0.0234  0.1319  0.3905
 5884SOL    HW118337   4.507   5.984   3.672  0.2794  1.2350  1.2894
 5884SOL    HW218338   4.515   5.925   3.811  0.6065 -0.1064  0.7216
 5885SOL     OW18339   1.112   2.292   4.171 -0.2976  0.0024 -0.5318
 5885SOL    HW118340   1.106   2.251   4.257 -1.4405  1.3943  0.0997
 5885SOL    HW218341   1.091   2.222   4.109 -2.3555 -0.3581  0.5088
 5886SOL     OW18342   5.172   1.534   0.278 -0.0850 -0.1835  0.3955
 5886SOL    HW118343   5.226   1.455   0.289 -0.7147 -0.5975  0.5406
 5886SOL    HW218344   5.234   1.601   0.251  0.8188 -0.2324  2.2045
 5887SOL     OW18345   2.303   2.149   6.472 -0.2370 -0.5369 -0.4583
 5887SOL    HW118346   2.297   2.152   6.568 -0.4392 -1.7795 -0.4151
 5887SOL    HW218347   2.345   2.231   6.448  1.4165 -0.9663  0.8303
 5888SOL     OW18348   1.686   5.117   6.057 -0.3787  0.4479 -0.2563
 5888SOL    HW118349   1.766   5.105   6.007 -0.6234 -0.2151 -0.4918
 5888SOL    HW218350   1.664   5.210   6.044 -0.7963  0.1461 -1.9150
 5889SOL     OW18351   6.182   2.894   6.057  0.2942 -0.6549 -0.2892
 5889SOL    HW118352   6.136   2.933   5.983 -1.1266 -0.3434  0.7038
 5889SOL    HW218353   6.173   2.800   6.044 -1.9799 -0.6143  0.6305
 5890SOL     OW18354   7.332   1.081   1.586  0.2055 -0.3790 -0.3120
 5890SOL    HW118355   7.402   1.125   1.538  0.3203  0.1708  0.3447
 5890SOL    HW218356   7.337   0.990   1.558  1.2420 -0.3600 -0.2113
 5891SOL     OW18357   0.645   6.253   2.632 -0.4247 -0.6200  0.9395
 5891SOL    HW118358   0.625   6.233   2.723 -1.1573 -1.0624  0.6827
 5891SOL    HW218359   0.737   6.229   2.622 -0.2159 -0.1583  1.6746
 5892SOL     OW18360   2.723   5.787   5.187  0.4257 -0.2932 -0.1819
 5892SOL    HW118361   2.651   5.805   5.248  0.3601  2.2271 -0.8944
 5892SOL    HW218362   2.679   5.753   5.109  0.3790 -2.0606  0.5637
 5893SOL     OW18363   3.865   5.621   6.067 -0.1208 -0.0802 -0.1884
 5893SOL    HW118364   3.860   5.640   6.161 -1.5305  0.0809 -0.2640
 5893SOL    HW218365   3.953   5.647   6.042  0.9509 -1.8912  1.4408
 5894SOL     OW18366   7.771   5.519   0.325  0.1150  0.4911  0.5323
 5894SOL    HW118367   7.840   5.462   0.292  0.9796  0.8458  1.6691
 5894SOL    HW218368   7.690   5.484   0.287  0.8375 -0.3527 -0.2579
 5895SOL     OW18369   1.940   3.079   7.583  0.0419 -0.3984 -0.2990
 5895SOL    HW118370   1.969   3.141   7.650 -1.4223  0.0652 -0.0492
 5895SOL    HW218371   1.952   3.125   7.500 -0.9716  0.2180 -0.1189
 5896SOL     OW18372   2.759   2.482   6.156  0.5747 -0.3522  0.0518
 5896SOL    HW118373   2.797   2.533   6.085  2.1705  1.8897  2.3329
 5896SOL    HW218374   2.665   2.483   6.139  0.9372 -0.3588 -2.2576
 5897SOL     OW18375   5.485   7.510   6.989 -0.4493  0.3305  0.2004
 5897SOL    HW118376   5.581   7.510   6.992 -0.4348  0.2494 -0.1263
 5897SOL    HW218377   5.460   7.426   7.027 -0.3100 -0.4566 -1.3582
 5898SOL     OW18378   2.256   3.978   4.749  0.0518  0.6172 -0.5559
 5898SOL    HW118379   2.220   4.066   4.760  1.3177  1.2300 -1.0893
 5898SOL    HW218380   2.180   3.920   4.757 -0.9914  1.8240 -1.2393
 5899SOL     OW18381   4.658   0.294   3.381  0.5736 -0.0576  0.3119
 5899SOL    HW118382   4.584   0.247   3.344  0.5901  0.0925  0.0797
 5899SOL    HW218383   4.630   0.319   3.469  0.3697 -0.0509  0.2453
 5900SOL     OW18384   3.585   3.979   3.856 -0.4308 -0.2191 -0.6001
 5900SOL    HW118385   3.564   4.045   3.923  1.2363 -0.1973 -0.0670
 5900SOL    HW218386   3.534   4.006   3.780 -0.8557  0.8900  0.0490
 5901SOL     OW18387   6.464   6.762   3.226 -0.0793  0.1758 -0.2415
 5901SOL    HW118388   6.551   6.763   3.187 -0.3821  0.1509 -0.9288
 5901SOL    HW218389   6.444   6.669   3.238  0.2537  0.1968  0.5339
 5902SOL     OW18390   1.373   3.007   3.589 -0.1176 -0.0506 -0.9168
 5902SOL    HW118391   1.455   2.968   3.559  0.8396  0.2097  1.1897
 5902SOL    HW218392   1.347   2.953   3.664 -1.1503  0.7110 -0.7075
 5903SOL     OW18393   0.339   1.013   4.290  0.1075  0.4104  0.4554
 5903SOL    HW118394   0.406   0.966   4.340  1.2074 -1.5355 -2.6184
 5903SOL    HW218395   0.265   0.953   4.287  0.6773 -0.2451 -1.5819
 5904SOL     OW18396   6.349   2.189   7.265  0.5590 -0.4669 -0.2534
 5904SOL    HW118397   6.319   2.256   7.326  0.9680 -0.7149  0.2335
 5904SOL    HW218398   6.345   2.108   7.315  0.7260 -0.7001 -0.6152
 5905SOL     OW18399   0.485   3.120   5.178 -0.1494  0.1097 -0.4201
 5905SOL    HW118400   0.467   3.075   5.260  0.4547 -0.5534 -0.6310
 5905SOL    HW218401   0.475   3.213   5.198 -2.0393 -0.1142 -0.1217
 5906SOL     OW18402   0.989   4.393   4.983  0.5485  0.0688  0.2962
 5906SOL    HW118403   0.935   4.455   4.933 -1.2589 -1.4604  0.2578
 5906SOL    HW218404   0.995   4.433   5.070 -0.4144  0.4370  0.2143
 5907SOL     OW18405   3.904   4.877   5.989  0.7078 -0.7150  0.2821
 5907SOL    HW118406   3.891   4.964   6.027  0.5873 -0.2047 -0.8994
 5907SOL    HW218407   3.890   4.889   5.896 -1.2344 -2.3916  0.3042
 5908SOL     OW18408   1.401   2.263   4.467 -0.6324  0.3628  0.2063
 5908SOL    HW118409   1.337   2.299   4.528 -0.7482 -1.7626  1.4476
 5908SOL    HW218410   1.359   2.184   4.432  0.2616  0.4181 -1.0530
 5909SOL     OW18411   2.462   5.433   5.223 -0.2525  0.2176 -0.3204
 5909SOL    HW118412   2.432   5.478   5.144 -1.4273  1.7859  0.9590
 5909SOL    HW218413   2.446   5.340   5.206 -1.0460  0.5804 -1.6702
 5910SOL     OW18414   0.153   2.565   4.796  0.0413  0.5230  0.2362
 5910SOL    HW118415   0.213   2.540   4.726 -0.3273  0.1256  0.0548
 5910SOL    HW218416   0.095   2.629   4.756  0.2997  0.8597  0.3940
 5911SOL     OW18417   5.736   7.703   1.516  0.2075 -0.4026 -0.1622
 5911SOL    HW118418   5.826   7.692   1.484  0.6430 -0.4675  1.0525
 5911SOL    HW218419   5.681   7.671   1.443  1.0605  1.5693 -1.7515
 5912SOL     OW18420   3.533   4.658   1.537  0.3277 -0.3515 -0.2311
 5912SOL    HW118421   3.485   4.741   1.539  1.4059  0.3850 -2.1258
 5912SOL    HW218422   3.505   4.612   1.616 -1.7547  0.9922 -0.1101
 5913SOL     OW18423   2.430   5.238   3.520  0.7960 -0.1400  0.3886
 5913SOL    HW118424   2.524   5.224   3.533  0.8676 -0.2252 -0.2246
 5913SOL    HW218425   2.389   5.161   3.559  1.0528 -0.7757 -0.5923
 5914SOL     OW18426   6.080   1.208   2.520  0.1458  0.0616  0.1031
 5914SOL    HW118427   6.147   1.141   2.506 -1.1348 -0.9483 -1.7505
 5914SOL    HW218428   5.998   1.165   2.495 -0.9864  1.7434  0.7403
 5915SOL     OW18429   7.386   7.144   3.956  0.7208 -0.3227 -0.5577
 5915SOL    HW118430   7.454   7.150   4.024  0.3775 -0.3816 -0.2055
 5915SOL    HW218431   7.306   7.120   4.004  0.4664 -0.3276 -0.9789
 5916SOL     OW18432   4.738   7.098   3.162 -0.2690  0.5813 -0.4526
 5916SOL    HW118433   4.766   7.101   3.253 -0.9535 -0.1816 -0.2022
 5916SOL    HW218434   4.815   7.067   3.113 -0.3974 -0.6988  0.1097
 5917SOL     OW18435   0.292   5.104   5.963  0.0174  0.5707  0.3086
 5917SOL    HW118436   0.242   5.165   6.017 -0.8749  2.2184 -2.1792
 5917SOL    HW218437   0.365   5.157   5.929  1.3378 -0.7860  0.9058
 5918SOL     OW18438   0.208   5.725   7.000  0.4622  0.3337  0.5592
 5918SOL    HW118439   0.138   5.771   6.955  0.5795 -0.7518 -0.7854
 5918SOL    HW218440   0.275   5.792   7.014 -0.0767  0.9588  0.2072
 5919SOL     OW18441   3.836   4.970   7.376 -0.5433  0.5671  0.3871
 5919SOL    HW118442   3.868   4.965   7.286 -1.0501  0.5489  0.2033
 5919SOL    HW218443   3.824   4.879   7.403 -1.9727  0.5727 -0.1161
 5920SOL     OW18444   1.633   6.331   4.360 -0.1498  0.1798 -0.8597
 5920SOL    HW118445   1.684   6.318   4.440 -0.3666  0.2232 -0.7129
 5920SOL    HW218446   1.617   6.426   4.357 -0.1727  0.1734 -0.9343
 5921SOL     OW18447   4.799   6.938   4.637 -1.0829 -0.4191 -0.3217
 5921SOL    HW118448   4.712   6.965   4.668 -0.6701  0.6947 -0.0863
 5921SOL    HW218449   4.835   6.885   4.708 -0.3961  1.5866  0.9300
 5922SOL     OW18450   4.390   6.965   6.371  0.0149  0.4013 -0.4178
 5922SOL    HW118451   4.357   7.043   6.416 -0.4996 -0.0659  0.0217
 5922SOL    HW218452   4.314   6.929   6.326  0.5661  0.9873 -1.8862
 5923SOL     OW18453   1.891   5.614   0.650 -0.2262 -0.1489 -0.1257
 5923SOL    HW118454   1.827   5.574   0.591 -0.5163  1.2028 -0.7667
 5923SOL    HW218455   1.955   5.654   0.591  0.1980  0.1036  0.4999
 5924SOL     OW18456   6.325   2.339   1.777 -0.1363 -0.1986 -0.0051
 5924SOL    HW118457   6.298   2.407   1.715 -2.6141  1.4230  2.5908
 5924SOL    HW218458   6.257   2.272   1.770  1.0269 -1.3355 -0.8680
 5925SOL     OW18459   5.199   3.303   6.192  0.4947  1.0720  0.2213
 5925SOL    HW118460   5.230   3.337   6.276  0.4946  0.0056  0.6543
 5925SOL    HW218461   5.207   3.208   6.199 -0.4037  0.9150 -0.6328
 5926SOL     OW18462   4.296   0.627   3.456 -0.1710 -0.3249 -0.0352
 5926SOL    HW118463   4.369   0.687   3.469 -0.7010  0.3147  0.0601
 5926SOL    HW218464   4.226   0.663   3.510 -0.2777 -1.4336  0.5796
 5927SOL     OW18465   5.271   3.129   3.482 -0.1630 -0.3037  0.3740
 5927SOL    HW118466   5.231   3.054   3.526 -0.9911 -0.4817 -0.6389
 5927SOL    HW218467   5.326   3.170   3.549 -1.2012 -0.6966  1.5118
 5928SOL     OW18468   6.201   3.197   4.679  0.6111  0.0039  0.2109
 5928SOL    HW118469   6.112   3.163   4.682  0.6849 -0.5886 -2.3693
 5928SOL    HW218470   6.191   3.292   4.680 -0.4469  0.1199 -3.8269
 5929SOL     OW18471   4.495   3.818   5.993 -0.1018  0.1443  0.0932
 5929SOL    HW118472   4.581   3.859   6.003  0.7916 -1.8067  1.1627
 5929SOL    HW218473   4.478   3.819   5.899  0.7558  1.2122 -0.0637
 5930SOL     OW18474   4.895   1.408   6.614 -0.5842  0.4625  0.2066
 5930SOL    HW118475   4.950   1.355   6.671  0.3740 -0.8648 -1.8532
 5930SOL    HW218476   4.858   1.346   6.551 -0.4177  2.0429 -1.5313
 5931SOL     OW18477   1.983   3.209   0.049 -0.4367  0.1951 -0.1078
 5931SOL    HW118478   1.908   3.211   0.108 -1.3134 -0.7589 -1.1526
 5931SOL    HW218479   2.048   3.156   0.095 -0.9292 -0.1454  0.2011
 5932SOL     OW18480   3.027   1.882   5.046  0.3581 -0.3727 -0.4824
 5932SOL    HW118481   2.987   1.967   5.063 -0.8221 -1.4824  3.4522
 5932SOL    HW218482   2.961   1.835   4.994 -0.2942  0.2073 -0.1997
 5933SOL     OW18483   1.295   7.412   0.553 -0.3965 -0.4486  0.2734
 5933SOL    HW118484   1.278   7.396   0.646 -0.6167 -2.3310 -0.0557
 5933SOL    HW218485   1.390   7.424   0.548 -0.4223  0.0081  0.7814
 5934SOL     OW18486   2.551   7.431   1.829  0.3800 -0.1361  0.0632
 5934SOL    HW118487   2.497   7.426   1.908  0.3618 -1.3053  0.0005
 5934SOL    HW218488   2.549   7.523   1.804 -1.7330 -0.1606 -0.0341
 5935SOL     OW18489   5.693   0.415   6.585 -0.3276  0.2565  0.1967
 5935SOL    HW118490   5.767   0.455   6.539 -2.0711  0.9835 -2.1635
 5935SOL    HW218491   5.666   0.481   6.649  1.5822 -0.4018  1.7598
 5936SOL     OW18492   4.147   4.067   4.566 -0.0294 -0.0336 -0.6801
 5936SOL    HW118493   4.200   4.138   4.600  0.7163 -0.3090 -1.2263
 5936SOL    HW218494   4.103   4.104   4.489  1.8960 -0.6598 -2.1676
 5937SOL     OW18495   6.769   6.488   1.507  0.2346 -0.0584  0.2663
 5937SOL    HW118496   6.688   6.470   1.459 -0.4233 -1.4442  1.8001
 5937SOL    HW218497   6.839   6.466   1.446 -0.5488 -0.0773 -0.6455
 5938SOL     OW18498   5.680   7.702   2.153  0.1222 -0.6844  0.2995
 5938SOL    HW118499   5.590   7.680   2.132 -0.0381  0.1112  0.1046
 5938SOL    HW218500   5.718   7.732   2.070 -0.0052  0.8084  0.7434
 5939SOL     OW18501   1.442   4.626   4.881  0.5736  0.4127  0.1377
 5939SOL    HW118502   1.407   4.706   4.841 -0.9729 -0.4548 -0.3157
 5939SOL    HW218503   1.535   4.626   4.856  0.4636  1.7540 -0.3510
 5940SOL     OW18504   0.015   0.287   2.090  0.4598 -0.0411  0.5221
 5940SOL    HW118505   0.079   0.257   2.025  0.8931  0.7271  0.5802
 5940SOL    HW218506  -0.062   0.310   2.038  0.9934  1.0968  0.1985
 5941SOL     OW18507   5.371   3.459   3.841  0.2836  0.1597  0.0681
 5941SOL    HW118508   5.309   3.387   3.836  2.0198 -1.3279 -1.1200
 5941SOL    HW218509   5.318   3.537   3.828 -1.5563 -0.9135  0.7233
 5942SOL     OW18510   0.708   5.894   7.188  0.4026  0.2140 -0.3112
 5942SOL    HW118511   0.629   5.875   7.136 -1.0297  2.5514  0.8463
 5942SOL    HW218512   0.704   5.832   7.261 -1.2921  1.3070  0.5941
 5943SOL     OW18513   3.448   1.027   3.094  0.7077  0.0852 -0.6859
 5943SOL    HW118514   3.464   0.984   3.010 -0.5543 -0.4780 -0.6620
 5943SOL    HW218515   3.382   0.972   3.137 -0.7592  1.8616 -0.5368
 5944SOL     OW18516   1.673   6.450   7.763 -0.1809  0.8340  0.5014
 5944SOL    HW118517   1.686   6.515   7.832  1.6193  0.6082  0.4256
 5944SOL    HW218518   1.743   6.468   7.700 -1.3460  0.5672 -0.9114
 5945SOL     OW18519   1.981   6.876   4.158 -0.1889  0.1023  0.0691
 5945SOL    HW118520   2.007   6.892   4.249  0.3466 -0.2086 -0.0230
 5945SOL    HW218521   1.891   6.907   4.153  0.1220  1.0792  0.4305
 5946SOL     OW18522   1.058   1.706   1.514 -0.8873  0.4046  0.1989
 5946SOL    HW118523   1.037   1.628   1.566 -0.6967  0.0415 -0.2672
 5946SOL    HW218524   1.059   1.777   1.579  0.1774 -0.1736  0.8383
 5947SOL     OW18525   3.170   0.345   2.884 -0.2291 -0.3799  0.1017
 5947SOL    HW118526   3.202   0.424   2.840  1.1506 -0.4117  1.0055
 5947SOL    HW218527   3.158   0.282   2.813 -0.0397  0.2106 -0.4702
 5948SOL     OW18528   1.950   4.102   2.719  0.7195 -0.3746  0.2504
 5948SOL    HW118529   1.992   4.153   2.650  0.2112  0.6931  0.7082
 5948SOL    HW218530   1.989   4.015   2.712  0.7992 -0.2437 -1.2663
 5949SOL     OW18531   5.376   7.261   5.226 -0.2860  0.4251 -0.2099
 5949SOL    HW118532   5.304   7.224   5.176 -0.6644  1.8342 -0.7582
 5949SOL    HW218533   5.334   7.318   5.291  0.2910  0.3672  0.2275
 5950SOL     OW18534   2.878   0.623   6.441  0.2227  0.2983  0.9082
 5950SOL    HW118535   2.853   0.626   6.533 -0.7308  0.9632  0.6408
 5950SOL    HW218536   2.820   0.556   6.403  2.1783 -1.7025  1.2127
 5951SOL     OW18537   7.331   3.640   1.605  0.2021  0.2319  0.4272
 5951SOL    HW118538   7.288   3.671   1.685  0.2173 -0.1260  0.5730
 5951SOL    HW218539   7.378   3.562   1.632 -0.6194 -0.4788 -0.1380
 5952SOL     OW18540   0.342   5.249   6.796  0.5449  0.1330 -0.1847
 5952SOL    HW118541   0.361   5.340   6.819  2.4068 -0.3411  0.2771
 5952SOL    HW218542   0.351   5.245   6.701  1.4137  0.2440 -0.1138
 5953SOL     OW18543   6.153   1.382   4.762 -0.1666  0.3656 -0.3041
 5953SOL    HW118544   6.224   1.366   4.700 -0.3390 -0.9768 -0.1715
 5953SOL    HW218545   6.140   1.299   4.807 -2.0877  0.4418 -0.5983
 5954SOL     OW18546   4.186   0.556   7.709 -0.2268  0.3899  0.3649
 5954SOL    HW118547   4.214   0.537   7.798  0.3077  0.3549  0.1901
 5954SOL    HW218548   4.117   0.622   7.720 -2.3583 -1.7880  1.0045
 5955SOL     OW18549   7.097   1.252   4.327 -0.1418  0.7026  0.0251
 5955SOL    HW118550   7.055   1.189   4.385 -0.6390 -0.3822 -1.4583
 5955SOL    HW218551   7.188   1.222   4.322 -0.6530 -0.7235 -1.6690
 5956SOL     OW18552   5.324   3.753   6.739 -0.4693 -0.2777  0.2217
 5956SOL    HW118553   5.275   3.693   6.683 -2.4526  0.6685  0.8346
 5956SOL    HW218554   5.409   3.764   6.695 -0.4476 -2.6218 -0.4665
 5957SOL     OW18555   1.477   3.048   5.411 -0.0110  0.0150  0.9156
 5957SOL    HW118556   1.556   3.072   5.461  1.2907  0.0815 -1.0411
 5957SOL    HW218557   1.456   3.127   5.361 -0.8485 -0.2731  0.7985
 5958SOL     OW18558   6.107   7.020   4.386  0.5278 -0.3038  0.3580
 5958SOL    HW118559   6.032   6.968   4.414 -0.2068  0.3941 -0.2831
 5958SOL    HW218560   6.137   7.063   4.466  2.1495 -2.8757  1.2521
 5959SOL     OW18561   5.271   6.624   7.029 -0.5257  0.4795 -0.8771
 5959SOL    HW118562   5.191   6.575   7.016 -0.2139  0.1881 -1.7111
 5959SOL    HW218563   5.242   6.707   7.068 -1.0558 -0.3235  0.5051
 5960SOL     OW18564   5.683   2.766   3.436 -0.5900  0.3862  0.0227
 5960SOL    HW118565   5.743   2.777   3.510 -0.4191  0.7906 -0.1755
 5960SOL    HW218566   5.653   2.855   3.416  0.3578  0.4348 -1.2178
 5961SOL     OW18567   4.305   3.950   0.191 -0.3964 -0.0666 -0.1047
 5961SOL    HW118568   4.316   3.941   0.097  1.1876 -0.3749  0.0775
 5961SOL    HW218569   4.214   3.974   0.203 -0.4972  0.4476 -1.7402
 5962SOL     OW18570   4.927   3.932   6.303  0.4143  0.6858 -0.6191
 5962SOL    HW118571   5.022   3.938   6.294  0.6756  0.8170  1.5818
 5962SOL    HW218572   4.896   4.023   6.300  0.5020  0.7310 -0.2277
 5963SOL     OW18573   1.342   1.138   1.582  0.4972 -0.4539  0.3021
 5963SOL    HW118574   1.254   1.140   1.620  1.2295  0.6337  2.0790
 5963SOL    HW218575   1.378   1.054   1.609 -0.4622 -1.5709 -1.6924
 5964SOL     OW18576   1.586   1.248   6.030 -0.3103  0.0559 -0.1517
 5964SOL    HW118577   1.626   1.195   5.961  0.3765  0.2937  0.0553
 5964SOL    HW218578   1.539   1.185   6.085  0.3223 -0.3100 -0.0311
 5965SOL     OW18579   5.528   1.133   4.979  0.0766 -0.2419  0.3930
 5965SOL    HW118580   5.502   1.223   4.994 -1.1035 -0.3940 -0.6401
 5965SOL    HW218581   5.617   1.128   5.014 -0.2906  0.9815  1.5954
 5966SOL     OW18582   0.303   1.659   1.568  0.4538 -0.1415 -0.1411
 5966SOL    HW118583   0.266   1.605   1.498  1.0000 -1.2575  0.4145
 5966SOL    HW218584   0.336   1.737   1.523 -1.8199  0.5412 -0.7494
 5967SOL     OW18585   1.555   3.476   2.794  0.0754 -0.1568 -0.2246
 5967SOL    HW118586   1.582   3.553   2.844 -1.1075 -0.4649  0.9559
 5967SOL    HW218587   1.637   3.432   2.771  0.8360  1.9224 -1.7588
 5968SOL     OW18588   6.970   5.397   3.191  0.0636  0.6293 -0.2088
 5968SOL    HW118589   7.034   5.463   3.218  1.6497 -1.0940  0.4843
 5968SOL    HW218590   6.892   5.416   3.243  1.8679 -0.4690  3.1651
 5969SOL     OW18591   6.104   1.074   4.417 -0.0198 -0.0287  0.0385
 5969SOL    HW118592   6.034   1.064   4.352 -0.7573  0.9805  0.6527
 5969SOL    HW218593   6.060   1.073   4.501  1.0398 -2.4940  0.6619
 5970SOL     OW18594   4.334   4.482   1.918 -0.4448 -0.4863  0.2988
 5970SOL    HW118595   4.239   4.475   1.927 -0.5063 -0.3851 -0.2726
 5970SOL    HW218596   4.354   4.571   1.947 -0.8910  0.5869 -2.4728
 5971SOL     OW18597   2.778   5.415   2.090  0.2730  0.2089 -0.0872
 5971SOL    HW118598   2.786   5.328   2.052  0.2617 -0.0981  0.6111
 5971SOL    HW218599   2.684   5.435   2.084  0.2917  0.2262 -0.3508
 5972SOL     OW18600   4.254   3.498   4.895 -0.2769  0.0872 -0.1283
 5972SOL    HW118601   4.231   3.455   4.813 -0.6457  0.2034 -0.0867
 5972SOL    HW218602   4.275   3.588   4.870 -1.8671  0.5394  0.0929
 5973SOL     OW18603   4.148   1.322   3.429 -0.0415  0.1714 -0.3134
 5973SOL    HW118604   4.139   1.254   3.496  0.3657  0.1822 -0.2465
 5973SOL    HW218605   4.231   1.365   3.449  0.3880 -0.2321 -1.2006
 5974SOL     OW18606   3.311   1.538   2.524 -0.3229  0.0611  0.5137
 5974SOL    HW118607   3.293   1.467   2.585 -1.0340  0.1856  0.4532
 5974SOL    HW218608   3.236   1.597   2.532  0.0487  0.5814  0.2427
 5975SOL     OW18609   4.439   0.294   2.897 -0.0359 -0.2909 -0.0728
 5975SOL    HW118610   4.525   0.331   2.876  0.3297  0.4197  2.3814
 5975SOL    HW218611   4.386   0.310   2.818  1.2459  1.8886 -0.5732
 5976SOL     OW18612   5.906   0.658   1.449 -0.7691 -0.1355 -0.1208
 5976SOL    HW118613   5.911   0.640   1.543 -0.7968  0.1554 -0.0651
 5976SOL    HW218614   5.980   0.715   1.431  0.8400 -2.2959 -0.7622
 5977SOL     OW18615   2.131   1.053   4.847 -0.7998  0.2797  0.0495
 5977SOL    HW118616   2.184   1.131   4.861 -1.6012  0.6945  0.9022
 5977SOL    HW218617   2.042   1.086   4.835 -0.8677 -0.3877 -1.5033
 5978SOL     OW18618   1.105   6.984   3.171  0.6408 -0.4187  0.2929
 5978SOL    HW118619   1.200   6.989   3.157  0.4616  1.2541 -0.6605
 5978SOL    HW218620   1.073   7.069   3.141 -1.4798 -1.9266 -2.1333
 5979SOL     OW18621   1.804   1.413   0.985 -0.0353 -0.4043 -0.5159
 5979SOL    HW118622   1.880   1.359   0.964  0.0253 -0.1023 -1.1049
 5979SOL    HW218623   1.729   1.355   0.971  0.0711 -0.6332 -0.1571
 5980SOL     OW18624   1.471   4.096   2.715 -0.1097 -0.2157  0.4208
 5980SOL    HW118625   1.390   4.096   2.664 -0.4825 -0.6777  1.0001
 5980SOL    HW218626   1.454   4.036   2.788  1.2879 -1.5622 -0.2970
 5981SOL     OW18627   5.515   1.409   2.208  0.1410  0.3344 -0.0280
 5981SOL    HW118628   5.433   1.441   2.245 -0.4047  0.7553 -1.5476
 5981SOL    HW218629   5.543   1.478   2.148 -0.0661 -1.1632 -1.9299
 5982SOL     OW18630   5.407   2.219   5.737 -0.1896  0.2541 -0.1618
 5982SOL    HW118631   5.499   2.206   5.761 -0.1532  0.6138 -0.0898
 5982SOL    HW218632   5.403   2.311   5.710 -0.2831 -0.0672 -1.3020
 5983SOL     OW18633   2.918   1.166   2.620 -0.0249  0.0570 -0.3769
 5983SOL    HW118634   2.870   1.236   2.664 -0.0037  0.0728 -0.3788
 5983SOL    HW218635   2.907   1.090   2.677  0.2172  0.1432 -0.2143
 5984SOL     OW18636   0.903   5.747   6.291  0.4044 -0.4827 -0.3229
 5984SOL    HW118637   0.891   5.830   6.243  0.7462 -1.4564 -2.1954
 5984SOL    HW218638   0.840   5.752   6.363 -2.2411 -0.0993 -2.4788
 5985SOL     OW18639   1.571   5.856   3.285  0.6800  0.2514 -0.4293
 5985SOL    HW118640   1.527   5.925   3.335  0.6836 -0.1803  0.1785
 5985SOL    HW218641   1.540   5.868   3.195 -0.3331  0.2359 -0.0925
 5986SOL     OW18642   1.978   2.065   1.092  0.7058  0.7820  0.0610
 5986SOL    HW118643   1.930   2.125   1.150 -0.0525  0.3085 -0.0620
 5986SOL    HW218644   1.953   1.978   1.122  0.7158  0.5333 -0.6545
 5987SOL     OW18645   6.257   0.487   1.702  0.6959 -0.0254 -0.1928
 5987SOL    HW118646   6.322   0.557   1.707  0.2579  0.5807 -2.3099
 5987SOL    HW218647   6.302   0.410   1.736  2.5928  0.3474 -1.7077
 5988SOL     OW18648   3.507   7.023   2.284 -0.2482 -0.2927  0.3691
 5988SOL    HW118649   3.490   7.116   2.269 -0.4838 -0.1988  1.1768
 5988SOL    HW218650   3.601   7.019   2.303 -0.0595 -0.3425 -0.5249
 5989SOL     OW18651   0.598   2.046   3.681  0.0587  0.0881  0.0890
 5989SOL    HW118652   0.558   2.122   3.638 -0.7088 -1.0900 -1.3553
 5989SOL    HW218653   0.530   1.979   3.678 -0.2495  0.0772  3.7109
 5990SOL     OW18654   4.323   1.232   1.478 -0.0742  0.1041 -0.0373
 5990SOL    HW118655   4.403   1.200   1.519 -0.2205  2.1379  2.0600
 5990SOL    HW218656   4.351   1.264   1.392  0.8627 -1.3298 -0.3086
 5991SOL     OW18657   3.461   0.088   3.309  0.3026 -0.1306  0.2385
 5991SOL    HW118658   3.463   0.183   3.304  3.1607 -0.1506 -0.8121
 5991SOL    HW218659   3.535   0.066   3.366 -0.4999 -1.7279  0.7171
 5992SOL     OW18660   5.847   4.098   1.323  0.3113  0.8764 -0.4106
 5992SOL    HW118661   5.831   4.190   1.344 -0.4241  0.8988 -1.0339
 5992SOL    HW218662   5.862   4.097   1.229 -0.2066  0.3007 -0.4981
 5993SOL     OW18663   3.822   1.965   2.910 -0.2450 -0.0256 -0.5679
 5993SOL    HW118664   3.740   1.924   2.938 -0.5304  0.2400 -1.0057
 5993SOL    HW218665   3.879   1.891   2.889 -0.5873 -0.2119 -0.8618
 5994SOL     OW18666   4.385   0.599   4.077 -0.0608 -0.8714  0.2078
 5994SOL    HW118667   4.453   0.663   4.055 -1.3488  1.2201  1.9697
 5994SOL    HW218668   4.325   0.601   4.002  0.4612 -0.8610 -0.2213
 5995SOL     OW18669   7.672   6.276   3.786  0.1061  0.2127 -0.2866
 5995SOL    HW118670   7.687   6.298   3.694 -0.1792 -1.6315 -0.8073
 5995SOL    HW218671   7.732   6.204   3.804 -1.3233 -0.8661  0.3335
 5996SOL     OW18672   2.204   4.377   0.521 -1.0689  0.3204 -0.0471
 5996SOL    HW118673   2.263   4.411   0.588 -1.7170  1.2569  0.0746
 5996SOL    HW218674   2.126   4.350   0.570 -0.5681 -1.4157 -0.1385
 5997SOL     OW18675   5.006   1.340   6.104  0.1494 -0.6053 -0.6972
 5997SOL    HW118676   4.988   1.430   6.133  1.0158 -0.8477  0.6227
 5997SOL    HW218677   4.924   1.293   6.121  0.2125 -0.4318  0.1270
 5998SOL     OW18678   1.074   2.480   5.287 -0.2350 -0.3885  0.4810
 5998SOL    HW118679   1.113   2.554   5.333 -0.4524 -0.7996  1.3578
 5998SOL    HW218680   0.980   2.497   5.289 -0.2702 -0.5811  0.4985
 5999SOL     OW18681   7.077   4.557   6.480 -0.1486 -0.3506 -0.3208
 5999SOL    HW118682   7.023   4.527   6.553 -0.3927 -0.0355 -0.3718
 5999SOL    HW218683   7.017   4.605   6.424  0.5030  1.4465  0.4584
 6000SOL     OW18684   2.530   5.128   3.246  0.1212 -0.1564 -0.4200
 6000SOL    HW118685   2.496   5.154   3.161  1.7032  0.0069 -1.0455
 6000SOL    HW218686   2.471   5.167   3.309  0.8162  2.6542 -1.3739
 6001SOL     OW18687   7.102   3.405   6.323 -0.0576  0.1651  0.4194
 6001SOL    HW118688   7.099   3.352   6.243 -2.4467  0.9081 -0.0688
 6001SOL    HW218689   7.043   3.359   6.384  0.9103  0.1795  1.3967
 6002SOL     OW18690   6.493   5.851   6.407 -0.6846 -0.0053 -0.2448
 6002SOL    HW118691   6.588   5.845   6.417 -0.8721 -2.3916  0.6866
 6002SOL    HW218692   6.459   5.850   6.497 -1.6248 -0.8448 -0.5884
 6003SOL     OW18693   1.890   7.540   0.273  0.1643 -0.2467 -0.1465
 6003SOL    HW118694   1.867   7.516   0.183  0.7560 -0.0436 -0.3587
 6003SOL    HW218695   1.979   7.506   0.284 -0.5462 -1.8659  0.9776
 6004SOL     OW18696   7.758   0.944   7.168  0.3057 -0.6454 -0.1177
 6004SOL    HW118697   7.703   0.887   7.114  0.7509 -1.5377  0.3382
 6004SOL    HW218698   7.703   1.020   7.187 -1.2876 -2.1058  1.4287
 6005SOL     OW18699   5.963   3.919   6.355 -0.1473 -0.4200  0.1700
 6005SOL    HW118700   5.922   4.002   6.380  2.5193  1.1714 -0.3303
 6005SOL    HW218701   6.023   3.943   6.284  0.1534 -2.9471 -0.5039
 6006SOL     OW18702   6.406   0.492   5.947  0.8096  0.2060  0.1531
 6006SOL    HW118703   6.356   0.483   5.866  0.3406  0.8999  0.3570
 6006SOL    HW218704   6.430   0.585   5.951 -1.6818  0.8725  2.2297
 6007SOL     OW18705   1.313   2.229   7.003 -0.3904  0.7025 -0.4898
 6007SOL    HW118706   1.236   2.174   6.989  1.9420 -2.7991 -0.5032
 6007SOL    HW218707   1.293   2.276   7.084 -2.5898  0.0938 -0.6033
 6008SOL     OW18708   0.588   4.125   3.617 -0.2487 -0.1207  0.3791
 6008SOL    HW118709   0.667   4.156   3.573 -0.4385  1.2768  0.9686
 6008SOL    HW218710   0.516   4.168   3.571 -0.6956 -1.3300 -0.1108
 6009SOL     OW18711   4.418   4.769   0.608 -0.1901 -0.0447  0.2816
 6009SOL    HW118712   4.381   4.820   0.535  1.0013  0.8743  0.2844
 6009SOL    HW218713   4.454   4.691   0.567 -0.0284  0.2000 -0.0495
 6010SOL     OW18714   3.088   5.926   7.540  0.1523 -0.4215  0.1480
 6010SOL    HW118715   3.081   6.008   7.590 -2.2129  0.0508 -0.8120
 6010SOL    HW218716   3.069   5.858   7.604 -1.6124  0.0835  0.2004
 6011SOL     OW18717   2.804   0.678   0.144  0.4963  0.4947 -0.1552
 6011SOL    HW118718   2.897   0.692   0.165  0.2980 -1.2370  2.4178
 6011SOL    HW218719   2.800   0.590   0.107 -0.2618 -0.2673  1.6046
 6012SOL     OW18720   2.419   4.177   7.628  0.4593 -0.1165  0.1744
 6012SOL    HW118721   2.459   4.095   7.659 -1.0364 -1.6284 -1.6762
 6012SOL    HW218722   2.363   4.205   7.700  0.5707 -1.0226  0.6290
 6013SOL     OW18723   0.076   1.573   1.960  0.2618 -0.0721  0.8160
 6013SOL    HW118724   0.008   1.525   1.913  1.1816 -2.6695  1.9678
 6013SOL    HW218725   0.155   1.560   1.908  0.2065  1.7494  0.2231
 6014SOL     OW18726   1.547   5.575   0.211  0.0178  0.1648  0.6252
 6014SOL    HW118727   1.460   5.542   0.231 -0.0594 -0.7353 -1.0056
 6014SOL    HW218728   1.551   5.577   0.116  1.3074  1.5178  0.6641
 6015SOL     OW18729   2.450   7.239   5.830 -0.7925  0.1473 -0.2433
 6015SOL    HW118730   2.397   7.210   5.756 -0.1008  0.4215 -0.8555
 6015SOL    HW218731   2.535   7.197   5.816 -0.5611  0.4555  0.2228
 6016SOL     OW18732   6.771   7.232   3.433  0.7208  0.2654  0.3579
 6016SOL    HW118733   6.834   7.220   3.362  1.3356 -0.4725  1.0044
 6016SOL    HW218734   6.686   7.235   3.390  0.9847 -1.2685 -0.3483
 6017SOL     OW18735   2.755   3.550   1.860 -0.5024  0.3180 -0.4134
 6017SOL    HW118736   2.678   3.589   1.902 -0.1892  0.0538  0.4394
 6017SOL    HW218737   2.805   3.512   1.933 -0.7132 -1.5369 -1.1847
 6018SOL     OW18738   0.034   7.056   1.224  0.1182 -0.5688  0.2929
 6018SOL    HW118739   0.088   7.102   1.160 -0.1004 -1.2144 -0.3722
 6018SOL    HW218740   0.048   7.103   1.306  0.1762  0.4491 -0.2912
 6019SOL     OW18741   2.389   0.308   6.996 -0.8069  0.2290 -0.1484
 6019SOL    HW118742   2.447   0.272   7.063 -0.9205 -0.7093 -0.5425
 6019SOL    HW218743   2.324   0.239   6.981 -0.5478  0.2465 -1.5126
 6020SOL     OW18744   0.489   2.512   2.725  0.4202 -0.0014 -0.2362
 6020SOL    HW118745   0.467   2.521   2.818  0.7547  0.1422 -0.1700
 6020SOL    HW218746   0.419   2.459   2.689  1.1418 -1.4927  0.4526
 6021SOL     OW18747   3.528   1.520   6.509 -0.0873  0.4761  0.2634
 6021SOL    HW118748   3.539   1.435   6.553  0.7090  0.7741  0.6660
 6021SOL    HW218749   3.513   1.497   6.418 -0.5610 -0.1185  0.4798
 6022SOL     OW18750   1.605   0.841   1.356  0.3763 -0.0188 -0.1045
 6022SOL    HW118751   1.630   0.782   1.427 -1.6732 -0.7413  0.0684
 6022SOL    HW218752   1.566   0.784   1.290  1.7051  0.7158 -1.5916
 6023SOL     OW18753   2.806   3.409   1.458 -0.1587 -0.8399 -0.1214
 6023SOL    HW118754   2.889   3.432   1.417 -0.8078 -0.0444 -1.0290
 6023SOL    HW218755   2.779   3.488   1.505 -0.0915 -1.3073  0.7243
 6024SOL     OW18756   4.873   6.704   0.067 -0.3624  0.1344 -0.3168
 6024SOL    HW118757   4.860   6.799   0.061 -3.5290 -0.1775 -0.3483
 6024SOL    HW218758   4.903   6.690   0.157  0.9276  1.1824 -0.5538
 6025SOL     OW18759   3.701   6.051   7.181  0.0113  0.0754  0.4083
 6025SOL    HW118760   3.665   6.013   7.260  0.0268  0.1091  0.4315
 6025SOL    HW218761   3.645   6.019   7.110  0.1064 -0.0989  0.4120
 6026SOL     OW18762   2.079   1.664   3.213 -0.0588 -0.2460 -0.0588
 6026SOL    HW118763   2.137   1.725   3.168 -0.7785  0.2667 -0.2962
 6026SOL    HW218764   2.082   1.584   3.160 -2.3100  0.9198 -2.1052
 6027SOL     OW18765   0.930   1.002   4.988  0.3152  0.3561 -0.1463
 6027SOL    HW118766   0.892   0.968   4.907 -2.5830 -0.4686  1.4179
 6027SOL    HW218767   0.947   0.925   5.041  0.3859  0.9766  0.7586
 6028SOL     OW18768   5.881   5.916   7.202  0.2576 -0.0944 -0.4658
 6028SOL    HW118769   5.830   5.936   7.124 -0.3032 -2.8427 -0.9272
 6028SOL    HW218770   5.899   5.822   7.195  1.5502 -0.1061  1.9334
 6029SOL     OW18771   5.531   0.519   0.852  0.4622  0.0927  0.3772
 6029SOL    HW118772   5.502   0.584   0.916  2.2445  0.0189  1.3107
 6029SOL    HW218773   5.612   0.555   0.815  1.6742 -1.6956  1.1459
 6030SOL     OW18774   3.501   0.761   6.101  0.1138  0.9842 -0.0919
 6030SOL    HW118775   3.593   0.785   6.117 -0.1185  1.0286  1.2593
 6030SOL    HW218776   3.451   0.815   6.162 -0.6885 -0.2985  0.4122
 6031SOL     OW18777   5.622   7.760   0.661 -0.2665  0.4111 -0.0074
 6031SOL    HW118778   5.550   7.785   0.603 -0.9199  0.0120  0.5996
 6031SOL    HW218779   5.701   7.769   0.608 -0.6450  1.9682 -0.3596
 6032SOL     OW18780   6.289   3.720   1.236  0.0464 -0.9023  0.3191
 6032SOL    HW118781   6.279   3.712   1.331 -0.3619 -0.3163  0.3281
 6032SOL    HW218782   6.232   3.652   1.200  1.2933 -2.0878  0.5122
 6033SOL     OW18783   4.964   5.905   3.026  0.3234 -0.1962 -0.1975
 6033SOL    HW118784   4.915   5.978   3.062  1.0224  1.2455 -1.9899
 6033SOL    HW218785   5.010   5.867   3.101 -1.7800 -0.2372  1.1342
 6034SOL     OW18786   4.884   5.885   5.823  0.2447 -0.2013  0.0173
 6034SOL    HW118787   4.886   5.791   5.806 -2.4778 -0.3056 -0.1421
 6034SOL    HW218788   4.835   5.922   5.750 -0.5486  1.0438  1.1351
 6035SOL     OW18789   7.133   3.843   7.122 -0.2974 -0.1396  0.9607
 6035SOL    HW118790   7.189   3.779   7.078 -0.2304 -0.1173  1.0129
 6035SOL    HW218791   7.127   3.811   7.213  0.6213  0.5149  1.2593
 6036SOL     OW18792   4.450   0.194   6.589  0.1702 -0.0165 -0.2480
 6036SOL    HW118793   4.358   0.212   6.570 -0.3086  1.2693  2.7585
 6036SOL    HW218794   4.481   0.146   6.512 -2.7543  0.2323 -1.7338
 6037SOL     OW18795   5.072   5.111   6.712  0.0692 -0.1962 -0.3532
 6037SOL    HW118796   5.006   5.055   6.672 -1.2112  0.2989  0.9915
 6037SOL    HW218797   5.022   5.180   6.756  1.4962  0.4303  0.3582
 6038SOL     OW18798   5.430   0.337   6.740 -0.1274 -0.1436  0.2386
 6038SOL    HW118799   5.412   0.417   6.690 -1.7112 -0.6709 -0.0612
 6038SOL    HW218800   5.482   0.282   6.681 -0.5550 -0.0731 -0.2015
 6039SOL     OW18801   2.170   5.012   4.065 -0.3094 -0.4029 -0.1544
 6039SOL    HW118802   2.228   5.087   4.069  0.9279 -1.1960 -1.9253
 6039SOL    HW218803   2.185   4.965   4.147  0.5718  0.0994 -0.0212
 6040SOL     OW18804   4.924   2.540   4.539 -1.0727 -0.2454  0.3284
 6040SOL    HW118805   4.870   2.553   4.617 -1.4457  0.1415  0.0098
 6040SOL    HW218806   4.979   2.618   4.535  2.4127 -2.2858  2.8724
 6041SOL     OW18807   0.181   0.295   7.595 -0.1404 -0.0464  0.4737
 6041SOL    HW118808   0.276   0.308   7.604 -0.3614  0.7270  2.3020
 6041SOL    HW218809   0.153   0.363   7.534  0.4577 -0.1955  0.0206
 6042SOL     OW18810   2.077   3.828   1.893 -0.3973 -0.3071  0.4581
 6042SOL    HW118811   2.041   3.766   1.956  0.9678 -1.3719  0.2565
 6042SOL    HW218812   2.139   3.881   1.944  0.6928 -1.1554  0.0577
 6043SOL     OW18813   3.836   2.476   1.135  0.2519 -0.1806  0.1749
 6043SOL    HW118814   3.777   2.401   1.139  0.6989 -0.5475  0.0006
 6043SOL    HW218815   3.858   2.495   1.226  0.7703 -0.7790  0.1862
 6044SOL     OW18816   3.773   6.252   7.710 -0.1986 -0.2506  0.3529
 6044SOL    HW118817   3.810   6.258   7.798  2.1946 -2.2249 -0.4194
 6044SOL    HW218818   3.767   6.158   7.692 -0.2742  0.0996 -1.7251
 6045SOL     OW18819   5.577   1.431   4.693 -0.3411  0.6026 -0.0918
 6045SOL    HW118820   5.586   1.525   4.678  0.3687  0.7598  1.1702
 6045SOL    HW218821   5.658   1.405   4.735 -0.6981 -0.5046 -0.0448
 6046SOL     OW18822   4.971   1.848   1.108 -0.0075 -0.6289  0.2585
 6046SOL    HW118823   4.898   1.822   1.053 -0.7231  0.1679  0.7963
 6046SOL    HW218824   4.949   1.814   1.195  0.0094  0.0172  0.5272
 6047SOL     OW18825   3.497   7.773   0.944  0.3526 -0.1620 -0.0730
 6047SOL    HW118826   3.493   7.705   1.012 -1.5996  0.2872  0.3207
 6047SOL    HW218827   3.546   7.845   0.985  2.0574 -1.1123 -0.3452
 6048SOL     OW18828   2.046   2.697   3.266  0.9800 -0.4781  0.1107
 6048SOL    HW118829   2.085   2.702   3.179  0.9569 -3.2201 -0.1277
 6048SOL    HW218830   2.061   2.607   3.295 -1.3013 -0.4103  1.8566
 6049SOL     OW18831   5.346   6.443   6.175  0.6308  0.2681 -0.0369
 6049SOL    HW118832   5.394   6.506   6.122  3.1606 -1.8318 -0.4806
 6049SOL    HW218833   5.293   6.393   6.112 -1.5148  1.9277  0.3344
 6050SOL     OW18834   0.875   7.064   5.649 -0.4861 -0.0465 -0.6912
 6050SOL    HW118835   0.922   6.992   5.608  0.5532  0.3979 -0.3331
 6050SOL    HW218836   0.942   7.132   5.661 -0.9170  0.1227  1.0215
 6051SOL     OW18837   2.718   0.896   1.548 -0.4569  0.2446  0.1551
 6051SOL    HW118838   2.665   0.974   1.559 -0.2273  0.5393 -0.7711
 6051SOL    HW218839   2.801   0.927   1.513 -0.3744 -0.4082 -0.2565
 6052SOL     OW18840   3.328   1.804   0.015  0.1348 -0.2173 -0.2578
 6052SOL    HW118841   3.396   1.810  -0.052  1.4398  0.4641  1.0536
 6052SOL    HW218842   3.374   1.824   0.097 -0.9239 -3.0980  1.1487
 6053SOL     OW18843   7.545   4.243   0.189  1.0113 -0.1319  0.0298
 6053SOL    HW118844   7.567   4.242   0.096  1.9362 -0.1089  0.2410
 6053SOL    HW218845   7.524   4.334   0.207  1.5632  0.0051  0.0027
 6054SOL     OW18846   0.093   3.905   4.692 -0.4888  0.3054  0.5635
 6054SOL    HW118847   0.071   3.830   4.748 -2.3477 -0.2503 -0.8106
 6054SOL    HW218848   0.168   3.875   4.640  0.1296  0.1937  1.5007
 6055SOL     OW18849   0.440   2.207   1.447 -0.5452  0.0390 -0.0933
 6055SOL    HW118850   0.420   2.300   1.435 -0.1556  0.0160 -1.0006
 6055SOL    HW218851   0.532   2.205   1.471  0.4242 -0.2553 -3.3672
 6056SOL     OW18852   7.459   6.792   4.784 -0.2820 -0.3689  0.0947
 6056SOL    HW118853   7.385   6.849   4.765  0.3487  0.3993 -0.1092
 6056SOL    HW218854   7.532   6.852   4.797  0.2404 -1.1031  0.5851
 6057SOL     OW18855   6.073   5.586   7.699  0.6129  0.4317 -0.4408
 6057SOL    HW118856   6.108   5.664   7.743  1.6486 -1.4008  2.2604
 6057SOL    HW218857   6.149   5.548   7.656  0.6050 -0.2011  0.0887
 6058SOL     OW18858   0.380   4.073   3.094  0.3911 -0.2410 -0.1395
 6058SOL    HW118859   0.393   4.004   3.028  1.6965 -2.0134  1.8408
 6058SOL    HW218860   0.467   4.112   3.106  0.2217 -0.0909  0.6637
 6059SOL     OW18861   3.385   3.293   3.558 -0.2512 -0.3035 -0.5724
 6059SOL    HW118862   3.348   3.353   3.623  1.8389 -1.6855  2.0987
 6059SOL    HW218863   3.417   3.350   3.488  0.1963  1.5815  1.0860
 6060SOL     OW18864   3.890   0.251   4.639  0.3756 -0.3464  0.4332
 6060SOL    HW118865   3.892   0.306   4.717  0.7701 -0.7492  0.7111
 6060SOL    HW218866   3.938   0.300   4.573  1.9169 -0.9251  1.0702
 6061SOL     OW18867   6.612   5.056   1.001  0.1465 -0.0649  0.4982
 6061SOL    HW118868   6.568   5.065   0.917 -3.7071 -2.0897  2.0327
 6061SOL    HW218869   6.594   5.138   1.046  0.4791  0.2441  0.0738
 6062SOL     OW18870   0.811   1.249   5.085  0.6443 -0.1332  0.4950
 6062SOL    HW118871   0.884   1.307   5.066  1.9134 -1.6130  0.7121
 6062SOL    HW218872   0.832   1.167   5.039 -0.0421 -1.1431  1.8906
 6063SOL     OW18873   5.746   2.275   1.843 -0.3352 -0.1023 -0.9450
 6063SOL    HW118874   5.769   2.193   1.801 -0.2671 -1.3444  1.3636
 6063SOL    HW218875   5.690   2.250   1.917 -0.8894  1.9893 -0.5849
 6064SOL     OW18876   0.698   0.053   4.974  0.5810 -0.4054 -0.0147
 6064SOL    HW118877   0.767   0.033   4.911  1.0132 -3.1314  1.1700
 6064SOL    HW218878   0.640  -0.023   4.971 -1.0497  0.7425  0.7822
 6065SOL     OW18879   5.571   0.217   5.664  0.2126  0.5101 -0.2476
 6065SOL    HW118880   5.537   0.129   5.644  1.0664 -0.2352  1.3820
 6065SOL    HW218881   5.501   0.260   5.711  0.5702 -0.1325  0.9165
 6066SOL     OW18882   5.971   3.199   4.255  0.4361  0.1068  0.0094
 6066SOL    HW118883   5.962   3.290   4.228  1.1886 -0.0421 -0.7735
 6066SOL    HW218884   5.885   3.176   4.291 -0.6724  0.3200 -2.2963
 6067SOL     OW18885   4.009   3.586   7.194 -0.1368 -0.5295  0.1984
 6067SOL    HW118886   4.073   3.569   7.264 -0.8399  1.4350  1.4094
 6067SOL    HW218887   3.927   3.550   7.228 -0.5162  0.5767  0.5141
 6068SOL     OW18888   7.755   6.464   6.323 -0.0441  0.5378 -0.0863
 6068SOL    HW118889   7.827   6.424   6.275  0.6909  0.0857  1.3346
 6068SOL    HW218890   7.688   6.481   6.257  1.1336  0.4376 -1.3342
 6069SOL     OW18891   2.850   5.712   2.300 -0.2444 -0.1356  0.8197
 6069SOL    HW118892   2.891   5.746   2.221  2.9428 -2.5483  1.2019
 6069SOL    HW218893   2.852   5.785   2.362  1.1489  0.6268 -0.0570
 6070SOL     OW18894   2.640   3.315   0.692 -0.0191 -0.3156 -0.8022
 6070SOL    HW118895   2.622   3.381   0.626 -3.1667 -1.8767 -1.6949
 6070SOL    HW218896   2.631   3.361   0.775  0.3558  0.8874 -1.4092
 6071SOL     OW18897   1.884   3.046   0.686 -0.1243 -0.0514  0.3201
 6071SOL    HW118898   1.872   2.951   0.675  0.1282 -0.3087  1.9579
 6071SOL    HW218899   1.954   3.054   0.751 -1.3840  1.2045  1.6023
 6072SOL     OW18900   3.672   7.483   4.732 -0.5044 -0.1875  0.2652
 6072SOL    HW118901   3.674   7.578   4.727 -0.9194 -0.0350  2.1768
 6072SOL    HW218902   3.621   7.464   4.811  1.2106 -1.9323  1.0280
 6073SOL     OW18903   2.279   5.299   1.116 -0.6076 -0.2940 -0.5000
 6073SOL    HW118904   2.362   5.253   1.122 -0.2077  0.5354  1.1373
 6073SOL    HW218905   2.268   5.318   1.023 -0.0225 -2.2449 -1.0006
 6074SOL     OW18906   3.929   7.372   3.237  0.6649 -0.0980 -0.1379
 6074SOL    HW118907   3.854   7.328   3.276  0.8356  0.1343  0.4521
 6074SOL    HW218908   3.983   7.302   3.201  0.0168 -0.2527 -0.8483
 6075SOL     OW18909   6.087   7.090   1.469 -0.4480  0.1404 -0.0662
 6075SOL    HW118910   6.024   7.028   1.506 -0.8314  0.2599 -0.5073
 6075SOL    HW218911   6.076   7.082   1.374 -1.1351  1.4967 -0.1418
 6076SOL     OW18912   3.395   2.739   0.945  0.4612  0.0335  0.4040
 6076SOL    HW118913   3.383   2.649   0.975  0.7622  0.0841  0.6862
 6076SOL    HW218914   3.413   2.731   0.851 -0.3876 -0.1345  0.2496
 6077SOL     OW18915   6.748   2.817   4.076  0.3132  0.5925  0.0073
 6077SOL    HW118916   6.822   2.866   4.113  2.2382 -1.1407 -1.2852
 6077SOL    HW218917   6.766   2.726   4.099 -1.4185  0.1259 -0.3829
 6078SOL     OW18918   1.511   2.399   7.300  0.0285 -0.3295  0.1660
 6078SOL    HW118919   1.551   2.465   7.356 -0.1522 -0.8116  0.8810
 6078SOL    HW218920   1.458   2.449   7.238  0.2032  0.2153  0.4515
 6079SOL     OW18921   1.682   1.798   5.016  0.3778  0.4171  0.1026
 6079SOL    HW118922   1.666   1.705   4.998 -0.9103  0.2256  1.9815
 6079SOL    HW218923   1.757   1.799   5.074  0.7323  0.6086 -0.3507
 6080SOL     OW18924   2.450   6.584   6.367  0.4172 -0.6629 -0.6075
 6080SOL    HW118925   2.502   6.627   6.299 -2.9306  2.0313 -1.7857
 6080SOL    HW218926   2.482   6.620   6.449  1.8498 -0.8262 -1.0772
 6081SOL     OW18927   5.746   4.451   0.116  0.2221  0.0855 -0.0877
 6081SOL    HW118928   5.683   4.423   0.181 -0.6411  0.2571 -0.8270
 6081SOL    HW218929   5.701   4.520   0.067  2.3522  3.1323  1.8598
 6082SOL     OW18930   5.896   0.583   4.295 -0.5221 -0.0589 -0.6240
 6082SOL    HW118931   5.936   0.528   4.228 -1.5232 -0.3508 -1.0119
 6082SOL    HW218932   5.828   0.632   4.248 -1.5434 -0.5956  0.2304
 6083SOL     OW18933   4.614   5.153   5.729  0.2205 -0.2204  0.0386
 6083SOL    HW118934   4.626   5.237   5.685 -0.3228 -0.6524 -0.9680
 6083SOL    HW218935   4.702   5.129   5.759  0.6161  0.0452 -0.8788
 6084SOL     OW18936   0.102   1.115   4.990  0.3612 -0.0108  0.2293
 6084SOL    HW118937   0.169   1.135   4.924  0.4928 -2.3965 -0.4470
 6084SOL    HW218938   0.143   1.050   5.047 -1.2660 -1.4041 -0.1069
 6085SOL     OW18939   3.151   1.005   5.122  0.4176  0.9773  0.2845
 6085SOL    HW118940   3.145   0.973   5.032  0.7371 -0.2748  0.6819
 6085SOL    HW218941   3.180   1.096   5.114 -0.3381  1.1263 -0.8958
 6086SOL     OW18942   0.473   4.145   2.680  0.3074 -0.1488  0.0473
 6086SOL    HW118943   0.395   4.175   2.728  0.3807 -1.7616  1.2589
 6086SOL    HW218944   0.546   4.162   2.740  0.7795  0.4065 -0.6673
 6087SOL     OW18945   6.177   4.915   0.921  0.1002 -0.7311 -0.2249
 6087SOL    HW118946   6.176   4.911   1.017  0.1383 -1.1750 -0.2409
 6087SOL    HW218947   6.132   4.835   0.893 -0.3698 -0.3504 -0.5757
 6088SOL     OW18948   3.249   4.402   5.811  0.4716 -0.0309  0.6126
 6088SOL    HW118949   3.197   4.338   5.859  1.5675 -2.0234 -0.7143
 6088SOL    HW218950   3.329   4.411   5.862 -0.7156  2.4662  2.2514
 6089SOL     OW18951   6.693   3.929   6.745  0.2614  0.1364  0.0416
 6089SOL    HW118952   6.764   3.961   6.801 -0.2626 -0.4968  1.0985
 6089SOL    HW218953   6.631   3.890   6.806  0.4662 -2.1409 -1.1070
 6090SOL     OW18954   0.607   2.001   0.376 -0.3245  0.0828 -0.4555
 6090SOL    HW118955   0.599   2.000   0.471 -1.1588 -0.2325 -0.5261
 6090SOL    HW218956   0.617   2.093   0.353 -2.8680  0.4526 -0.2743
 6091SOL     OW18957   6.761   3.548   2.516  0.4436  0.1360 -0.9035
 6091SOL    HW118958   6.723   3.622   2.564 -0.6077 -0.5730 -0.5956
 6091SOL    HW218959   6.853   3.547   2.543  0.3660  1.0595 -0.5662
 6092SOL     OW18960   6.011   7.445   0.854  0.1821  0.3796 -0.1832
 6092SOL    HW118961   6.010   7.363   0.903 -0.4025 -0.3424 -1.3669
 6092SOL    HW218962   5.929   7.488   0.879 -0.6514 -0.4897 -1.3008
 6093SOL     OW18963   2.610   4.923   2.822 -0.5068 -0.2485  0.0185
 6093SOL    HW118964   2.546   4.883   2.880  0.2325  0.0280  1.0455
 6093SOL    HW218965   2.612   5.015   2.848 -1.3733  0.2699 -1.5732
 6094SOL     OW18966   5.940   7.285   6.114  0.0227  0.4100  0.0665
 6094SOL    HW118967   5.881   7.254   6.183  0.8497  0.0508  0.6224
 6094SOL    HW218968   5.883   7.333   6.054 -1.0954 -1.0361 -0.1147
 6095SOL     OW18969   3.196   0.228   2.644  0.2133  0.0978 -0.1086
 6095SOL    HW118970   3.254   0.284   2.594  0.9088 -0.3106  0.2318
 6095SOL    HW218971   3.149   0.176   2.579  0.4135  0.2432 -0.3667
 6096SOL     OW18972   1.069   2.043   1.081 -0.0408 -0.2339 -0.4022
 6096SOL    HW118973   1.076   1.986   1.157 -0.4678 -0.2881 -0.3998
 6096SOL    HW218974   1.080   2.131   1.117  1.7936 -0.3564 -0.5685
 6097SOL     OW18975   7.689   0.887   4.587 -0.4571 -0.4127  0.1717
 6097SOL    HW118976   7.615   0.892   4.647  0.0118  1.5245  0.6451
 6097SOL    HW218977   7.662   0.941   4.512 -0.2156 -1.1568 -0.4699
 6098SOL     OW18978   7.209   3.787   3.201  0.0375 -0.3716  0.1220
 6098SOL    HW118979   7.207   3.816   3.110 -0.3831 -1.0111 -0.0821
 6098SOL    HW218980   7.117   3.778   3.225  0.1282 -1.9498  0.0146
 6099SOL     OW18981   4.102   7.289   2.232 -0.3722 -0.2042  0.2965
 6099SOL    HW118982   4.187   7.249   2.215  0.6736  1.8786  0.3008
 6099SOL    HW218983   4.111   7.330   2.318 -1.1406  0.5992  0.0215
 6100SOL     OW18984   6.189   5.554   6.007  0.1590 -0.2764 -0.3494
 6100SOL    HW118985   6.171   5.622   6.072  0.5015 -0.4920 -0.0208
 6100SOL    HW218986   6.275   5.519   6.032 -0.3207 -1.3209 -0.0729
 6101SOL     OW18987   5.191   4.121   2.726 -0.1303  0.0270  0.1767
 6101SOL    HW118988   5.173   4.028   2.734 -0.3673  0.0900  0.4118
 6101SOL    HW218989   5.261   4.127   2.661 -0.7438 -0.2551 -0.5219
 6102SOL     OW18990   4.989   0.607   3.219 -0.6650  0.2368 -0.1941
 6102SOL    HW118991   5.048   0.562   3.159 -0.9148  0.2461 -0.4468
 6102SOL    HW218992   4.967   0.542   3.285 -1.4156 -0.1715 -0.8281
 6103SOL     OW18993   3.066   5.062   6.788  0.1605  0.2712  0.2013
 6103SOL    HW118994   3.137   5.062   6.853  0.6681  0.1881 -0.3463
 6103SOL    HW218995   3.089   4.991   6.728  0.2231  0.9931 -0.6390
 6104SOL     OW18996   4.744   1.379   5.823  0.2614  0.1382  0.3468
 6104SOL    HW118997   4.838   1.379   5.842  0.9391  2.1867 -2.3509
 6104SOL    HW218998   4.739   1.401   5.730 -2.9212  0.7349  0.5672
 6105SOL     OW18999   1.611   6.483   3.442 -0.7994 -0.2808 -0.1005
 6105SOL    HW119000   1.559   6.496   3.522 -1.5938  2.3270 -0.9393
 6105SOL    HW219001   1.556   6.427   3.387 -1.3951  0.0007  0.1923
 6106SOL     OW19002   1.656   7.041   3.354  0.4572  0.4552  0.3948
 6106SOL    HW119003   1.719   7.053   3.425  1.5502 -0.0592 -0.4443
 6106SOL    HW219004   1.710   7.039   3.275 -0.7295  1.0288 -0.4588
 6107SOL     OW19005   5.101   4.806   2.926  0.0080  0.5202  0.1113
 6107SOL    HW119006   5.038   4.742   2.892  0.1703 -0.3016  1.2915
 6107SOL    HW219007   5.151   4.833   2.849 -0.0450 -0.8008 -0.4266
 6108SOL     OW19008   5.813   1.750   4.296 -0.3245  0.0917 -0.1372
 6108SOL    HW119009   5.817   1.791   4.382 -0.4035  0.3727 -0.2686
 6108SOL    HW219010   5.897   1.771   4.255  0.2337 -1.0873  0.3443
 6109SOL     OW19011   1.234   6.181   0.799  0.0861 -0.1059 -0.0915
 6109SOL    HW119012   1.221   6.113   0.865  1.1395  0.0399  0.2833
 6109SOL    HW219013   1.285   6.137   0.730  0.5563  0.2263  0.0401
 6110SOL     OW19014   3.441   2.819   7.577 -0.3738  0.4473  0.2457
 6110SOL    HW119015   3.430   2.748   7.640  0.6492 -0.3003 -0.4022
 6110SOL    HW219016   3.504   2.878   7.617 -0.2769  0.3484  0.2376
 6111SOL     OW19017   6.559   1.136   2.355 -0.4298  0.1739 -0.6867
 6111SOL    HW119018   6.480   1.085   2.375  0.0211  0.1110  1.1481
 6111SOL    HW219019   6.613   1.078   2.302 -0.6116 -0.6879  0.0429
 6112SOL     OW19020   5.816   2.450   6.370  0.3347 -0.0136  0.3985
 6112SOL    HW119021   5.823   2.460   6.465 -0.8733 -0.6091  0.5693
 6112SOL    HW219022   5.902   2.478   6.337  1.2575 -1.0839  1.7595
 6113SOL     OW19023   6.486   6.064   5.914  0.7443  0.1811  0.3496
 6113SOL    HW119024   6.465   6.098   6.001 -1.7134  2.8479 -1.1212
 6113SOL    HW219025   6.580   6.046   5.917  0.4951 -1.2347  3.9233
 6114SOL     OW19026   0.320   0.503   6.374  0.0220 -0.0040  0.6926
 6114SOL    HW119027   0.288   0.431   6.319  0.5559 -0.7175  1.2886
 6114SOL    HW219028   0.258   0.508   6.447  0.3056 -0.2516  0.9543
 6115SOL     OW19029   2.969   3.975   7.302  0.0518  0.0003  0.5972
 6115SOL    HW119030   2.900   3.978   7.368  0.6852  1.8737  1.2340
 6115SOL    HW219031   2.927   4.006   7.222  0.4039  2.5758  1.3094
 6116SOL     OW19032   6.131   6.790   6.847  0.3691  0.0290  0.3475
 6116SOL    HW119033   6.131   6.712   6.791  0.7892  0.4320 -0.2243
 6116SOL    HW219034   6.100   6.758   6.932  0.0865 -0.6668 -0.0077
 6117SOL     OW19035   7.657   2.046   1.452 -0.3309  0.1746  0.4520
 6117SOL    HW119036   7.699   1.961   1.466 -0.1737  0.4137  1.5267
 6117SOL    HW219037   7.598   2.056   1.527 -1.8262  0.1468 -0.6880
 6118SOL     OW19038   5.861   6.715   4.786  0.1069 -0.4321 -0.0629
 6118SOL    HW119039   5.953   6.695   4.801  0.4146 -0.4534 -1.8474
 6118SOL    HW219040   5.847   6.697   4.693 -1.3873  0.7601 -0.0993
 6119SOL     OW19041   4.580   7.304   0.211  0.1797 -0.0968  1.0413
 6119SOL    HW119042   4.597   7.390   0.248  1.0996 -0.3883  1.3266
 6119SOL    HW219043   4.599   7.314   0.117  0.6668 -0.0808  1.1389
 6120SOL     OW19044   0.725   6.905   5.341  0.6771  0.4559 -0.4453
 6120SOL    HW119045   0.807   6.925   5.296 -0.0306  2.1693 -1.0727
 6120SOL    HW219046   0.680   6.845   5.282 -0.1203  2.4635 -2.0178
 6121SOL     OW19047   7.747   3.085   0.549 -0.1007 -0.6122  0.0171
 6121SOL    HW119048   7.793   3.100   0.631 -0.7475 -1.2180  0.4986
 6121SOL    HW219049   7.816   3.061   0.487  0.3359 -0.6147  0.4959
 6122SOL     OW19050   5.382   4.031   2.538  0.6917  0.2206  0.4765
 6122SOL    HW119051   5.453   4.010   2.598  1.3270 -1.4152 -0.7570
 6122SOL    HW219052   5.417   4.009   2.451 -1.6597 -1.7406 -0.0935
 6123SOL     OW19053   3.131   3.471   6.304 -0.4428  0.1552 -0.3077
 6123SOL    HW119054   3.196   3.495   6.238  0.1419 -2.3788 -0.7980
 6123SOL    HW219055   3.047   3.499   6.267  0.1441  1.2655 -0.8257
 6124SOL     OW19056   3.222   5.559   3.939  0.3672 -0.1847 -0.1038
 6124SOL    HW119057   3.208   5.576   3.846 -0.6337 -0.4226 -0.0091
 6124SOL    HW219058   3.211   5.644   3.981 -1.2588 -0.4092  0.0020
 6125SOL     OW19059   7.432   7.144   1.890  0.0659  0.4976  0.1013
 6125SOL    HW119060   7.350   7.099   1.906 -0.3164  0.8885 -0.6719
 6125SOL    HW219061   7.425   7.226   1.939 -0.8952  1.4710 -1.5574
 6126SOL     OW19062   6.931   7.403   4.304 -0.3780 -0.2059  0.1714
 6126SOL    HW119063   7.026   7.391   4.311 -0.1356  0.6272 -1.3321
 6126SOL    HW219064   6.915   7.490   4.341  0.1192  1.6335 -3.5341
 6127SOL     OW19065   3.240   1.346   7.763 -1.0784  0.5299 -0.6553
 6127SOL    HW119066   3.270   1.389   7.683 -1.3211  0.6092 -0.7059
 6127SOL    HW219067   3.320   1.329   7.814 -0.7547 -0.8640 -1.5669
 6128SOL     OW19068   2.907   5.993   6.110  0.8620 -0.1802  0.2707
 6128SOL    HW119069   2.881   5.963   6.198  2.7340 -0.1604  0.8798
 6128SOL    HW219070   2.928   5.913   6.062 -0.1755 -0.1914 -0.1847
 6129SOL     OW19071   4.011   7.565   4.860 -0.0490 -0.3059 -0.4039
 6129SOL    HW119072   4.030   7.641   4.805  0.7646  1.1201  1.7007
 6129SOL    HW219073   4.012   7.491   4.800  0.9796  1.1178 -2.2593
 6130SOL     OW19074   3.138   4.750   3.352 -0.2836 -0.0420 -0.2595
 6130SOL    HW119075   3.123   4.657   3.371 -0.2110  0.1286  0.6918
 6130SOL    HW219076   3.168   4.787   3.435 -1.9861  1.1864 -0.1292
 6131SOL     OW19077   1.940   4.147   3.121 -0.4115 -0.0654 -0.0438
 6131SOL    HW119078   2.009   4.211   3.104  0.0906 -0.6393 -0.2221
 6131SOL    HW219079   1.873   4.166   3.056  0.9928 -1.5105 -2.0359
 6132SOL     OW19080   4.259   0.344   3.479  0.2166 -0.2851  0.2381
 6132SOL    HW119081   4.329   0.356   3.542  0.0969 -0.7870  0.4717
 6132SOL    HW219082   4.243   0.431   3.443 -1.4910  0.5648  2.7782
 6133SOL     OW19083   5.145   7.235   6.407  0.5193  0.3417  0.6914
 6133SOL    HW119084   5.064   7.276   6.439  0.3494 -0.1426  0.8872
 6133SOL    HW219085   5.184   7.302   6.349 -1.8563 -0.6834 -2.4002
 6134SOL     OW19086   4.292   3.132   2.749  0.3143 -0.0702 -0.5218
 6134SOL    HW119087   4.233   3.168   2.683 -0.1196 -0.0898 -0.1412
 6134SOL    HW219088   4.297   3.199   2.817 -0.3494 -0.6376  0.0994
 6135SOL     OW19089   3.702   0.090   6.391 -0.4039 -0.1107 -0.5707
 6135SOL    HW119090   3.680   0.053   6.477  0.5638 -0.6185 -0.5321
 6135SOL    HW219091   3.706   0.184   6.406 -0.7964 -0.1499 -0.1867
 6136SOL     OW19092   1.516   1.463   2.618 -0.6388  0.2736 -0.5682
 6136SOL    HW119093   1.494   1.378   2.658  0.3659 -0.5617 -1.7230
 6136SOL    HW219094   1.602   1.450   2.580 -1.0640  1.3767 -2.0053
 6137SOL     OW19095   3.600   6.310   6.773  0.3578  0.1080 -0.5557
 6137SOL    HW119096   3.597   6.332   6.680 -2.1608 -0.2966 -0.6470
 6137SOL    HW219097   3.591   6.394   6.818 -1.3727  0.0952 -0.7847
 6138SOL     OW19098   2.836   5.129   3.483  0.2246  0.2123  0.1349
 6138SOL    HW119099   2.788   5.211   3.481 -0.8132 -0.3897 -1.9946
 6138SOL    HW219100   2.782   5.071   3.537 -0.8719 -0.0912 -1.2384
 6139SOL     OW19101   5.618   3.994   0.562 -0.1199 -0.6339  0.2404
 6139SOL    HW119102   5.541   3.980   0.506  0.0807 -0.7039 -0.0230
 6139SOL    HW219103   5.658   4.074   0.528  0.7692 -1.4029 -0.6229
 6140SOL     OW19104   1.001   0.222   3.990 -0.0436  0.1109 -0.0271
 6140SOL    HW119105   0.920   0.209   3.941  1.0389  0.4149 -2.0216
 6140SOL    HW219106   1.071   0.205   3.926  1.4577  1.5546  1.1332
 6141SOL     OW19107   6.929   7.561   1.339 -0.2351 -0.1979  0.0656
 6141SOL    HW119108   6.935   7.613   1.419  0.8629  1.0089 -0.7504
 6141SOL    HW219109   7.015   7.519   1.332 -0.0880  0.2258 -0.7892
 6142SOL     OW19110   4.470   4.546   1.451  0.6870  0.4960 -0.3375
 6142SOL    HW119111   4.407   4.550   1.523 -0.1495  2.7326 -1.0866
 6142SOL    HW219112   4.489   4.453   1.441 -1.0728 -0.0964  1.1382
 6143SOL     OW19113   2.813   1.686   4.393 -0.0014 -0.0916  0.2386
 6143SOL    HW119114   2.854   1.754   4.446 -2.2827  0.4875  1.3936
 6143SOL    HW219115   2.765   1.633   4.457 -1.4719 -0.3806 -1.0768
 6144SOL     OW19116   3.849   5.225   5.006 -0.4652  0.1074 -0.0489
 6144SOL    HW119117   3.788   5.296   4.987  0.3580  1.3532  1.7026
 6144SOL    HW219118   3.847   5.170   4.928 -2.9246  0.7317 -0.5101
 6145SOL     OW19119   5.668   3.532   4.468 -0.0497  0.2579 -0.1984
 6145SOL    HW119120   5.721   3.540   4.389 -0.2205 -0.0515 -0.3471
 6145SOL    HW219121   5.707   3.594   4.530 -0.7679  1.5173 -0.9839
 6146SOL     OW19122   6.672   3.043   1.371 -0.2311  0.4598  0.0873
 6146SOL    HW119123   6.591   3.094   1.381 -0.2762  0.2854  0.6498
 6146SOL    HW219124   6.720   3.088   1.302 -1.4706 -0.2916 -1.3337
 6147SOL     OW19125   0.755   6.869   0.390 -0.4783 -0.0166 -0.0361
 6147SOL    HW119126   0.736   6.776   0.373  2.2557 -0.5502 -0.6134
 6147SOL    HW219127   0.816   6.867   0.463 -1.5839  1.4867  0.9821
 6148SOL     OW19128   5.315   2.869   3.791 -0.7447  0.5013  0.2234
 6148SOL    HW119129   5.308   2.804   3.721  0.4882  0.0408  0.5163
 6148SOL    HW219130   5.407   2.896   3.791 -0.6233  0.1854  1.9438
 6149SOL     OW19131   3.119   5.596   0.806  0.2493  0.1621  0.2879
 6149SOL    HW119132   3.050   5.581   0.870  0.5196  0.0993  0.5716
 6149SOL    HW219133   3.094   5.545   0.729  0.0791 -0.0127  0.4594
 6150SOL     OW19134   7.636   3.868   6.429 -0.1251 -0.0695  0.0469
 6150SOL    HW119135   7.652   3.948   6.479 -0.2721  0.0914 -0.1656
 6150SOL    HW219136   7.541   3.863   6.421 -0.3829 -1.8648  2.6952
 6151SOL     OW19137   7.380   1.005   0.476  0.4585  0.3529 -0.0815
 6151SOL    HW119138   7.470   0.987   0.503  0.0810 -0.2435  0.8303
 6151SOL    HW219139   7.352   0.925   0.431 -0.3193 -0.3430  1.5685
 6152SOL     OW19140   7.219   6.595   3.077 -0.0872  0.2136 -0.0181
 6152SOL    HW119141   7.188   6.643   3.000  0.7426 -0.0290 -0.5141
 6152SOL    HW219142   7.156   6.524   3.088  0.2798 -0.2846 -1.0209
 6153SOL     OW19143   3.690   0.883   5.834 -0.3556  0.5225 -0.1691
 6153SOL    HW119144   3.597   0.863   5.824 -0.4770  1.2100 -0.4858
 6153SOL    HW219145   3.735   0.799   5.819 -1.0074 -0.3061  2.0747
 6154SOL     OW19146   3.652   1.516   5.321 -0.0623  0.3553  0.0653
 6154SOL    HW119147   3.614   1.450   5.379  0.1371  0.0235 -0.1813
 6154SOL    HW219148   3.622   1.599   5.357  1.0306  0.2257  1.3647
 6155SOL     OW19149   5.068   2.580   4.201 -0.0767 -0.0932 -0.0311
 6155SOL    HW119150   5.091   2.498   4.244 -0.5119  0.3342  1.0638
 6155SOL    HW219151   4.973   2.574   4.189  0.1068 -0.4454 -1.4830
 6156SOL     OW19152   1.549   5.266   1.916  0.3256 -0.0065 -0.1454
 6156SOL    HW119153   1.599   5.316   1.981  3.4498 -0.7500 -1.7908
 6156SOL    HW219154   1.530   5.328   1.846  0.1772 -0.0628 -0.1564
 6157SOL     OW19155   6.364   1.766   4.862 -0.2127  0.8619  0.4108
 6157SOL    HW119156   6.383   1.681   4.902 -1.3772  0.6765  0.5969
 6157SOL    HW219157   6.270   1.765   4.845  0.2212  0.8394 -2.6075
 6158SOL     OW19158   2.330   5.348   3.798  0.2214  0.0635  0.1496
 6158SOL    HW119159   2.236   5.339   3.783  0.3312 -0.4221 -0.3021
 6158SOL    HW219160   2.368   5.351   3.710  0.5669  1.0618  0.3189
 6159SOL     OW19161   4.382   1.059   4.768  0.0563  0.2578 -0.0674
 6159SOL    HW119162   4.457   1.032   4.822 -0.0173  3.6535  1.9956
 6159SOL    HW219163   4.418   1.069   4.680  2.0254  1.4905  0.8180
 6160SOL     OW19164   0.290   1.509   6.654  0.3300  0.0519 -0.4261
 6160SOL    HW119165   0.196   1.506   6.668  0.3067 -1.0570 -0.6936
 6160SOL    HW219166   0.319   1.419   6.668  1.6968  0.7652  1.8298
 6161SOL     OW19167   1.748   5.038   2.660 -0.8157 -0.1391  0.2988
 6161SOL    HW119168   1.723   5.122   2.699 -0.2262  1.1185 -1.8681
 6161SOL    HW219169   1.716   5.042   2.570  1.0873 -1.3081 -0.5102
 6162SOL     OW19170   3.095   1.705   7.517  0.8336 -0.3763  0.0626
 6162SOL    HW119171   3.117   1.797   7.527 -1.4691  0.4498 -1.5838
 6162SOL    HW219172   3.154   1.673   7.448  0.8019  0.2120 -0.2382
 6163SOL     OW19173   7.549   5.297   2.042  0.0846 -0.5241  0.4337
 6163SOL    HW119174   7.628   5.261   2.082  2.8531  2.4285 -1.8658
 6163SOL    HW219175   7.497   5.328   2.116  1.3720 -1.9243  2.0045
 6164SOL     OW19176   5.664   2.823   7.013 -0.2035 -0.4276 -0.2234
 6164SOL    HW119177   5.576   2.787   6.996  0.1568 -1.7986  0.6129
 6164SOL    HW219178   5.656   2.916   6.992 -1.4673 -0.7883 -1.5245
 6165SOL     OW19179   3.556   5.151   4.669 -0.5168  0.2260  0.2736
 6165SOL    HW119180   3.591   5.064   4.648  1.6887  1.0278  0.4420
 6165SOL    HW219181   3.527   5.186   4.585  1.4897  0.5290 -0.3425
 6166SOL     OW19182   6.182   1.753   5.626  0.2488  0.1258 -0.3731
 6166SOL    HW119183   6.138   1.708   5.554  0.9162  0.3965 -0.9646
 6166SOL    HW219184   6.274   1.758   5.599  0.1632  2.0816 -0.4660
 6167SOL     OW19185   3.422   2.798   1.481  0.5716  0.6844 -0.0942
 6167SOL    HW119186   3.468   2.714   1.473  0.3601  0.4685  0.8475
 6167SOL    HW219187   3.485   2.855   1.527 -0.4315  0.0779  2.1685
 6168SOL     OW19188   3.858   2.610   1.688  0.1738 -0.2195 -0.0012
 6168SOL    HW119189   3.944   2.569   1.699  0.3454  0.3137  0.7969
 6168SOL    HW219190   3.875   2.686   1.632  0.0023 -0.7525 -0.7989
 6169SOL     OW19191   6.532   0.044   2.689  0.2877  0.1967 -0.1433
 6169SOL    HW119192   6.615   0.035   2.736 -0.9452  1.4848  2.4362
 6169SOL    HW219193   6.545  -0.008   2.609  3.4818  0.2005  0.2340
 6170SOL     OW19194   6.932   5.228   6.197  0.4149  0.2833 -0.5405
 6170SOL    HW119195   6.952   5.290   6.268  1.0737  0.5976 -0.9932
 6170SOL    HW219196   6.838   5.240   6.181  0.6381  1.5524 -0.9829
 6171SOL     OW19197   0.064   7.473   2.468 -0.0932 -0.1784 -0.6415
 6171SOL    HW119198   0.066   7.419   2.547 -2.2173  0.4679 -0.0763
 6171SOL    HW219199   0.121   7.547   2.488 -3.0680  1.7287  1.7578
 6172SOL     OW19200   5.872   6.451   5.074  0.1680 -0.3344 -0.2074
 6172SOL    HW119201   5.890   6.416   5.161 -1.6726  0.1178  0.4169
 6172SOL    HW219202   5.868   6.546   5.087  2.0683 -0.0701 -1.2611
 6173SOL     OW19203   1.479   7.233   2.443  0.4701  0.3252  0.0090
 6173SOL    HW119204   1.389   7.203   2.456  0.7510 -0.2609  0.6181
 6173SOL    HW219205   1.499   7.284   2.521  1.8426 -2.4579  1.6328
 6174SOL     OW19206   2.700   0.266   2.917  0.4700 -0.1747 -0.9489
 6174SOL    HW119207   2.732   0.272   3.006 -0.1537 -0.5526 -0.6889
 6174SOL    HW219208   2.639   0.192   2.918 -2.1443  1.8067 -0.8445
 6175SOL     OW19209   0.397   0.999   1.742 -0.0451 -0.0039 -0.2276
 6175SOL    HW119210   0.485   1.026   1.714  0.6387 -2.4232 -0.6584
 6175SOL    HW219211   0.377   0.923   1.687 -1.8978 -0.2557  0.7259
 6176SOL     OW19212   3.179   2.868   0.054 -0.5160 -0.2761 -1.0627
 6176SOL    HW119213   3.274   2.861   0.056 -0.3641  1.0025  1.5682
 6176SOL    HW219214   3.148   2.797   0.110 -1.0968 -0.5190 -1.6774
 6177SOL     OW19215   5.834   3.354   6.741 -0.2122  0.1347 -0.4060
 6177SOL    HW119216   5.740   3.356   6.759 -0.2652  1.4194 -0.7564
 6177SOL    HW219217   5.859   3.445   6.731  1.3015 -0.0875  0.7815
 6178SOL     OW19218   0.586   3.107   7.406  0.2425 -0.1350  0.0853
 6178SOL    HW119219   0.651   3.169   7.439  1.0566 -0.4289 -0.9368
 6178SOL    HW219220   0.602   3.027   7.456  0.8895 -0.3064 -0.3856
 6179SOL     OW19221   0.580   0.905   3.780 -0.3439 -0.1609  0.4929
 6179SOL    HW119222   0.521   0.973   3.746  2.6136  1.6151 -1.5926
 6179SOL    HW219223   0.614   0.942   3.862  0.2660  0.3148  0.0348
 6180SOL     OW19224   0.189   4.557   7.594 -0.3658  0.3655 -0.4051
 6180SOL    HW119225   0.168   4.531   7.684  0.0711 -0.4805 -0.5387
 6180SOL    HW219226   0.180   4.652   7.594 -2.9870  0.2057 -0.1388
 6181SOL     OW19227   3.403   5.315   7.253  0.4827 -0.4148 -0.2487
 6181SOL    HW119228   3.451   5.244   7.295  0.4149  0.3316  1.1641
 6181SOL    HW219229   3.319   5.317   7.298  0.9607  1.3613  0.6739
 6182SOL     OW19230   1.878   4.070   0.415  0.0420  0.0633  0.2661
 6182SOL    HW119231   1.892   4.110   0.501  0.6588  1.5868 -0.5149
 6182SOL    HW219232   1.871   3.976   0.434  0.6410  0.3123  1.9166
 6183SOL     OW19233   6.546   6.256   2.459 -0.2741 -0.2077 -0.8279
 6183SOL    HW119234   6.474   6.311   2.491 -0.7431 -1.1341 -0.2358
 6183SOL    HW219235   6.611   6.260   2.529 -0.7783 -1.2599 -0.2767
 6184SOL     OW19236   2.956   0.386   5.989 -0.0882 -0.2470  0.5847
 6184SOL    HW119237   3.007   0.433   6.055 -0.2141 -0.8886  1.1479
 6184SOL    HW219238   3.021   0.357   5.925 -0.0822  1.2208 -0.1127
 6185SOL     OW19239   0.262   1.311   3.358 -0.7552 -0.3238 -0.3032
 6185SOL    HW119240   0.172   1.293   3.384 -1.2848  0.9652 -1.1358
 6185SOL    HW219241   0.261   1.302   3.263  0.3085 -1.4978 -0.2340
 6186SOL     OW19242   2.151   1.643   0.635 -0.1411  0.1792 -1.1351
 6186SOL    HW119243   2.130   1.635   0.542 -0.7703  0.1580 -0.9977
 6186SOL    HW219244   2.066   1.638   0.679  0.2284 -0.8038 -0.4922
 6187SOL     OW19245   3.495   3.525   0.088 -0.4285  0.0450  0.6869
 6187SOL    HW119246   3.513   3.452   0.029 -0.2221 -0.0355  0.8463
 6187SOL    HW219247   3.471   3.483   0.171 -1.0371  0.1539  0.5708
 6188SOL     OW19248   4.629   0.527   2.814 -0.2697  0.1977 -0.2848
 6188SOL    HW119249   4.646   0.460   2.748 -0.9725 -0.4506  0.1830
 6188SOL    HW219250   4.588   0.598   2.765  0.5427  0.3331 -0.7943
 6189SOL     OW19251   2.833   1.854   5.563 -0.0351 -0.3139 -0.0899
 6189SOL    HW119252   2.785   1.775   5.587 -0.0428 -0.4522 -0.5503
 6189SOL    HW219253   2.923   1.838   5.591 -0.1989 -0.1717  0.5145
 6190SOL     OW19254   6.028   4.901   3.129 -0.2704  0.2324  0.1262
 6190SOL    HW119255   6.097   4.875   3.190  0.0149  1.2263  0.2475
 6190SOL    HW219256   6.002   4.820   3.085 -0.4847 -0.5035  1.5715
 6191SOL     OW19257   6.776   3.450   3.541 -0.4242  0.1645 -0.1612
 6191SOL    HW119258   6.756   3.400   3.462 -0.9972  0.4548 -0.2055
 6191SOL    HW219259   6.750   3.393   3.614 -0.1791  0.0179 -0.1883
 6192SOL     OW19260   2.054   4.500   1.853 -0.4844 -0.1865 -0.1776
 6192SOL    HW119261   2.041   4.439   1.926  1.6637  0.4125  0.7950
 6192SOL    HW219262   2.090   4.445   1.783 -0.5948 -0.4197 -0.0532
 6193SOL     OW19263   2.671   1.341   7.407 -0.2398  0.5437  0.6952
 6193SOL    HW119264   2.599   1.403   7.396  0.2146  0.8529 -0.6996
 6193SOL    HW219265   2.647   1.290   7.484 -2.2782  0.2020 -0.1118
 6194SOL     OW19266   6.317   0.920   6.255  0.1333  0.4483  0.0984
 6194SOL    HW119267   6.338   1.003   6.298 -0.0381 -0.0436  1.1825
 6194SOL    HW219268   6.385   0.860   6.285 -0.5629 -0.1605  0.5096
 6195SOL     OW19269   0.878   3.196   5.107 -0.1343  0.1294  0.4275
 6195SOL    HW119270   0.823   3.118   5.099 -0.2392  0.3335 -1.2025
 6195SOL    HW219271   0.823   3.259   5.154 -0.7604 -0.1477  0.0811
 6196SOL     OW19272   3.434   7.721   5.000 -0.3785 -0.4115  0.5194
 6196SOL    HW119273   3.460   7.716   5.092 -0.2207 -1.8181  0.4286
 6196SOL    HW219274   3.352   7.671   4.995 -0.1380 -0.7585 -0.1699
 6197SOL     OW19275   3.630   2.612   3.539 -0.4837  0.1271  0.1511
 6197SOL    HW119276   3.698   2.646   3.481 -0.8741  1.1022  0.2413
 6197SOL    HW219277   3.646   2.518   3.543  0.8140  0.3389  0.1335
 6198SOL     OW19278   2.810   0.232   3.176 -0.4091  0.5693 -0.3563
 6198SOL    HW119279   2.876   0.266   3.236 -1.4926  2.3154 -0.1068
 6198SOL    HW219280   2.726   0.250   3.218 -1.1322 -2.6201 -0.1333
 6199SOL     OW19281   0.349   6.001   6.206  0.0795 -0.6014  0.1034
 6199SOL    HW119282   0.395   6.061   6.265  1.1747  0.8595 -2.1025
 6199SOL    HW219283   0.415   5.975   6.142 -1.3183 -1.2343 -1.1392
 6200SOL     OW19284   5.524   0.919   6.331 -0.4137 -0.2479 -0.4783
 6200SOL    HW119285   5.537   0.865   6.253  0.4776  0.6555 -0.9828
 6200SOL    HW219286   5.563   1.003   6.308  2.2507 -0.7069  1.8074
 6201SOL     OW19287   3.515   3.022   2.765 -0.7205  0.1317  0.2615
 6201SOL    HW119288   3.576   2.992   2.833 -0.9643 -1.4187 -0.1456
 6201SOL    HW219289   3.550   2.983   2.684 -2.4352 -1.1524  0.0850
 6202SOL     OW19290   1.322   7.209   0.177 -0.0712  0.4024 -0.1540
 6202SOL    HW119291   1.273   7.284   0.144 -1.1682  0.3650  1.2892
 6202SOL    HW219292   1.395   7.247   0.225 -1.9998  0.7309  2.7336
 6203SOL     OW19293   1.734   0.524   7.770 -0.1468 -0.1722  0.9408
 6203SOL    HW119294   1.782   0.488   7.696  0.3010  3.1590 -0.5772
 6203SOL    HW219295   1.801   0.542   7.835 -0.5207 -2.9426  2.2520
 6204SOL     OW19296   6.436   0.459   6.752  0.0524 -0.0027  0.1358
 6204SOL    HW119297   6.529   0.460   6.775  0.3983  0.0733 -1.1945
 6204SOL    HW219298   6.418   0.368   6.729 -0.0551  0.0943 -0.1623
 6205SOL     OW19299   6.046   2.860   3.211  0.2812 -0.1592 -0.8739
 6205SOL    HW119300   6.129   2.906   3.196  0.1031  0.2056 -0.7494
 6205SOL    HW219301   6.004   2.909   3.282 -0.8324  0.7102 -2.0830
 6206SOL     OW19302   4.229   3.313   2.287 -0.0309  0.4018  0.3045
 6206SOL    HW119303   4.162   3.259   2.246 -0.3309  0.5185  0.6377
 6206SOL    HW219304   4.311   3.281   2.251 -0.2032 -0.3230  0.5576
 6207SOL     OW19305   1.139   4.460   1.023  0.1316  0.7228 -0.5221
 6207SOL    HW119306   1.176   4.390   0.968 -1.6178  0.5409 -1.5526
 6207SOL    HW219307   1.104   4.524   0.960 -1.0059  1.0113  0.3674
 6208SOL     OW19308   0.736   2.113   6.597  0.4140 -0.3236 -0.6642
 6208SOL    HW119309   0.731   2.183   6.661 -2.5412 -1.1749  0.2111
 6208SOL    HW219310   0.783   2.042   6.642  1.4458  0.2809 -0.7600
 6209SOL     OW19311   5.853   3.297   2.562 -0.1672 -0.4598  0.1405
 6209SOL    HW119312   5.931   3.278   2.616 -0.2323  0.0662  0.4260
 6209SOL    HW219313   5.887   3.306   2.473  0.1355 -0.0072  0.2991
 6210SOL     OW19314   7.305   6.758   4.248 -0.3332 -1.0981 -0.6945
 6210SOL    HW119315   7.249   6.746   4.171 -1.1315  0.7667 -0.4547
 6210SOL    HW219316   7.269   6.834   4.293  1.0457 -1.2153  0.7146
 6211SOL     OW19317   3.644   0.083   6.117 -0.1606  0.2350  0.3665
 6211SOL    HW119318   3.652   0.052   6.207 -1.6639 -0.9600  0.1294
 6211SOL    HW219319   3.696   0.020   6.066 -2.0185 -1.1436  0.0583
 6212SOL     OW19320   3.690   5.076   5.821 -0.4331  0.3894 -0.6991
 6212SOL    HW119321   3.613   5.119   5.784 -0.0152 -0.3055 -2.4302
 6212SOL    HW219322   3.753   5.074   5.750  1.7592  2.1734  1.0382
 6213SOL     OW19323   3.014   4.487   5.673  0.2116  0.4826  0.2052
 6213SOL    HW119324   2.967   4.419   5.624  1.0760  0.3107 -0.4032
 6213SOL    HW219325   3.101   4.450   5.688 -0.4255 -0.1257  3.2291
 6214SOL     OW19326   3.388   3.773   4.810 -0.7643 -0.3298 -0.5059
 6214SOL    HW119327   3.476   3.806   4.825 -0.6793  0.2427 -2.0271
 6214SOL    HW219328   3.397   3.678   4.809 -0.2297 -0.2826 -0.3364
 6215SOL     OW19329   5.250   3.381   2.079 -0.5589  0.1594 -0.6061
 6215SOL    HW119330   5.179   3.436   2.046  0.2348  1.5796  0.0035
 6215SOL    HW219331   5.304   3.363   2.002 -1.5946 -1.0273 -1.0983
 6216SOL     OW19332   2.433   4.368   1.786  0.2941  0.1139 -0.3016
 6216SOL    HW119333   2.349   4.326   1.806  0.4119 -0.1441 -0.3393
 6216SOL    HW219334   2.410   4.459   1.764  0.0575  0.1227 -0.0190
 6217SOL     OW19335   5.928   2.888   5.694  0.0017  0.1040 -0.2477
 6217SOL    HW119336   5.855   2.827   5.698 -2.7341  3.0381 -0.9286
 6217SOL    HW219337   5.941   2.904   5.601 -0.2038  1.4215 -0.0749
 6218SOL     OW19338   2.421   4.477   3.109  0.5352 -0.4854  0.5135
 6218SOL    HW119339   2.422   4.565   3.073 -2.6726 -0.8116 -0.6736
 6218SOL    HW219340   2.503   4.437   3.078  1.9184  1.8904  0.8557
 6219SOL     OW19341   2.879   1.680   4.863 -0.1477 -0.0613  0.4319
 6219SOL    HW119342   2.811   1.705   4.926 -0.9568 -2.3332  0.5723
 6219SOL    HW219343   2.831   1.631   4.795  1.0542  0.2443 -0.6657
 6220SOL     OW19344   2.108   0.883   5.929 -0.0463  0.5586  0.2400
 6220SOL    HW119345   2.027   0.839   5.901  0.8279 -0.3432 -0.9690
 6220SOL    HW219346   2.177   0.823   5.902  0.9930  0.7781  2.2616
 6221SOL     OW19347   1.814   2.399   2.537 -0.1748  0.0400 -0.3207
 6221SOL    HW119348   1.726   2.361   2.526 -0.1965 -0.1386  0.4223
 6221SOL    HW219349   1.840   2.424   2.449 -0.8065 -0.2854 -0.6087
 6222SOL     OW19350   3.358   4.630   5.378 -0.2843 -0.1217 -0.0575
 6222SOL    HW119351   3.412   4.709   5.376 -0.8768  0.2822 -1.2857
 6222SOL    HW219352   3.335   4.618   5.470 -0.6806  1.4727  0.0787
 6223SOL     OW19353   1.686   3.170   5.536 -0.7430  0.6217  0.0837
 6223SOL    HW119354   1.662   3.262   5.536 -0.4854  0.6910  0.4743
 6223SOL    HW219355   1.776   3.169   5.569  0.2327  0.4909 -2.3582
 6224SOL     OW19356   1.006   4.756   4.724  0.3418  0.7071  0.1949
 6224SOL    HW119357   1.087   4.789   4.764  1.2608  0.0805 -1.0925
 6224SOL    HW219358   0.982   4.681   4.778  2.1759 -0.8065 -0.9571
 6225SOL     OW19359   0.101   2.055   5.100 -0.3641  0.0508  0.2897
 6225SOL    HW119360   0.194   2.063   5.077  0.3642 -2.1903  2.1068
 6225SOL    HW219361   0.085   2.129   5.159  0.1434  0.6319 -0.2725
 6226SOL     OW19362   2.842   6.937   1.912  0.2208 -0.7555 -0.0519
 6226SOL    HW119363   2.799   7.016   1.880  0.9719 -0.4815 -0.4131
 6226SOL    HW219364   2.860   6.885   1.833  2.3202  0.0431 -0.1629
 6227SOL     OW19365   7.184   4.990   6.916 -0.6216 -0.3503 -0.6293
 6227SOL    HW119366   7.175   4.947   7.001 -1.1233  0.3947 -0.2968
 6227SOL    HW219367   7.132   4.936   6.856 -0.6106 -0.6371 -0.3845
 6228SOL     OW19368   6.763   3.885   6.471 -0.0171 -0.1740  0.2418
 6228SOL    HW119369   6.774   3.913   6.562  0.4867 -1.0817  0.4732
 6228SOL    HW219370   6.677   3.919   6.446  0.5220  1.4784  0.5148
 6229SOL     OW19371   0.516   1.771   5.021  0.2362  0.0495 -0.5464
 6229SOL    HW119372   0.561   1.843   4.976  0.2363  1.6962  1.8573
 6229SOL    HW219373   0.424   1.782   4.998  0.4447 -0.2893 -1.5800
 6230SOL     OW19374   4.888   0.780   3.400  0.3096 -0.0881 -0.8573
 6230SOL    HW119375   4.932   0.740   3.325  0.5093  0.1231 -0.8542
 6230SOL    HW219376   4.848   0.860   3.366  0.3476 -0.0246 -0.7531
 6231SOL     OW19377   1.187   1.819   2.458 -0.0956 -0.1194 -0.0449
 6231SOL    HW119378   1.271   1.783   2.484  0.6056  0.5726 -1.2837
 6231SOL    HW219379   1.135   1.819   2.539  1.1934 -0.2531  0.8088
 6232SOL     OW19380   4.620   7.152   2.732 -0.6721 -0.3505 -0.1641
 6232SOL    HW119381   4.618   7.183   2.822 -0.8231 -1.0908  0.0944
 6232SOL    HW219382   4.532   7.118   2.716 -1.1428  1.2101 -1.1218
 6233SOL     OW19383   6.310   6.539   7.397 -0.2067  0.2945  0.6214
 6233SOL    HW119384   6.252   6.596   7.347  0.9776  1.6578  0.7596
 6233SOL    HW219385   6.275   6.541   7.486 -1.0059 -0.3747  0.3402
 6234SOL     OW19386   6.880   0.314   5.700 -0.0655  0.7550  0.0832
 6234SOL    HW119387   6.810   0.293   5.638  1.5806 -0.7251 -1.3886
 6234SOL    HW219388   6.938   0.373   5.652  0.4564  0.8104  0.7723
 6235SOL     OW19389   0.428   4.002   7.471  0.3050 -0.4614 -0.4400
 6235SOL    HW119390   0.393   4.075   7.522 -0.3136 -0.9084 -0.2095
 6235SOL    HW219391   0.518   3.991   7.502 -0.6672 -2.0936  2.1610
 6236SOL     OW19392   7.710   4.246   1.327  0.3080  0.1609  0.0750
 6236SOL    HW119393   7.798   4.245   1.366  0.1605  0.4593  0.4339
 6236SOL    HW219394   7.654   4.278   1.398  0.1382  1.4281 -0.6095
 6237SOL     OW19395   6.122   7.455   5.931  0.4533  0.7136 -0.3990
 6237SOL    HW119396   6.122   7.520   6.002  0.3947 -0.0079  0.2664
 6237SOL    HW219397   6.032   7.421   5.930  0.9497 -0.6441  0.4429
 6238SOL     OW19398   1.706   4.522   3.914  0.4575 -0.2197  0.1815
 6238SOL    HW119399   1.631   4.580   3.924  1.5069  2.0242 -3.2626
 6238SOL    HW219400   1.761   4.540   3.991 -0.2219  1.8879  0.2332
 6239SOL     OW19401   6.781   3.272   4.763  0.2439 -0.0009  0.2194
 6239SOL    HW119402   6.851   3.218   4.799  1.0604  0.0000 -1.2722
 6239SOL    HW219403   6.718   3.281   4.834  0.6251 -1.9766  0.8646
 6240SOL     OW19404   1.471   3.258   5.223 -0.4068 -0.2519 -0.1928
 6240SOL    HW119405   1.411   3.285   5.153 -1.7839 -2.2835  0.1218
 6240SOL    HW219406   1.531   3.197   5.180 -0.3887 -0.4518  0.1141
 6241SOL     OW19407   3.608   2.462   2.196 -0.4839  0.8334 -0.5003
 6241SOL    HW119408   3.568   2.460   2.283 -0.5312 -1.1277 -0.5355
 6241SOL    HW219409   3.542   2.427   2.137  1.0641 -2.3738 -0.5717
 6242SOL     OW19410   7.254   6.407   1.984  0.5395  0.4043 -0.3317
 6242SOL    HW119411   7.327   6.396   1.924  1.1603 -3.1862  0.8532
 6242SOL    HW219412   7.176   6.402   1.928  1.1351 -1.7728 -1.0584
 6243SOL     OW19413   5.702   7.522   6.201 -0.3503  0.1009  0.4134
 6243SOL    HW119414   5.696   7.536   6.106  1.8063 -1.3508 -0.0017
 6243SOL    HW219415   5.770   7.582   6.230 -0.7092  0.2364  0.9853
 6244SOL     OW19416   5.946   2.162   6.305 -0.4959 -0.3933  0.4032
 6244SOL    HW119417   5.927   2.234   6.245 -0.8380 -2.0624 -1.6146
 6244SOL    HW219418   6.015   2.196   6.362 -0.3081  1.3612 -0.7902
 6245SOL     OW19419   2.558   6.926   3.643 -0.3509 -0.2427  0.1454
 6245SOL    HW119420   2.517   7.000   3.599 -0.7847 -1.3027 -1.3005
 6245SOL    HW219421   2.501   6.852   3.625  0.1822 -0.9916  1.3854
 6246SOL     OW19422   0.134   3.168   4.629 -0.0809  0.4728  0.6297
 6246SOL    HW119423   0.162   3.175   4.720  1.5789 -0.8073  0.2609
 6246SOL    HW219424   0.206   3.205   4.578  1.0823 -2.7273 -0.3285
 6247SOL     OW19425   7.587   2.226   4.608 -0.2629  0.2290  0.1751
 6247SOL    HW119426   7.510   2.278   4.586 -1.2654 -1.5769 -0.8155
 6247SOL    HW219427   7.603   2.173   4.530  3.4543  2.1506 -0.6155
 6248SOL     OW19428   6.808   5.029   5.364  0.3812 -0.3746  0.7315
 6248SOL    HW119429   6.874   5.062   5.304  0.3653  1.5501  1.6821
 6248SOL    HW219430   6.729   5.080   5.345 -0.2763 -1.2773  0.9254
 6249SOL     OW19431   4.902   1.227   5.332  0.2092  0.2547 -0.4167
 6249SOL    HW119432   4.878   1.186   5.415 -1.7930 -3.5800 -2.5934
 6249SOL    HW219433   4.820   1.266   5.300  0.6497  0.6002 -1.1536
 6250SOL     OW19434   4.953   4.634   3.331 -0.2839 -0.0417  0.6698
 6250SOL    HW119435   4.886   4.699   3.350 -0.5239  0.9002 -2.7238
 6250SOL    HW219436   5.016   4.679   3.275  0.0274 -2.3966 -1.0573
 6251SOL     OW19437   7.283   4.244   2.249  0.0322 -0.3130 -0.3144
 6251SOL    HW119438   7.286   4.332   2.212 -1.0694 -0.4295 -0.7210
 6251SOL    HW219439   7.339   4.248   2.327 -1.3367  1.2275  0.6560
 6252SOL     OW19440   5.641   2.571   1.086  0.2577 -0.2602 -0.4667
 6252SOL    HW119441   5.637   2.581   0.991  1.0957 -0.1818 -0.4996
 6252SOL    HW219442   5.719   2.517   1.101  0.5069  0.2806  0.2183
 6253SOL     OW19443   2.865   5.795   5.508 -0.6096 -0.2810 -0.2977
 6253SOL    HW119444   2.877   5.842   5.426  0.0750 -0.0583 -0.0806
 6253SOL    HW219445   2.897   5.855   5.575  0.6089 -1.1545 -0.0404
 6254SOL     OW19446   2.477   0.095   5.517 -0.0305 -0.1452  0.2880
 6254SOL    HW119447   2.513   0.174   5.557  0.8639  0.4571 -1.5799
 6254SOL    HW219448   2.384   0.115   5.504  0.5024  1.3795 -1.7441
 6255SOL     OW19449   3.123   1.945   3.985 -0.7520  0.3587 -0.2733
 6255SOL    HW119450   3.187   1.999   3.939 -2.7355  2.5154 -0.6674
 6255SOL    HW219451   3.088   2.001   4.054 -0.0485 -1.8143  1.9898
 6256SOL     OW19452   0.956   5.500   7.432 -0.2055  0.0828 -0.8219
 6256SOL    HW119453   0.983   5.585   7.397  2.1585  0.2807  1.2187
 6256SOL    HW219454   1.022   5.438   7.399  0.6168 -0.1487  1.1475
 6257SOL     OW19455   4.651   5.368   5.335 -0.0088 -0.5092  0.2681
 6257SOL    HW119456   4.595   5.297   5.303  1.7052 -0.7451 -2.5841
 6257SOL    HW219457   4.597   5.446   5.329 -0.6180 -0.9824 -0.5931
 6258SOL     OW19458   6.066   7.320   7.690 -0.3927 -0.1678 -0.4907
 6258SOL    HW119459   6.122   7.347   7.617  0.9006 -0.4522  0.3654
 6258SOL    HW219460   6.116   7.341   7.768 -1.8967  0.4518  0.3617
 6259SOL     OW19461   1.149   5.854   2.939  0.0477  0.1246 -0.1916
 6259SOL    HW119462   1.157   5.792   2.867 -0.7220 -0.7161  0.4321
 6259SOL    HW219463   1.079   5.819   2.994 -0.8349  1.8348 -0.1288
 6260SOL     OW19464   2.693   6.180   0.399  0.7600 -0.1477 -0.1770
 6260SOL    HW119465   2.788   6.174   0.406  0.6789 -0.2612  1.0331
 6260SOL    HW219466   2.663   6.198   0.488 -0.4313 -1.1997 -0.3270
 6261SOL     OW19467   0.905   2.276   0.561  0.4103  0.2387 -0.0748
 6261SOL    HW119468   0.848   2.199   0.569  0.4953 -0.0344 -1.7444
 6261SOL    HW219469   0.845   2.349   0.547  0.4044 -0.1624 -2.6486
 6262SOL     OW19470   7.282   2.728   1.866 -0.2213 -0.1070  0.4325
 6262SOL    HW119471   7.218   2.771   1.922 -0.0517 -0.5934  0.9992
 6262SOL    HW219472   7.287   2.638   1.898  0.6761 -0.1030  0.3448
 6263SOL     OW19473   6.647   6.228   5.050 -0.3302  0.4328  0.5478
 6263SOL    HW119474   6.740   6.213   5.065 -0.7224 -0.0649  2.8511
 6263SOL    HW219475   6.640   6.322   5.035  0.9084  0.0430 -3.4266
 6264SOL     OW19476   4.735   2.637   4.759 -0.5946  0.3996  0.2303
 6264SOL    HW119477   4.695   2.700   4.818 -2.3349 -1.9784  1.7625
 6264SOL    HW219478   4.787   2.580   4.816 -2.6465 -2.2320 -0.3014
 6265SOL     OW19479   5.251   6.037   1.504  0.2791  0.2777  0.3109
 6265SOL    HW119480   5.254   6.114   1.447  1.8455 -0.5038 -0.7450
 6265SOL    HW219481   5.210   5.969   1.450 -1.2470  0.3605  1.2885
 6266SOL     OW19482   3.326   5.760   7.464  1.0840  0.8113 -0.3162
 6266SOL    HW119483   3.259   5.708   7.419  0.8496  0.4045  0.4933
 6266SOL    HW219484   3.276   5.818   7.522  1.4342  0.2974  0.5122
 6267SOL     OW19485   4.712   1.323   7.340 -0.3661  0.8154 -0.2128
 6267SOL    HW119486   4.736   1.397   7.394 -0.4240  2.1296 -1.8910
 6267SOL    HW219487   4.630   1.349   7.297 -0.5411 -0.3266 -0.6308
 6268SOL     OW19488   4.363   5.575   4.734 -0.1036 -0.3745  0.3486
 6268SOL    HW119489   4.286   5.534   4.694  0.3359 -1.6629  0.7684
 6268SOL    HW219490   4.413   5.611   4.660 -1.2427  0.7630  0.0952
 6269SOL     OW19491   1.288   7.708   6.885 -0.2808  0.2314 -0.3774
 6269SOL    HW119492   1.212   7.710   6.827  0.6672  0.0607 -1.6775
 6269SOL    HW219493   1.260   7.754   6.964 -0.8609  2.6950 -1.9326
 6270SOL     OW19494   5.856   4.597   5.369  0.3187  0.2314  0.0272
 6270SOL    HW119495   5.826   4.518   5.413  1.6436 -0.8606 -0.9263
 6270SOL    HW219496   5.886   4.654   5.439  2.1697 -1.3656  0.6270
 6271SOL     OW19497   4.483   6.335   1.627 -0.2904  0.0042  0.1514
 6271SOL    HW119498   4.443   6.249   1.624  0.7061 -0.4369 -1.0525
 6271SOL    HW219499   4.567   6.321   1.670 -0.8433  0.7104  1.5487
 6272SOL     OW19500   6.196   6.211   4.460 -0.5988  0.1020  0.0974
 6272SOL    HW119501   6.258   6.216   4.387 -1.6530  0.0726 -0.8172
 6272SOL    HW219502   6.243   6.251   4.534  0.4701  0.1678 -0.5938
 6273SOL     OW19503   3.356   2.586   1.800  0.5629  0.6613 -0.4614
 6273SOL    HW119504   3.452   2.579   1.804  0.4218 -3.5198 -0.3240
 6273SOL    HW219505   3.332   2.631   1.881  2.3376 -0.2367  0.6436
 6274SOL     OW19506   0.846   6.709   3.004 -0.0696  0.0269 -0.4909
 6274SOL    HW119507   0.803   6.656   2.937 -0.1060  0.3945 -0.7636
 6274SOL    HW219508   0.857   6.795   2.963  1.9950 -0.3612 -0.8702
 6275SOL     OW19509   7.473   0.096   7.552  0.1588  0.2674 -0.0169
 6275SOL    HW119510   7.404   0.031   7.543  0.3101 -0.0940  1.2945
 6275SOL    HW219511   7.439   0.174   7.507 -0.0961 -0.6261 -1.4307
 6276SOL     OW19512   3.594   4.269   2.912 -0.0437  0.0409  0.3588
 6276SOL    HW119513   3.589   4.204   2.841 -0.6757  0.5600 -0.0862
 6276SOL    HW219514   3.652   4.229   2.976 -2.1854 -2.0243  1.1690
 6277SOL     OW19515   4.751   5.906   4.317 -0.2475 -0.0252  0.1825
 6277SOL    HW119516   4.656   5.913   4.309 -0.3793  0.3876  1.6658
 6277SOL    HW219517   4.781   5.997   4.324  0.2030 -0.1688  0.1409
 6278SOL     OW19518   3.253   0.940   0.679 -0.3500 -0.0740 -0.2321
 6278SOL    HW119519   3.164   0.916   0.703 -0.4628 -0.7799 -1.2902
 6278SOL    HW219520   3.243   1.012   0.617 -0.1245  0.6455  0.5461
 6279SOL     OW19521   6.341   5.651   6.298 -0.0432 -0.4392  0.1823
 6279SOL    HW119522   6.399   5.719   6.332  0.2086 -0.8292  0.5498
 6279SOL    HW219523   6.282   5.631   6.370  0.0473 -0.7860  0.1640
 6280SOL     OW19524   6.993   4.244   5.386 -0.3410 -0.1414  0.1453
 6280SOL    HW119525   7.013   4.283   5.301  0.8797 -0.7878  0.1100
 6280SOL    HW219526   6.963   4.317   5.440 -1.0296  0.2920 -0.7991
 6281SOL     OW19527   4.770   3.525   1.491  0.3029  0.3798  0.5850
 6281SOL    HW119528   4.756   3.443   1.444 -0.6107  0.8633 -0.0144
 6281SOL    HW219529   4.786   3.499   1.581 -0.8400 -0.4210  0.5736
 6282SOL     OW19530   7.281   4.336   1.492  0.2863 -0.5940 -0.0288
 6282SOL    HW119531   7.229   4.371   1.420 -3.2287 -3.7752  0.6939
 6282SOL    HW219532   7.320   4.256   1.456  0.6338 -0.8293  0.8629
 6283SOL     OW19533   1.084   1.256   2.799 -0.1103 -0.2489  0.1771
 6283SOL    HW119534   1.029   1.333   2.813 -3.8556 -2.7980  1.0815
 6283SOL    HW219535   1.138   1.250   2.877 -0.7784  0.7264  0.7412
 6284SOL     OW19536   7.672   1.334   0.372 -0.5781 -0.9317 -0.2407
 6284SOL    HW119537   7.651   1.288   0.453 -2.6678 -1.1462 -0.8376
 6284SOL    HW219538   7.691   1.424   0.399 -0.2830 -1.2263  0.5658
 6285SOL     OW19539   2.912   1.928   2.359 -0.4151  0.3693  0.3583
 6285SOL    HW119540   2.868   1.932   2.444 -2.5024  0.4390 -0.6425
 6285SOL    HW219541   2.941   1.837   2.352  1.1113  0.7150  1.7281
 6286SOL     OW19542   2.746   1.072   6.400  0.2271 -0.8899  0.4813
 6286SOL    HW119543   2.797   0.995   6.373 -1.5263 -1.9360 -0.0628
 6286SOL    HW219544   2.661   1.036   6.424 -0.2956  0.7911  1.2597
 6287SOL     OW19545   3.077   7.702   3.743  0.4529 -0.0755 -0.2745
 6287SOL    HW119546   2.988   7.668   3.754  1.8466 -4.9597 -1.4796
 6287SOL    HW219547   3.077   7.739   3.654 -0.8118  2.2259  0.5895
 6288SOL     OW19548   6.344   2.703   0.663  0.3303 -0.2211 -0.3653
 6288SOL    HW119549   6.404   2.652   0.608  0.3872  0.2989 -0.7950
 6288SOL    HW219550   6.268   2.646   0.674  1.2087 -1.2217  0.8643
 6289SOL     OW19551   1.646   4.741   7.606  0.1261 -1.1549  0.0799
 6289SOL    HW119552   1.731   4.765   7.643 -0.3189 -0.3471  0.6147
 6289SOL    HW219553   1.583   4.794   7.655 -0.4389  0.8152 -2.5484
 6290SOL     OW19554   2.354   7.219   3.220  0.2172  0.0230 -0.0371
 6290SOL    HW119555   2.290   7.246   3.286  1.6545  1.7821  0.7168
 6290SOL    HW219556   2.407   7.153   3.263  0.2784  0.1590  0.0968
 6291SOL     OW19557   2.436   5.367   2.646  0.6216  1.0762  0.1493
 6291SOL    HW119558   2.519   5.394   2.608  1.6792 -1.5320  0.3857
 6291SOL    HW219559   2.454   5.360   2.740  0.4143 -0.2438  0.1134
 6292SOL     OW19560   1.533   3.632   3.965 -0.3636 -0.8657  0.2203
 6292SOL    HW119561   1.521   3.629   3.870  3.2936  2.7388 -0.6295
 6292SOL    HW219562   1.577   3.549   3.986 -1.0720 -1.6447 -1.2243
 6293SOL     OW19563   2.510   5.341   5.828  0.3539  0.0404  0.7891
 6293SOL    HW119564   2.468   5.284   5.892  0.3238 -0.0764  0.6637
 6293SOL    HW219565   2.596   5.301   5.813 -0.0867 -0.5808 -0.1249
 6294SOL     OW19566   1.231   6.663   5.224 -0.3512  0.1885  0.2550
 6294SOL    HW119567   1.316   6.628   5.249 -1.1490 -1.0020  1.4512
 6294SOL    HW219568   1.172   6.635   5.294 -1.8986  0.2508 -0.9578
 6295SOL     OW19569   3.290   6.470   2.002 -0.2770  0.2147  0.3915
 6295SOL    HW119570   3.298   6.550   1.950 -0.2972  0.0208  0.0850
 6295SOL    HW219571   3.359   6.413   1.968 -0.9611 -0.3125 -0.1542
 6296SOL     OW19572   2.291   2.495   5.285 -0.1319  0.2832 -0.1080
 6296SOL    HW119573   2.206   2.459   5.261  0.6158 -2.6570  1.1459
 6296SOL    HW219574   2.332   2.520   5.202 -1.5063  0.0618 -0.8787
 6297SOL     OW19575   4.359   1.231   1.194 -0.1399 -0.1104  0.3624
 6297SOL    HW119576   4.332   1.142   1.216 -0.5754 -0.2953 -0.8431
 6297SOL    HW219577   4.446   1.221   1.156 -0.1143 -0.0060  0.3935
 6298SOL     OW19578   4.501   2.254   0.808  0.1430 -0.0245 -0.2946
 6298SOL    HW119579   4.593   2.281   0.800  0.2009  0.3147  1.2692
 6298SOL    HW219580   4.464   2.315   0.872 -1.2781  0.0647 -1.1677
 6299SOL     OW19581   5.247   4.861   2.685 -0.3171 -0.5781  0.5628
 6299SOL    HW119582   5.195   4.938   2.663 -0.6544 -1.3099 -1.3101
 6299SOL    HW219583   5.264   4.818   2.602  1.9176 -1.2522  1.2866
 6300SOL     OW19584   7.630   5.449   4.314 -0.3262  0.0557 -0.0469
 6300SOL    HW119585   7.643   5.537   4.280 -0.3467  0.4224  0.8668
 6300SOL    HW219586   7.629   5.393   4.236  0.7964  0.7159 -0.5573
 6301SOL     OW19587   4.055   6.877   6.531  0.2045  0.2020 -0.4658
 6301SOL    HW119588   4.065   6.927   6.450  1.7624  0.3436 -0.2187
 6301SOL    HW219589   4.055   6.944   6.600 -1.3425  0.1022 -0.3322
 6302SOL     OW19590   4.979   5.243   1.094 -0.2089  0.2021 -0.3510
 6302SOL    HW119591   4.965   5.308   1.025 -0.9831 -1.5531 -1.9464
 6302SOL    HW219592   5.057   5.272   1.140 -1.1085  2.7928 -0.3101
 6303SOL     OW19593   4.574   7.021   4.766  0.0805 -0.0718  0.1093
 6303SOL    HW119594   4.631   7.022   4.843 -1.6262 -0.0846  1.4484
 6303SOL    HW219595   4.485   7.018   4.803 -0.8156 -4.0972 -1.8293
 6304SOL     OW19596   2.054   3.590   4.640 -0.1606  0.2088  0.3019
 6304SOL    HW119597   2.144   3.577   4.671 -0.5101 -2.4315  0.4270
 6304SOL    HW219598   2.001   3.532   4.694 -1.7893  0.8421 -0.5444
 6305SOL     OW19599   3.964   7.667   0.053  0.2167  0.6002 -0.2291
 6305SOL    HW119600   3.894   7.715   0.008 -0.4212 -0.2074 -0.1178
 6305SOL    HW219601   3.942   7.675   0.146  0.9936  1.4319 -0.1014
 6306SOL     OW19602   6.748   5.277   2.140  0.3592  0.2623 -0.6470
 6306SOL    HW119603   6.711   5.193   2.168 -0.1894 -0.5715 -3.5059
 6306SOL    HW219604   6.842   5.262   2.134  0.3571  0.1240 -0.3463
 6307SOL     OW19605   0.757   5.755   3.764  0.3982  0.7475  0.4386
 6307SOL    HW119606   0.781   5.806   3.686 -0.4048  2.4971  1.2723
 6307SOL    HW219607   0.795   5.804   3.837  1.7588 -1.2522  1.1523
 6308SOL     OW19608   0.750   2.965   2.545 -0.2412 -0.1634  0.0648
 6308SOL    HW119609   0.706   3.050   2.549 -0.1364  0.0434 -2.0265
 6308SOL    HW219610   0.683   2.902   2.570 -0.6500  0.4378  0.5100
 6309SOL     OW19611   5.548   4.656   5.683 -0.1806  0.3188 -0.0615
 6309SOL    HW119612   5.482   4.725   5.687  0.7764  1.2569 -0.0033
 6309SOL    HW219613   5.604   4.679   5.609  1.9052  1.2945  1.6834
 6310SOL     OW19614   1.342   2.483   7.642  0.3251 -0.8210 -0.6748
 6310SOL    HW119615   1.253   2.472   7.608  0.8449 -1.4061 -1.9423
 6310SOL    HW219616   1.363   2.398   7.681  0.0332 -0.4142  0.3806
 6311SOL     OW19617   3.854   0.859   4.572  0.2331  0.1017 -0.2543
 6311SOL    HW119618   3.820   0.946   4.592  1.4150  0.6965 -0.7528
 6311SOL    HW219619   3.833   0.807   4.650 -2.1075  0.3128 -0.6753
 6312SOL     OW19620   0.812   6.989   2.920  0.6237 -0.1463  0.4142
 6312SOL    HW119621   0.807   6.949   2.833 -1.3443 -0.2273  0.5203
 6312SOL    HW219622   0.870   7.064   2.908  1.7961 -1.1423 -0.5292
 6313SOL     OW19623   4.747   4.638   0.661 -0.0665  0.3252 -0.0526
 6313SOL    HW119624   4.651   4.641   0.665 -0.0797  1.7969 -0.7637
 6313SOL    HW219625   4.773   4.730   0.654  1.3969 -0.0732 -0.0685
 6314SOL     OW19626   6.718   2.450   1.281 -0.5155 -0.2454 -0.1145
 6314SOL    HW119627   6.730   2.544   1.263  2.3153 -0.9086 -2.3780
 6314SOL    HW219628   6.630   2.431   1.248 -0.9869  1.5209 -0.0022
 6315SOL     OW19629   5.270   7.671   7.595 -0.4787  0.6123  0.3960
 6315SOL    HW119630   5.293   7.589   7.550 -3.5819  0.3301 -0.8893
 6315SOL    HW219631   5.310   7.663   7.681  0.3576 -1.6803 -0.1332
 6316SOL     OW19632   0.301   1.989   1.784  0.1167 -0.4369 -0.4689
 6316SOL    HW119633   0.250   2.071   1.780  0.8094  0.1626  1.8425
 6316SOL    HW219634   0.279   1.944   1.702 -3.6953  0.0404  0.0933
 6317SOL     OW19635   0.115   1.419   7.411 -0.3658 -0.4866 -0.6961
 6317SOL    HW119636   0.068   1.346   7.450 -1.3124  0.9019  0.9146
 6317SOL    HW219637   0.141   1.388   7.324 -1.3331 -2.4591 -0.3253
 6318SOL     OW19638   6.571   5.675   1.011 -0.3490 -0.2172 -0.6418
 6318SOL    HW119639   6.657   5.661   1.050 -0.9109  0.7900  1.0344
 6318SOL    HW219640   6.589   5.716   0.926  0.8490 -1.4346 -1.0043
 6319SOL     OW19641   1.640   2.537   7.509  0.4975 -0.2432 -0.0443
 6319SOL    HW119642   1.616   2.620   7.551 -0.9524 -0.2568 -0.7755
 6319SOL    HW219643   1.603   2.470   7.567  1.3245 -0.3840  0.3359
 6320SOL     OW19644   5.255   3.464   4.189  0.2833  0.5723  0.2598
 6320SOL    HW119645   5.197   3.531   4.154  1.2160  1.3555  0.1585
 6320SOL    HW219646   5.224   3.382   4.152 -0.4100  1.0496 -0.2211
 6321SOL     OW19647   0.266   7.048   4.419  0.1128 -0.3782 -0.1683
 6321SOL    HW119648   0.311   7.124   4.381 -0.4212 -0.1103 -0.2743
 6321SOL    HW219649   0.238   6.997   4.343 -1.2054  0.3008 -0.1696
 6322SOL     OW19650   3.619   1.513   5.783  0.6053 -0.0460  0.7965
 6322SOL    HW119651   3.632   1.557   5.699  1.7947 -0.0742  0.9550
 6322SOL    HW219652   3.598   1.422   5.759 -2.7180  0.6682  0.4327
 6323SOL     OW19653   1.706   1.509   5.164  0.5517 -0.0584  0.4368
 6323SOL    HW119654   1.687   1.426   5.209  0.6159 -0.9054 -1.0501
 6323SOL    HW219655   1.626   1.561   5.176 -0.1807 -1.0181 -0.0707
 6324SOL     OW19656   2.753   2.449   6.921  0.1539 -0.0864  0.3968
 6324SOL    HW119657   2.733   2.529   6.971  1.2675  0.4063  0.0839
 6324SOL    HW219658   2.738   2.378   6.984 -2.2502  0.2307  0.2591
 6325SOL     OW19659   2.623   1.456   0.042 -0.3017  0.8327 -0.3797
 6325SOL    HW119660   2.605   1.398  -0.033 -1.4672  1.6912 -0.8033
 6325SOL    HW219661   2.699   1.418   0.084  0.5353  0.4360 -2.1397
 6326SOL     OW19662   7.411   2.727   3.895  0.0668  0.0748 -0.1423
 6326SOL    HW119663   7.494   2.724   3.944  1.5642  0.4811 -2.4879
 6326SOL    HW219664   7.413   2.649   3.840 -1.8737 -0.7027  0.8187
 6327SOL     OW19665   6.243   7.379   3.827 -0.4336 -0.2398  0.2078
 6327SOL    HW119666   6.318   7.399   3.884 -0.7691 -1.6126  1.1861
 6327SOL    HW219667   6.176   7.348   3.888 -1.0962 -0.9345 -0.8638
 6328SOL     OW19668   1.017   1.211   7.710  0.5506  0.0609 -0.4978
 6328SOL    HW119669   0.957   1.285   7.722  0.4761 -0.0058 -0.4530
 6328SOL    HW219670   1.101   1.242   7.743 -0.0157 -0.6665  1.8913
 6329SOL     OW19671   0.965   0.170   4.772 -0.5971  0.1605 -0.0823
 6329SOL    HW119672   0.917   0.241   4.816  0.3271  0.5674  0.3077
 6329SOL    HW219673   0.998   0.116   4.844  2.0329  1.5426 -0.0997
 6330SOL     OW19674   7.046   0.133   2.223 -0.4265  0.0649  0.8022
 6330SOL    HW119675   7.071   0.224   2.206  0.5595 -0.1613  1.0019
 6330SOL    HW219676   7.112   0.081   2.179 -1.0752 -0.5673  0.5618
 6331SOL     OW19677   7.144   2.375   5.873  0.2652 -0.3169  0.0437
 6331SOL    HW119678   7.056   2.339   5.863 -0.1430  0.4545  0.7314
 6331SOL    HW219679   7.203   2.300   5.861 -0.5553 -1.2728  1.6491
 6332SOL     OW19680   1.588   0.131   1.479  0.8583 -0.3413 -0.0817
 6332SOL    HW119681   1.600   0.192   1.407  1.4715  2.2854  2.1042
 6332SOL    HW219682   1.493   0.128   1.493  0.7821 -0.4297 -0.6181
 6333SOL     OW19683   2.968   0.480   7.745  0.3319  0.2868  0.3408
 6333SOL    HW119684   3.040   0.429   7.782  0.4539  1.1362  1.2893
 6333SOL    HW219685   2.992   0.493   7.653  1.1242  0.1106  0.5230
 6334SOL     OW19686   4.402   6.082   7.287 -0.1928  0.2050 -0.7336
 6334SOL    HW119687   4.371   6.012   7.228 -0.6781  0.3334 -0.6336
 6334SOL    HW219688   4.425   6.036   7.368 -0.7556  0.1933 -0.5799
 6335SOL     OW19689   3.748   0.875   6.108  0.4580 -0.6914  0.6442
 6335SOL    HW119690   3.827   0.927   6.094  0.5419 -0.5889  1.5070
 6335SOL    HW219691   3.725   0.844   6.020  0.7924  0.2235  0.2211
 6336SOL     OW19692   1.145   0.942   1.337 -0.1653 -0.2787 -0.8421
 6336SOL    HW119693   1.173   0.861   1.380 -0.3276 -0.3396 -0.8514
 6336SOL    HW219694   1.219   1.002   1.350  0.7252 -0.9760 -2.3955
 6337SOL     OW19695   7.217   6.608   3.977 -0.5754  0.2195  0.0035
 6337SOL    HW119696   7.257   6.658   3.906 -0.8649  0.4776  0.0180
 6337SOL    HW219697   7.124   6.630   3.972 -0.7794 -0.6918 -0.2845
 6338SOL     OW19698   7.452   7.750   4.191  0.1716  0.3170  0.3500
 6338SOL    HW119699   7.391   7.717   4.257  0.7233 -0.1275  0.6574
 6338SOL    HW219700   7.420   7.714   4.109  1.8562 -2.7845  0.8819
 6339SOL     OW19701   3.418   4.152   5.915 -0.2237  0.4180  0.5447
 6339SOL    HW119702   3.418   4.066   5.956 -2.9921  0.9425  1.8935
 6339SOL    HW219703   3.335   4.157   5.867  0.4027  1.9136 -0.4687
 6340SOL     OW19704   6.151   3.441   6.738  0.7265 -0.6188  0.4331
 6340SOL    HW119705   6.156   3.346   6.749 -1.3906 -0.9984 -1.2248
 6340SOL    HW219706   6.239   3.467   6.710  0.9922 -2.2933 -0.4196
 6341SOL     OW19707   1.020   2.014   5.762 -0.0445  0.3781 -0.2717
 6341SOL    HW119708   1.027   2.082   5.696 -0.5032  0.7965  0.1010
 6341SOL    HW219709   1.057   2.052   5.842  1.4768 -0.4910 -0.5356
 6342SOL     OW19710   0.699   6.641   6.193  0.2008 -0.3575 -0.1791
 6342SOL    HW119711   0.634   6.700   6.230 -0.9596 -1.6538 -0.0807
 6342SOL    HW219712   0.687   6.559   6.240 -2.5108 -2.6984 -4.2547
 6343SOL     OW19713   3.290   1.727   4.440 -0.1236  0.7564  0.1634
 6343SOL    HW119714   3.268   1.784   4.366  1.4756 -0.8491 -1.6523
 6343SOL    HW219715   3.238   1.648   4.427  1.1395 -0.0827 -0.0605
 6344SOL     OW19716   7.341   0.888   2.766  0.1555  0.2805 -0.1604
 6344SOL    HW119717   7.280   0.944   2.718  0.9580  0.2143 -1.2960
 6344SOL    HW219718   7.393   0.947   2.819 -0.6310  0.3687  0.5425
 6345SOL     OW19719   2.743   5.804   1.198 -0.4629 -0.5559  0.0381
 6345SOL    HW119720   2.719   5.869   1.132  0.5728 -1.1608 -0.9700
 6345SOL    HW219721   2.808   5.848   1.252 -0.4298 -0.4555 -0.0828
 6346SOL     OW19722   6.113   0.634   2.143 -0.3463  0.9918  0.5076
 6346SOL    HW119723   6.206   0.650   2.162 -0.3593  0.9341  0.6210
 6346SOL    HW219724   6.076   0.605   2.226 -0.4558  0.9675  0.4509
 6347SOL     OW19725   5.478   4.956   6.210  0.2576  0.6013 -0.3693
 6347SOL    HW119726   5.515   4.943   6.297 -0.6084 -0.9080 -0.2029
 6347SOL    HW219727   5.386   4.977   6.225  0.0159 -0.0173 -0.9105
 6348SOL     OW19728   3.406   3.244   7.310  0.6109  0.5997 -0.5514
 6348SOL    HW119729   3.397   3.153   7.283 -1.7899  0.3030  0.9139
 6348SOL    HW219730   3.477   3.244   7.374  0.7602 -0.2268 -0.7166
 6349SOL     OW19731   0.225   3.866   4.174 -0.0525 -0.5884  0.2279
 6349SOL    HW119732   0.168   3.834   4.104 -0.1667  1.1529 -0.5528
 6349SOL    HW219733   0.314   3.849   4.141 -0.1091 -1.1849  0.3772
 6350SOL     OW19734   6.826   5.916   1.838  0.3346 -0.5944 -0.1569
 6350SOL    HW119735   6.757   5.880   1.894  0.3200 -2.3987 -1.2380
 6350SOL    HW219736   6.899   5.854   1.847  0.6825 -0.3841 -1.3549
 6351SOL     OW19737   6.684   0.583   2.795  0.2197  0.6897  0.0479
 6351SOL    HW119738   6.601   0.601   2.840  0.3001  0.7927  0.1554
 6351SOL    HW219739   6.734   0.530   2.856 -0.4840 -0.9271 -0.7379
 6352SOL     OW19740   0.705   6.463   7.095 -0.1835 -0.2449  0.1346
 6352SOL    HW119741   0.695   6.374   7.128  0.8536 -0.6931 -0.7042
 6352SOL    HW219742   0.763   6.506   7.159  1.1747 -0.8714 -0.6470
 6353SOL     OW19743   2.662   3.052   5.594  0.2055 -0.2544  0.0149
 6353SOL    HW119744   2.731   3.116   5.575  0.6806 -1.0283 -0.9748
 6353SOL    HW219745   2.581   3.101   5.588  0.4943  0.0616 -1.7420
 6354SOL     OW19746   6.202   2.659   4.902 -0.0803  0.5839 -0.1397
 6354SOL    HW119747   6.209   2.733   4.842  1.4773  1.1165  0.6528
 6354SOL    HW219748   6.264   2.595   4.868  0.6693  0.8128  0.7844
 6355SOL     OW19749   3.964   4.782   0.539  0.0485 -0.0250 -0.2179
 6355SOL    HW119750   3.999   4.869   0.561 -0.3042  0.0779 -0.0497
 6355SOL    HW219751   3.881   4.777   0.587 -0.1571 -0.2718 -0.5925
 6356SOL     OW19752   7.548   0.674   6.779 -0.1408  0.7001 -0.1816
 6356SOL    HW119753   7.459   0.703   6.796 -1.3843 -1.9477 -1.6299
 6356SOL    HW219754   7.553   0.663   6.684  1.7625  0.8500 -0.1428
 6357SOL     OW19755   4.732   6.853   6.598  0.4454 -0.1640 -0.4611
 6357SOL    HW119756   4.689   6.810   6.672 -1.8673  0.8324 -1.1407
 6357SOL    HW219757   4.763   6.937   6.633 -0.0286  0.0111 -0.4616
 6358SOL     OW19758   5.473   3.494   7.017  0.2326  0.2216  0.6652
 6358SOL    HW119759   5.419   3.480   7.095 -0.5985  0.6348  0.1809
 6358SOL    HW219760   5.420   3.461   6.945  1.9810 -2.4679  0.4864
 6359SOL     OW19761   3.913   5.778   4.219  0.3983  0.1300 -0.0435
 6359SOL    HW119762   3.820   5.795   4.233  0.7701  0.1862  2.8335
 6359SOL    HW219763   3.920   5.683   4.214  0.1326  0.1501 -0.9570
 6360SOL     OW19764   3.759   4.755   5.453  0.1807 -0.3704 -0.2109
 6360SOL    HW119765   3.704   4.701   5.510 -0.5317  2.4364  1.9993
 6360SOL    HW219766   3.710   4.762   5.371 -0.6962 -1.3130  0.2133
 6361SOL     OW19767   7.741   3.135   1.753 -0.4632  0.0697  0.3282
 6361SOL    HW119768   7.682   3.143   1.678 -0.6399 -1.1119  0.3275
 6361SOL    HW219769   7.737   3.043   1.777 -0.6839  0.4907  2.0211
 6362SOL     OW19770   4.300   2.332   7.338 -0.4749  0.3723  0.1071
 6362SOL    HW119771   4.264   2.317   7.425  1.1231 -0.2442  0.7090
 6362SOL    HW219772   4.373   2.393   7.352  0.7945 -0.9229 -0.5112
 6363SOL     OW19773   1.084   5.078   4.642 -0.0641  0.0294 -0.1425
 6363SOL    HW119774   1.008   5.118   4.683 -0.5620 -0.7852 -0.2388
 6363SOL    HW219775   1.051   5.045   4.558  0.7115  0.8284 -0.7796
 6364SOL     OW19776   3.308   4.173   1.338  0.2626  0.2794 -0.1745
 6364SOL    HW119777   3.314   4.202   1.247 -0.2965 -0.1676 -0.3613
 6364SOL    HW219778   3.238   4.108   1.338  1.6338 -1.2822  0.1600
 6365SOL     OW19779   2.040   2.120   5.989  0.1147  0.9417 -0.7125
 6365SOL    HW119780   2.049   2.152   6.079 -2.3945  1.9027 -0.7096
 6365SOL    HW219781   1.988   2.041   5.997  2.2153 -0.5577 -1.1574
 6366SOL     OW19782   2.992   7.237   6.421 -0.1792  0.0212  0.0338
 6366SOL    HW119783   2.954   7.151   6.437 -0.4497  0.2973  0.8987
 6366SOL    HW219784   3.065   7.243   6.481 -1.2585  1.0969  1.3006
 6367SOL     OW19785   5.592   7.606   6.663  0.0233 -0.2838  0.8935
 6367SOL    HW119786   5.511   7.563   6.637  0.3937 -0.8573  0.6612
 6367SOL    HW219787   5.656   7.535   6.671  1.3754  0.4041 -2.1360
 6368SOL     OW19788   5.210   5.841   7.622 -0.0212  0.3305  0.6840
 6368SOL    HW119789   5.222   5.935   7.634  0.7170  0.2847  0.3650
 6368SOL    HW219790   5.255   5.821   7.540 -0.7967 -0.1793  0.3626
 6369SOL     OW19791   4.627   2.747   2.027 -0.0574 -0.2728 -0.0522
 6369SOL    HW119792   4.717   2.720   2.013  0.5619  2.5446 -2.2754
 6369SOL    HW219793   4.579   2.712   1.952 -0.2825  0.4227 -0.2376
 6370SOL     OW19794   1.862   7.084   6.364 -0.2032 -0.3072 -0.5762
 6370SOL    HW119795   1.771   7.067   6.339 -1.1643  0.6627  1.9739
 6370SOL    HW219796   1.891   7.003   6.406  0.2025 -0.6821 -1.5550
 6371SOL     OW19797   5.118   6.145   6.299 -0.4544 -0.6584 -0.4555
 6371SOL    HW119798   5.163   6.065   6.327 -2.6312 -1.1331  2.0901
 6371SOL    HW219799   5.071   6.120   6.220 -0.2281 -1.5790 -0.3129
 6372SOL     OW19800   6.556   0.710   7.288  0.4513  0.6052  0.0992
 6372SOL    HW119801   6.563   0.664   7.372  0.2051 -0.4366 -0.4327
 6372SOL    HW219802   6.626   0.672   7.234  0.7196  1.3865 -0.1209
 6373SOL     OW19803   0.077   1.357   0.154 -0.3323  0.3992  0.4604
 6373SOL    HW119804   0.034   1.343   0.237  1.1113 -1.0922  1.0102
 6373SOL    HW219805   0.052   1.282   0.100  0.0130  0.5332  0.1054
 6374SOL     OW19806   5.439   4.041   5.399 -0.5421  0.5599 -0.1222
 6374SOL    HW119807   5.364   4.100   5.395 -0.8784  0.2372  0.9347
 6374SOL    HW219808   5.410   3.969   5.454 -0.2284 -0.7453 -1.6119
 6375SOL     OW19809   6.862   2.733   6.269 -0.4105 -0.1304 -0.5877
 6375SOL    HW119810   6.768   2.737   6.287  0.0216  0.9734  1.9289
 6375SOL    HW219811   6.884   2.821   6.238 -0.0053  0.1085  0.3225
 6376SOL     OW19812   4.262   0.447   1.064  0.5474  0.2405  0.1123
 6376SOL    HW119813   4.196   0.504   1.103 -0.9267 -1.2033 -0.2037
 6376SOL    HW219814   4.223   0.360   1.063  2.9236 -0.9499  1.0458
 6377SOL     OW19815   4.408   4.418   3.882 -0.7156 -0.3030  0.1115
 6377SOL    HW119816   4.405   4.464   3.966 -0.4820 -1.6485  0.8859
 6377SOL    HW219817   4.319   4.385   3.870 -0.6941 -0.3007 -0.0526
 6378SOL     OW19818   6.927   7.685   6.557 -0.0565 -0.4627 -0.2652
 6378SOL    HW119819   6.987   7.699   6.631 -0.3892 -1.2290  0.1713
 6378SOL    HW219820   6.943   7.594   6.531 -1.9655 -1.1561  0.7648
 6379SOL     OW19821   2.796   7.080   3.818 -0.7743 -0.1759 -0.0962
 6379SOL    HW119822   2.881   7.045   3.846 -0.6456  0.0943 -0.1526
 6379SOL    HW219823   2.770   7.023   3.746  0.0804  0.6754 -1.1029
 6380SOL     OW19824   7.080   4.694   0.118 -0.0922  0.0966  0.2233
 6380SOL    HW119825   7.148   4.651   0.067 -0.7169 -1.3101  0.5389
 6380SOL    HW219826   7.127   4.743   0.186  0.6675  0.7976 -0.7845
 6381SOL     OW19827   4.209   6.993   0.351  0.1047 -0.0294  0.0231
 6381SOL    HW119828   4.156   7.055   0.300 -0.5745 -0.4431  0.2115
 6381SOL    HW219829   4.269   7.048   0.401 -0.3557  0.4660  0.0404
 6382SOL     OW19830   2.447   1.021   2.992  0.7888 -0.1125  0.5539
 6382SOL    HW119831   2.539   1.009   2.970  0.8948  1.6469 -0.1729
 6382SOL    HW219832   2.400   0.962   2.934  1.3872  0.3502 -0.4402
 6383SOL     OW19833   4.606   6.090   4.781 -0.2133 -0.7006 -0.0906
 6383SOL    HW119834   4.669   6.034   4.827 -0.3985 -1.5453 -0.8335
 6383SOL    HW219835   4.563   6.140   4.851  4.0875  3.1272  0.3207
 6384SOL     OW19836   0.695   1.738   1.385 -0.2051 -0.3353 -0.8423
 6384SOL    HW119837   0.727   1.801   1.320 -0.1658  0.4153 -0.1105
 6384SOL    HW219838   0.739   1.656   1.362 -0.8469 -0.3075 -2.2722
 6385SOL     OW19839   6.832   2.361   0.400  0.0041  0.7931  0.4597
 6385SOL    HW119840   6.906   2.419   0.418  0.2720  0.1608  1.4898
 6385SOL    HW219841   6.868   2.273   0.410  0.3025  0.2274 -3.5900
 6386SOL     OW19842   3.676   1.674   3.431  0.1110 -0.3001  0.6455
 6386SOL    HW119843   3.759   1.694   3.475 -0.2913  1.2965  0.7108
 6386SOL    HW219844   3.674   1.732   3.355 -0.9898 -0.2725  0.6812
 6387SOL     OW19845   5.362   6.604   6.752  0.1785  0.4111  0.5626
 6387SOL    HW119846   5.345   6.616   6.845  0.0576  2.3952  0.3264
 6387SOL    HW219847   5.387   6.512   6.744  0.6249  0.3082  2.6087
 6388SOL     OW19848   5.602   2.281   6.387  0.5640  0.2442  0.3017
 6388SOL    HW119849   5.685   2.327   6.402  1.1006 -0.5131 -0.2335
 6388SOL    HW219850   5.606   2.256   6.295  0.0266 -0.3584  0.4393
 6389SOL     OW19851   2.215   0.336   4.339  0.6602  0.0910  0.1146
 6389SOL    HW119852   2.299   0.381   4.326  0.5217  0.4640  0.4684
 6389SOL    HW219853   2.159   0.403   4.379  0.0037  0.0239 -0.6745
 6390SOL     OW19854   0.112   3.345   0.242  0.1442  0.2136  0.1405
 6390SOL    HW119855   0.092   3.339   0.148  0.7381  0.7529 -0.0272
 6390SOL    HW219856   0.139   3.257   0.267  0.1568  0.1094 -0.2355
 6391SOL     OW19857   3.150   2.266   6.698 -0.4243  0.6362 -0.3362
 6391SOL    HW119858   3.164   2.311   6.615  0.3310  0.9905 -0.0221
 6391SOL    HW219859   3.063   2.226   6.689  0.6399 -1.4599 -2.2696
 6392SOL     OW19860   2.401   2.969   1.732 -0.4516 -0.3242 -0.1429
 6392SOL    HW119861   2.472   2.956   1.794 -1.3460 -0.1993  0.9561
 6392SOL    HW219862   2.437   3.026   1.664  0.3456  0.1159  0.6418
 6393SOL     OW19863   1.990   3.501   0.863  0.2131 -0.5117  0.1129
 6393SOL    HW119864   2.038   3.576   0.827 -2.5483  1.2285 -0.2815
 6393SOL    HW219865   2.056   3.433   0.873  3.1752  2.3354  1.7570
 6394SOL     OW19866   7.137   3.915   5.096 -0.3901  0.0809  0.0807
 6394SOL    HW119867   7.124   3.824   5.068  1.8755  0.2606 -1.9331
 6394SOL    HW219868   7.138   3.965   5.014  0.3546  1.6317  0.9853
 6395SOL     OW19869   1.785   3.447   6.457  0.4280  0.0531 -0.1411
 6395SOL    HW119870   1.871   3.486   6.476  0.4759 -0.1943  0.1534
 6395SOL    HW219871   1.803   3.353   6.446  0.3308  0.1182 -0.9532
 6396SOL     OW19872   6.154   0.784   1.370  0.0809  0.6721 -0.3905
 6396SOL    HW119873   6.151   0.777   1.274  1.2162  2.1581 -0.5779
 6396SOL    HW219874   6.242   0.753   1.393  0.2194  1.3561  0.0367
 6397SOL     OW19875   5.859   1.689   2.849 -0.1917 -0.2339  0.8265
 6397SOL    HW119876   5.772   1.727   2.857 -0.3884 -0.2070 -0.9348
 6397SOL    HW219877   5.855   1.636   2.769  1.2520 -0.6268  0.9789
 6398SOL     OW19878   2.901   5.904   4.264 -0.0759 -0.1181  0.3315
 6398SOL    HW119879   2.905   5.967   4.193 -0.4290  0.0141  0.4306
 6398SOL    HW219880   2.941   5.950   4.339  1.5294 -0.7108 -0.1055
 6399SOL     OW19881   0.737   6.231   6.241  0.9654  0.7476 -0.2696
 6399SOL    HW119882   0.755   6.256   6.150 -0.4272  0.2904 -0.6995
 6399SOL    HW219883   0.796   6.157   6.257  0.4284  0.0883 -1.2069
 6400SOL     OW19884   5.454   3.958   1.846  0.4325 -0.5133  1.1019
 6400SOL    HW119885   5.424   3.931   1.933 -1.6863  0.0492  0.6200
 6400SOL    HW219886   5.391   3.918   1.786  1.0294  0.2414 -0.0708
 6401SOL     OW19887   6.751   2.845   3.059  0.2847 -0.2177  0.4058
 6401SOL    HW119888   6.781   2.930   3.024  0.3042 -0.6747 -0.7503
 6401SOL    HW219889   6.772   2.783   2.989 -1.3810 -0.8962  0.4685
 6402SOL     OW19890   0.746   1.516   3.416  0.6123 -0.0061 -0.0142
 6402SOL    HW119891   0.835   1.532   3.384  0.1094 -0.6253 -1.8939
 6402SOL    HW219892   0.712   1.448   3.358 -1.8271  1.7012 -0.7516
 6403SOL     OW19893   6.876   6.367   0.210  0.1196 -0.2176 -0.5414
 6403SOL    HW119894   6.832   6.330   0.287 -0.2631  0.5320 -0.3871
 6403SOL    HW219895   6.958   6.403   0.243  0.6464 -1.2073 -0.7491
 6404SOL     OW19896   3.570   0.264   7.770 -0.5270 -0.0791  0.7501
 6404SOL    HW119897   3.630   0.319   7.821 -0.3388 -0.1058  0.5608
 6404SOL    HW219898   3.620   0.184   7.753 -1.5252 -1.2330  2.8493
 6405SOL     OW19899   5.527   0.881   5.766 -0.3412 -0.2865  0.1965
 6405SOL    HW119900   5.572   0.955   5.807  0.9060 -1.5470  1.2093
 6405SOL    HW219901   5.434   0.903   5.772 -0.0801  0.5438  1.8430
 6406SOL     OW19902   6.859   3.023   6.234  0.3870 -0.1610  0.1295
 6406SOL    HW119903   6.817   3.109   6.227  0.4314 -0.2222 -1.2201
 6406SOL    HW219904   6.942   3.040   6.277  1.3116  0.8410 -1.8995
 6407SOL     OW19905   2.704   3.278   7.076 -0.1579  0.4645 -0.3009
 6407SOL    HW119906   2.791   3.259   7.111 -0.0820  0.3949 -0.5200
 6407SOL    HW219907   2.722   3.323   6.993 -0.3274 -0.1518 -0.6774
 6408SOL     OW19908   4.485   0.778   1.440 -0.3925  0.2387 -0.5202
 6408SOL    HW119909   4.435   0.709   1.399  1.0740 -0.2907 -1.5068
 6408SOL    HW219910   4.449   0.785   1.529 -0.5178 -1.8377 -0.3703
 6409SOL     OW19911   2.880   1.070   1.680  0.3549 -0.2299 -0.1222
 6409SOL    HW119912   2.843   1.107   1.760  2.3200 -0.1167  0.8034
 6409SOL    HW219913   2.828   1.109   1.609  0.6384  2.2949  0.9255
 6410SOL     OW19914   7.652   7.252   2.210 -0.0869 -0.3367  0.6203
 6410SOL    HW119915   7.569   7.271   2.166 -0.3793 -0.3279  1.1651
 6410SOL    HW219916   7.717   7.302   2.161 -0.3167 -0.7990 -0.1662
 6411SOL     OW19917   4.300   2.044   3.872  0.0188 -0.1334 -0.9187
 6411SOL    HW119918   4.292   2.065   3.779  2.4881 -0.7012 -1.3369
 6411SOL    HW219919   4.388   2.073   3.896 -0.4010 -0.3974  1.1416
 6412SOL     OW19920   6.347   4.698   4.710 -0.2143 -0.3897  0.0048
 6412SOL    HW119921   6.425   4.712   4.764  1.1456  0.5908 -2.0643
 6412SOL    HW219922   6.273   4.719   4.768  1.2344  2.8563  0.9157
 6413SOL     OW19923   7.538   1.623   6.771 -0.4000 -0.5579  0.1049
 6413SOL    HW119924   7.446   1.629   6.746 -0.2082 -1.4065 -0.8300
 6413SOL    HW219925   7.537   1.635   6.866 -1.6536 -2.1524  0.3317
 6414SOL     OW19926   2.178   0.972   0.627 -0.0214  0.4192 -0.8225
 6414SOL    HW119927   2.105   0.926   0.668 -0.2175 -0.0189 -1.6495
 6414SOL    HW219928   2.153   1.065   0.629  0.2652  0.4936  0.6186
 6415SOL     OW19929   7.067   0.494   7.168 -0.2304  0.5266  0.4329
 6415SOL    HW119930   7.005   0.509   7.239 -0.9605  1.4099 -0.3701
 6415SOL    HW219931   7.122   0.572   7.167  0.0508  0.3312  0.3004
 6416SOL     OW19932   7.347   3.341   0.901  0.1376  0.4319 -0.1165
 6416SOL    HW119933   7.401   3.317   0.976 -1.5270 -0.4978  0.8607
 6416SOL    HW219934   7.302   3.421   0.929 -1.5096 -0.6355  0.5160
 6417SOL     OW19935   5.785   4.534   6.948 -0.6139 -0.6641  0.4559
 6417SOL    HW119936   5.811   4.626   6.955 -2.6453  0.1661 -1.7930
 6417SOL    HW219937   5.719   4.522   7.016 -0.8068 -0.2707  0.3388
 6418SOL     OW19938   2.079   6.996   5.998  0.6994 -0.2833 -0.2383
 6418SOL    HW119939   2.147   6.931   6.014  1.0751  0.4782  1.5677
 6418SOL    HW219940   1.998   6.953   6.026  1.0805  0.3032  1.9829
 6419SOL     OW19941   3.896   6.004   2.198 -0.1726 -0.3328  0.5089
 6419SOL    HW119942   3.875   5.954   2.119  0.8650 -1.7010  1.0596
 6419SOL    HW219943   3.818   6.058   2.213 -1.2291 -1.5623 -0.2817
 6420SOL     OW19944   0.675   3.406   4.882 -0.1338  0.5031  0.2079
 6420SOL    HW119945   0.622   3.427   4.806  1.2418  1.2580 -0.5918
 6420SOL    HW219946   0.743   3.346   4.849 -0.0852  0.0713  1.0492
 6421SOL     OW19947   0.014   7.036   2.548 -0.0683 -0.0118 -0.3043
 6421SOL    HW119948  -0.066   7.077   2.514 -0.8544 -1.6068 -0.5122
 6421SOL    HW219949   0.085   7.091   2.516 -0.9686  0.2596 -1.9537
 6422SOL     OW19950   1.794   4.928   5.396 -0.0050 -0.0873  0.2505
 6422SOL    HW119951   1.870   4.944   5.340 -0.6323  0.7343 -0.3875
 6422SOL    HW219952   1.817   4.966   5.480  0.4091 -0.1037  0.1450
 6423SOL     OW19953   3.928   0.482   7.438  0.4128  0.0061  0.1736
 6423SOL    HW119954   3.938   0.577   7.432  0.4973  0.0197  0.4813
 6423SOL    HW219955   3.984   0.457   7.512 -0.2960 -0.1665  0.6571
 6424SOL     OW19956   5.146   2.248   2.859 -0.2230  0.1237  0.0132
 6424SOL    HW119957   5.177   2.226   2.771 -1.0309 -1.6786  0.1405
 6424SOL    HW219958   5.223   2.283   2.904  0.1874  1.1233 -1.4010
 6425SOL     OW19959   1.697   4.846   6.094 -0.3688 -0.1783 -0.4538
 6425SOL    HW119960   1.691   4.942   6.092 -2.1964 -0.2158  0.7438
 6425SOL    HW219961   1.661   4.819   6.010  0.0339  0.1796 -0.7460
 6426SOL     OW19962   1.808   6.564   3.775 -0.1904  0.1914 -0.2465
 6426SOL    HW119963   1.748   6.491   3.756 -0.8245  0.5713  0.2514
 6426SOL    HW219964   1.794   6.626   3.704 -0.4744  0.3230 -0.0816
 6427SOL     OW19965   3.061   5.651   1.622 -0.2887 -0.1785 -0.4932
 6427SOL    HW119966   3.135   5.603   1.584  1.5094  1.4545  0.7834
 6427SOL    HW219967   3.028   5.704   1.550  1.8772  1.4532 -0.4039
 6428SOL     OW19968   4.461   5.133   2.941  0.3368  0.3285  0.8794
 6428SOL    HW119969   4.479   5.087   2.859  0.2534 -0.3675  1.2465
 6428SOL    HW219970   4.432   5.220   2.913  1.7131  0.6107  0.2105
 6429SOL     OW19971   7.568   5.668   7.295 -0.1708  0.2440 -0.2299
 6429SOL    HW119972   7.579   5.718   7.214 -0.2142  0.7303  0.0612
 6429SOL    HW219973   7.625   5.712   7.358  0.8290 -0.8660 -0.3037
 6430SOL     OW19974   6.806   1.995   4.047  0.3931  0.2134  0.0056
 6430SOL    HW119975   6.789   1.945   4.127 -0.6879  1.1035  0.3653
 6430SOL    HW219976   6.771   1.941   3.977  0.6786 -0.2468  0.2147
 6431SOL     OW19977   7.055   2.632   6.019  0.5971  0.7806 -0.3514
 6431SOL    HW119978   7.096   2.584   5.947 -1.0299 -0.4562 -0.4988
 6431SOL    HW219979   7.030   2.716   5.981 -1.0284 -0.1846 -1.5199
 6432SOL     OW19980   1.985   1.605   6.262 -0.2822 -0.3921 -0.9211
 6432SOL    HW119981   1.922   1.676   6.277  0.3176  0.1725 -1.0414
 6432SOL    HW219982   1.935   1.539   6.215 -0.3050  0.8701 -2.7974
 6433SOL     OW19983   3.560   4.138   1.841  0.3517 -0.3357  0.0507
 6433SOL    HW119984   3.592   4.211   1.893  0.6740  0.2147 -0.8884
 6433SOL    HW219985   3.553   4.173   1.752  2.8150 -2.0438 -0.9272
 6434SOL     OW19986   3.615   2.818   0.308  0.0780  0.9684 -0.0218
 6434SOL    HW119987   3.557   2.753   0.348  2.0002 -0.0371  1.2719
 6434SOL    HW219988   3.631   2.882   0.377  1.7265  0.3631  0.2168
 6435SOL     OW19989   0.774   6.434   5.312 -0.2121  0.2437 -0.2732
 6435SOL    HW119990   0.712   6.507   5.313 -0.0621  0.3678  0.0956
 6435SOL    HW219991   0.796   6.423   5.220 -2.4403 -1.2188 -0.7135
 6436SOL     OW19992   2.419   5.341   6.695 -0.3107 -0.2956 -0.1889
 6436SOL    HW119993   2.434   5.339   6.601 -0.6370  1.8755 -0.3454
 6436SOL    HW219994   2.479   5.408   6.728  0.7936 -1.9794  1.3897
 6437SOL     OW19995   4.150   4.450   0.645 -0.6923  0.7894 -0.2135
 6437SOL    HW119996   4.093   4.423   0.717  1.4437  1.0533  1.7189
 6437SOL    HW219997   4.091   4.478   0.576 -2.8885 -1.3015  0.6861
 6438SOL     OW19998   4.357   6.318   0.215  0.5574 -0.5162 -0.4981
 6438SOL    HW119999   4.369   6.413   0.218 -0.8300 -0.2689 -1.8976
 6438SOL    HW220000   4.437   6.286   0.173  0.3991  0.1817 -1.3590
 6439SOL     OW20001   0.963   6.225   6.819  0.1650  0.4960  0.0748
 6439SOL    HW120002   0.959   6.174   6.900 -0.9297 -0.7238 -0.7135
 6439SOL    HW220003   1.040   6.191   6.773  0.0743  0.3494  0.0356
 6440SOL     OW20004   2.591   0.292   5.693 -0.1257 -0.2074 -0.3137
 6440SOL    HW120005   2.601   0.263   5.783  0.4737 -3.3617 -1.2886
 6440SOL    HW220006   2.633   0.378   5.691  0.8017 -0.5157  2.1519
 6441SOL     OW20007   4.550   1.253   4.879 -0.0984 -0.5860 -0.6244
 6441SOL    HW120008   4.564   1.246   4.784  1.3872  3.0549 -0.8262
 6441SOL    HW220009   4.494   1.330   4.890  0.4378 -0.4268  1.4707
 6442SOL     OW20010   6.661   3.807   5.017  0.1947 -0.0384  0.4962
 6442SOL    HW120011   6.629   3.717   5.008 -1.7801  0.6885 -0.4205
 6442SOL    HW220012   6.587   3.861   4.989  1.2080  1.8937  1.3717
 6443SOL     OW20013   5.266   2.521   1.802 -0.3893 -0.2902  0.0803
 6443SOL    HW120014   5.311   2.519   1.887 -0.7403 -0.7081  0.2592
 6443SOL    HW220015   5.283   2.609   1.768 -0.4686 -0.0286  0.7066
 6444SOL     OW20016   5.370   0.586   5.470  0.3440  0.3122 -0.6919
 6444SOL    HW120017   5.450   0.637   5.483  0.8834 -0.9113  1.2488
 6444SOL    HW220018   5.400   0.495   5.470 -1.0067 -0.1516 -0.3969
 6445SOL     OW20019   2.202   0.603   1.169 -0.4258  0.3547 -0.3399
 6445SOL    HW120020   2.283   0.643   1.138 -0.6405  2.2533  1.3488
 6445SOL    HW220021   2.230   0.530   1.224  0.0531 -0.2146 -1.3130
 6446SOL     OW20022   3.135   7.053   2.380 -0.0866  0.0080 -0.2544
 6446SOL    HW120023   3.200   7.004   2.431  1.8559  1.2948 -1.3933
 6446SOL    HW220024   3.066   6.989   2.363  1.0817 -1.5552  0.6014
 6447SOL     OW20025   6.558   2.480   3.652 -0.1524  0.0592  0.0694
 6447SOL    HW120026   6.579   2.531   3.729 -0.7265 -1.6501  1.4287
 6447SOL    HW220027   6.543   2.391   3.685 -2.1362 -0.3760 -1.7511
 6448SOL     OW20028   5.240   0.969   2.197 -0.4533  0.3075  0.5969
 6448SOL    HW120029   5.313   1.007   2.246 -0.0944  0.4032 -0.0136
 6448SOL    HW220030   5.279   0.937   2.116 -1.0573  0.1998  0.3445
 6449SOL     OW20031   7.292   1.852   5.896 -0.1116 -0.3813  0.1897
 6449SOL    HW120032   7.347   1.807   5.960  0.6012 -0.0467 -0.1772
 6449SOL    HW220033   7.345   1.855   5.816 -0.1832  0.9717  0.1576
 6450SOL     OW20034   6.625   6.821   6.522  0.3336 -0.2346  0.7747
 6450SOL    HW120035   6.712   6.802   6.487  0.5476  0.0654  1.1334
 6450SOL    HW220036   6.600   6.741   6.568  0.0160 -0.6632 -0.1049
 6451SOL     OW20037   3.391   2.411   6.966  0.3866 -0.1735 -0.9761
 6451SOL    HW120038   3.322   2.451   6.913  0.3695 -0.7153 -1.3709
 6451SOL    HW220039   3.385   2.456   7.051  0.0258  0.2872 -1.2396
 6452SOL     OW20040   5.881   5.681   5.662  0.2675 -0.2457 -0.8709
 6452SOL    HW120041   5.915   5.704   5.749 -0.7119 -0.5149 -0.3976
 6452SOL    HW220042   5.825   5.755   5.639 -0.1142 -0.5455 -0.9083
 6453SOL     OW20043   0.097   1.822   1.409 -0.3075 -0.3183  0.2501
 6453SOL    HW120044   0.178   1.867   1.389 -0.0548 -0.6909  0.4122
 6453SOL    HW220045   0.087   1.830   1.504  0.1469 -1.2573  0.3912
 6454SOL     OW20046   1.204   3.572   4.066 -0.5725 -0.1581  0.4453
 6454SOL    HW120047   1.124   3.521   4.063 -0.7415  0.1373 -0.1575
 6454SOL    HW220048   1.250   3.551   3.985 -0.4478  0.3193  0.3886
 6455SOL     OW20049   1.419   6.264   2.044  0.1998  0.3304  0.5042
 6455SOL    HW120050   1.383   6.175   2.051  0.1536  0.2644 -0.4293
 6455SOL    HW220051   1.497   6.254   1.989  0.6274  0.7597  1.0153
 6456SOL     OW20052   2.579   2.162   4.570 -0.4801 -0.0286 -0.3664
 6456SOL    HW120053   2.661   2.184   4.525  0.4281 -1.6159  0.4153
 6456SOL    HW220054   2.539   2.247   4.590  1.6080  0.8406  0.3801
 6457SOL     OW20055   6.309   3.160   4.010  0.0838 -0.2553  0.2221
 6457SOL    HW120056   6.317   3.198   4.097  3.2262  0.7017 -0.3611
 6457SOL    HW220057   6.241   3.093   4.019 -0.1625  0.2699  3.2058
 6458SOL     OW20058   0.552   1.412   2.465  0.4436  0.1871  0.0035
 6458SOL    HW120059   0.497   1.484   2.434  0.0294 -0.6429 -1.2511
 6458SOL    HW220060   0.640   1.435   2.434  0.9450  1.6541  2.2509
 6459SOL     OW20061   0.579   0.586   7.227 -0.1004  0.9554 -0.2320
 6459SOL    HW120062   0.619   0.583   7.140 -0.1044  2.0400 -0.2930
 6459SOL    HW220063   0.571   0.680   7.246 -0.4587  0.7347  0.7735
 6460SOL     OW20064   4.898   3.515   2.111  0.5225  0.1882 -0.6580
 6460SOL    HW120065   4.908   3.422   2.091 -0.2536 -0.5556  2.0299
 6460SOL    HW220066   4.805   3.525   2.134  0.4426  1.7884 -1.5324
 6461SOL     OW20067   6.513   7.390   6.898  0.1842  0.5847  0.2709
 6461SOL    HW120068   6.588   7.350   6.940  0.9066  1.3435 -0.2622
 6461SOL    HW220069   6.454   7.317   6.878  1.2336 -0.1506 -0.2325
 6462SOL     OW20070   0.444   5.645   4.219  0.5186  0.1894 -0.2556
 6462SOL    HW120071   0.506   5.697   4.270 -0.8560 -0.5851  2.4172
 6462SOL    HW220072   0.478   5.556   4.224 -1.0199 -0.3777  1.8725
 6463SOL     OW20073   6.303   6.197   1.476  0.6078 -0.2026  0.0733
 6463SOL    HW120074   6.234   6.252   1.512 -0.1831 -0.6583 -0.7074
 6463SOL    HW220075   6.259   6.142   1.412  1.3657 -1.7293  0.8003
 6464SOL     OW20076   4.662   7.654   4.494 -0.4074 -0.6238  0.0386
 6464SOL    HW120077   4.594   7.624   4.555  0.6042  1.7157  2.5244
 6464SOL    HW220078   4.626   7.734   4.455  0.7132  0.5032  1.1954
 6465SOL     OW20079   0.959   5.468   1.182 -0.4305  0.0585  0.2649
 6465SOL    HW120080   1.024   5.421   1.234 -0.1914 -0.6251 -0.6230
 6465SOL    HW220081   0.890   5.491   1.245  0.4032  0.2968  1.1013
 6466SOL     OW20082   0.355   4.307   2.474 -0.1189  0.6512 -0.5319
 6466SOL    HW120083   0.324   4.391   2.509  0.0396  0.7314 -0.5811
 6466SOL    HW220084   0.411   4.272   2.543 -2.0789 -0.5696  0.5301
 6467SOL     OW20085   6.861   4.766   4.734  0.1480 -0.1336 -0.2786
 6467SOL    HW120086   6.924   4.816   4.682  0.0204 -0.0801 -0.3827
 6467SOL    HW220087   6.883   4.675   4.717 -1.9229 -0.2407 -3.0250
 6468SOL     OW20088   3.429   1.145   7.608 -0.2161 -0.2194  0.1566
 6468SOL    HW120089   3.389   1.230   7.586 -1.0796 -0.5287  0.4779
 6468SOL    HW220090   3.462   1.156   7.697 -1.4730 -0.5858  0.7024
 6469SOL     OW20091   0.003   4.961   6.450 -0.1118  0.0293  0.5894
 6469SOL    HW120092  -0.014   4.953   6.544 -1.2809  1.4304  0.5309
 6469SOL    HW220093   0.098   4.948   6.442  0.1253  0.6180  2.0595
 6470SOL     OW20094   6.161   4.435   4.929 -0.2194 -0.1444 -0.1738
 6470SOL    HW120095   6.208   4.502   4.979  0.6663  1.3198 -2.7856
 6470SOL    HW220096   6.228   4.371   4.906  0.2394  0.9886 -2.3097
 6471SOL     OW20097   0.880   5.049   2.900 -0.0553  0.3007 -0.0389
 6471SOL    HW120098   0.864   5.143   2.899 -1.2457  0.1235 -2.0893
 6471SOL    HW220099   0.972   5.041   2.925 -0.3325  1.8882  1.7239
 6472SOL     OW20100   5.048   7.594   0.194 -1.0079  0.0746  0.7204
 6472SOL    HW120101   5.119   7.545   0.235  0.0589  2.0365  1.3608
 6472SOL    HW220102   5.032   7.548   0.112  0.2540 -1.0505  1.0625
 6473SOL     OW20103   4.242   7.298   7.419  0.0696 -0.1290 -0.1239
 6473SOL    HW120104   4.318   7.241   7.427  0.9309  0.9399 -0.5503
 6473SOL    HW220105   4.180   7.247   7.367  0.7316 -0.7642 -0.3066
 6474SOL     OW20106   5.957   3.335   2.325  0.2827  0.7206  0.3926
 6474SOL    HW120107   5.967   3.259   2.267 -1.5411  1.6539 -1.2508
 6474SOL    HW220108   5.996   3.407   2.277 -0.3610  1.3343  0.7782
 6475SOL     OW20109   5.470   7.239   7.058 -0.0919 -0.2508  0.1329
 6475SOL    HW120110   5.547   7.184   7.065 -0.1604 -0.1886  1.6351
 6475SOL    HW220111   5.457   7.250   6.963  2.3472  0.6099 -0.1825
 6476SOL     OW20112   1.395   2.623   5.978 -0.7708  0.2810  0.1037
 6476SOL    HW120113   1.462   2.635   5.911 -0.1364 -0.0356  0.6746
 6476SOL    HW220114   1.430   2.668   6.055  0.4109 -2.7420  1.4665
 6477SOL     OW20115   1.908   3.881   2.435  0.3561 -0.0234 -0.0172
 6477SOL    HW120116   1.846   3.835   2.492 -0.4444 -0.5642 -1.2877
 6477SOL    HW220117   1.895   3.973   2.455 -1.2048 -0.1013 -0.5928
 6478SOL     OW20118   6.632   3.189   1.650  1.2091 -0.4225  0.1579
 6478SOL    HW120119   6.567   3.255   1.623 -0.1159 -1.0718  1.5958
 6478SOL    HW220120   6.667   3.155   1.568 -0.1474  0.1011 -0.6791
 6479SOL     OW20121   6.454   0.668   0.215  0.1281  0.3904  0.0157
 6479SOL    HW120122   6.511   0.738   0.185  0.4617 -0.0729 -0.4521
 6479SOL    HW220123   6.506   0.588   0.205 -1.0982 -0.2471 -1.8781
 6480SOL     OW20124   5.008   3.268   1.184  0.1203 -0.1849  0.0776
 6480SOL    HW120125   4.955   3.234   1.111  0.4964  0.2386 -0.4003
 6480SOL    HW220126   5.044   3.190   1.226 -1.4937 -0.5197  0.8879
 6481SOL     OW20127   1.749   5.694   4.111 -0.5412  0.0032  0.2646
 6481SOL    HW120128   1.688   5.698   4.185  0.5367 -0.6658  1.2162
 6481SOL    HW220129   1.773   5.785   4.095  0.6933  0.0414  2.0355
 6482SOL     OW20130   5.042   7.273   2.948  0.0057 -0.4460  0.0583
 6482SOL    HW120131   5.034   7.237   3.037  0.7301 -0.5009  0.1104
 6482SOL    HW220132   5.085   7.203   2.899 -2.0491 -1.1661 -0.8221
 6483SOL     OW20133   6.424   5.012   1.721 -0.2058  0.0641 -0.2422
 6483SOL    HW120134   6.511   5.050   1.708 -0.6614  1.4996  0.6273
 6483SOL    HW220135   6.433   4.961   1.802 -0.0306 -0.2935 -0.4827
 6484SOL     OW20136   5.558   4.396   0.287 -0.4620 -0.3174  0.1862
 6484SOL    HW120137   5.518   4.479   0.315  0.8996  0.3498  0.2278
 6484SOL    HW220138   5.570   4.347   0.369 -0.2299 -0.0804  0.2946
 6485SOL     OW20139   1.587   5.778   0.527  0.3708 -0.1720 -0.0554
 6485SOL    HW120140   1.602   5.745   0.615  0.7121 -1.9893 -0.7566
 6485SOL    HW220141   1.507   5.735   0.498 -0.0641  0.8573 -0.4466
 6486SOL     OW20142   0.210   2.530   0.927 -0.5203 -0.1056  0.0239
 6486SOL    HW120143   0.281   2.466   0.940 -0.8825 -0.3892  0.6545
 6486SOL    HW220144   0.140   2.500   0.985 -1.2646  0.0281 -0.7834
 6487SOL     OW20145   0.908   1.249   5.788 -0.0850 -0.2439  0.1165
 6487SOL    HW120146   0.882   1.340   5.802  0.7341 -0.0369  0.3268
 6487SOL    HW220147   0.835   1.198   5.823 -0.0732  0.3234  1.0027
 6488SOL     OW20148   4.066   3.687   1.115 -0.3838  0.0361 -0.1425
 6488SOL    HW120149   4.044   3.664   1.205 -2.0446  1.6033 -0.0865
 6488SOL    HW220150   4.128   3.760   1.123 -0.7699  0.3780 -0.2624
 6489SOL     OW20151   3.864   3.805   1.719 -0.4655  0.0999  0.6072
 6489SOL    HW120152   3.902   3.830   1.803 -0.2950  1.7431  0.0712
 6489SOL    HW220153   3.775   3.840   1.722 -1.1644 -1.6007  0.8751
 6490SOL     OW20154   4.595   3.239   2.321 -0.6077  0.2416 -0.7251
 6490SOL    HW120155   4.665   3.173   2.319  0.5599  1.3783  0.8580
 6490SOL    HW220156   4.521   3.196   2.277  0.7626 -1.3381 -1.6129
 6491SOL     OW20157   4.619   0.929   5.426  0.0263 -0.3877 -0.1035
 6491SOL    HW120158   4.574   0.845   5.422 -0.0159 -0.3435 -0.6753
 6491SOL    HW220159   4.712   0.907   5.420  0.0968 -0.4761  1.0402
 6492SOL     OW20160   2.167   1.567   0.912  0.5433  0.2061  0.2346
 6492SOL    HW120161   2.124   1.482   0.923  2.0352 -0.4595  1.2710
 6492SOL    HW220162   2.158   1.586   0.819 -1.6566 -0.0324  0.3287
 6493SOL     OW20163   7.306   2.833   1.577  0.0184 -0.0474 -0.7590
 6493SOL    HW120164   7.324   2.790   1.661  1.5755 -0.4237 -1.2595
 6493SOL    HW220165   7.235   2.895   1.597  0.0006 -0.4957  0.7074
 6494SOL     OW20166   2.531   3.642   3.778  0.3291  0.2156 -1.0663
 6494SOL    HW120167   2.496   3.725   3.744 -2.2304 -0.2728  0.1465
 6494SOL    HW220168   2.490   3.575   3.724 -2.5796 -0.4886  1.7402
 6495SOL     OW20169   5.610   4.049   5.699  0.4363  0.5097 -0.2276
 6495SOL    HW120170   5.621   4.144   5.700 -1.5922  0.8000 -1.2140
 6495SOL    HW220171   5.517   4.035   5.681  0.4415 -1.6681  1.0935
 6496SOL     OW20172   2.619   6.228   2.151 -0.4638 -0.5065 -0.1262
 6496SOL    HW120173   2.712   6.241   2.170 -0.4544 -1.3618  0.4671
 6496SOL    HW220174   2.603   6.136   2.169 -1.8609  0.0187  1.7552
 6497SOL     OW20175   0.076   6.047   7.639  0.2733  0.2972  0.1095
 6497SOL    HW120176   0.164   6.065   7.672  0.9630  0.8239 -1.8657
 6497SOL    HW220177   0.087   6.040   7.544 -1.9014  0.8335 -0.2389
 6498SOL     OW20178   4.441   0.963   4.181 -0.6617  0.8411 -0.5717
 6498SOL    HW120179   4.406   0.915   4.106 -1.4663  1.2798 -0.4862
 6498SOL    HW220180   4.370   0.963   4.245 -0.3095  1.2679 -0.1723
 6499SOL     OW20181   7.503   6.303   7.000 -0.1370  0.5108  0.1403
 6499SOL    HW120182   7.549   6.251   7.066 -2.3341 -0.0490  1.3350
 6499SOL    HW220183   7.513   6.253   6.919 -0.8639 -0.9884  0.9341
 6500SOL     OW20184   2.261   5.559   7.138  0.0911  0.1839 -1.2089
 6500SOL    HW120185   2.251   5.652   7.120 -0.9526 -0.0406 -1.8831
 6500SOL    HW220186   2.221   5.515   7.063 -2.0130 -0.7948  0.3836
 6501SOL     OW20187   6.361   7.008   5.506 -0.2505 -0.3657 -0.1729
 6501SOL    HW120188   6.344   7.048   5.592  0.2075  0.1328 -0.3105
 6501SOL    HW220189   6.288   6.948   5.494 -0.6701  0.0349  0.2838
 6502SOL     OW20190   4.043   7.148   1.967  0.3878 -0.2284  0.3732
 6502SOL    HW120191   3.955   7.183   1.956  0.3744 -0.7500 -1.4912
 6502SOL    HW220192   4.091   7.216   2.015 -0.2298  1.3684 -1.1858
 6503SOL     OW20193   4.174   4.125   6.280 -0.3303 -0.3493  0.2002
 6503SOL    HW120194   4.151   4.044   6.234  0.4204 -0.7894  0.5792
 6503SOL    HW220195   4.142   4.195   6.223 -3.6455 -0.8628  1.1930
 6504SOL     OW20196   1.000   5.871   0.750 -0.2051 -0.4714 -0.4588
 6504SOL    HW120197   0.915   5.899   0.785 -1.4090 -0.9417 -2.7941
 6504SOL    HW220198   0.993   5.775   0.744  1.0219 -0.6521  0.5209
 6505SOL     OW20199   1.748   0.403   1.590  0.3936 -0.4127  0.8118
 6505SOL    HW120200   1.681   0.457   1.550  1.3292  1.6352  1.8148
 6505SOL    HW220201   1.814   0.392   1.522 -0.6981 -2.0402 -0.0286
 6506SOL     OW20202   1.841   5.136   5.019  0.0197 -0.1043 -0.6176
 6506SOL    HW120203   1.821   5.169   4.931 -0.0264  0.0821 -0.5361
 6506SOL    HW220204   1.756   5.134   5.063  0.0563 -0.1156 -0.5477
 6507SOL     OW20205   2.156   0.573   2.037 -0.3366 -0.1355  0.4090
 6507SOL    HW120206   2.179   0.652   1.989 -1.0909  0.6115  1.2376
 6507SOL    HW220207   2.089   0.531   1.984 -0.1346 -0.0703  0.1008
 6508SOL     OW20208   5.052   3.371   1.650  0.2289 -0.0261  0.0842
 6508SOL    HW120209   4.959   3.353   1.664 -0.0197 -0.7052 -2.0407
 6508SOL    HW220210   5.056   3.405   1.561  1.6105  3.7827  1.4191
 6509SOL     OW20211   0.986   5.413   5.733  0.1955  0.8754  0.2847
 6509SOL    HW120212   0.944   5.328   5.720  0.0391  1.0658 -0.5504
 6509SOL    HW220213   0.917   5.471   5.763  0.1440  0.8695  0.1790
 6510SOL     OW20214   2.700   7.159   6.012 -0.1633  0.3435  0.0698
 6510SOL    HW120215   2.637   7.090   6.034 -0.1428  0.0848 -0.6760
 6510SOL    HW220216   2.736   7.186   6.097  0.2202 -0.9440  0.3447
 6511SOL     OW20217   4.325   3.722   3.170 -1.0469  0.2068  0.0536
 6511SOL    HW120218   4.338   3.808   3.210 -0.1875  0.4987 -0.8028
 6511SOL    HW220219   4.309   3.663   3.244 -1.7058  1.1022  0.6510
 6512SOL     OW20220   0.421   4.610   1.316  0.2776  0.2965  0.6583
 6512SOL    HW120221   0.406   4.702   1.338 -1.4817 -0.0955  1.2423
 6512SOL    HW220222   0.447   4.611   1.224  1.5711  1.4575  0.9990
 6513SOL     OW20223   2.492   7.654   1.694 -0.2799 -0.3055  0.8269
 6513SOL    HW120224   2.561   7.718   1.707 -1.1199  0.5403  1.2822
 6513SOL    HW220225   2.412   7.699   1.721 -1.3942 -0.3750 -2.0458
 6514SOL     OW20226   6.826   0.688   2.502 -0.2464 -0.1612  0.1520
 6514SOL    HW120227   6.898   0.752   2.499  0.4327 -0.8429 -4.0910
 6514SOL    HW220228   6.749   0.738   2.474 -0.2079 -0.6519 -0.8485
 6515SOL     OW20229   5.161   1.068   4.938 -0.1042 -0.1840 -0.2918
 6515SOL    HW120230   5.199   1.149   4.904  1.4045 -0.0094  1.6321
 6515SOL    HW220231   5.093   1.097   4.998 -2.2933 -0.4860 -2.4492
 6516SOL     OW20232   0.265   5.469   1.696  0.2764  0.0235 -0.2853
 6516SOL    HW120233   0.265   5.414   1.618 -1.5448  0.8478 -0.9209
 6516SOL    HW220234   0.350   5.512   1.694  0.1753  0.2341 -1.9907
 6517SOL     OW20235   1.308   6.193   5.281  0.0330  0.5280  0.1499
 6517SOL    HW120236   1.304   6.231   5.369  0.6608  0.2762  0.2905
 6517SOL    HW220237   1.374   6.246   5.235 -1.1600  1.4486 -0.5658
 6518SOL     OW20238   0.627   0.865   1.418 -0.0222 -0.1733 -0.7426
 6518SOL    HW120239   0.567   0.793   1.399 -0.3220 -0.3196  0.6738
 6518SOL    HW220240   0.699   0.824   1.467  0.4338  0.2838 -1.0174
 6519SOL     OW20241   5.594   1.564   1.961  0.6589  0.4846  0.1091
 6519SOL    HW120242   5.533   1.514   1.906  0.7873 -0.4839  0.8055
 6519SOL    HW220243   5.618   1.640   1.909 -0.6865  0.5764 -0.4179
 6520SOL     OW20244   4.816   2.179   1.362 -0.2893  0.2291  0.6493
 6520SOL    HW120245   4.728   2.170   1.324  0.2200  0.4758 -0.6605
 6520SOL    HW220246   4.872   2.198   1.287  1.1407 -1.4251  1.2275
 6521SOL     OW20247   2.541   7.038   5.455  0.4062  0.0260 -0.4960
 6521SOL    HW120248   2.589   7.000   5.382  0.8376 -0.3795 -0.0108
 6521SOL    HW220249   2.457   6.994   5.454  1.0469 -1.2829  0.3099
 6522SOL     OW20250   5.577   3.972   3.996  0.8497  0.4840  0.2858
 6522SOL    HW120251   5.624   3.895   4.028 -1.3397 -0.1233  2.2801
 6522SOL    HW220252   5.646   4.038   3.982  2.3781 -0.4569  2.6917
 6523SOL     OW20253   0.332   5.527   6.120 -0.0936  0.2101 -0.3408
 6523SOL    HW120254   0.415   5.550   6.078  0.4294  0.5594  0.8382
 6523SOL    HW220255   0.314   5.438   6.091  0.7371  0.0959 -0.5384
 6524SOL     OW20256   7.321   0.442   3.974  0.1056  0.4377  0.3352
 6524SOL    HW120257   7.368   0.464   4.055  0.4910  0.0071  0.2299
 6524SOL    HW220258   7.238   0.489   3.981  0.8045  1.7311  0.2405
 6525SOL     OW20259   0.536   0.245   3.227 -0.4084  0.4508  0.2250
 6525SOL    HW120260   0.554   0.160   3.266  1.6740  0.7277 -0.0015
 6525SOL    HW220261   0.590   0.307   3.276 -1.4369  1.5579  0.0116
 6526SOL     OW20262   1.939   2.255   7.679  0.7760 -0.2129  0.5392
 6526SOL    HW120263   1.931   2.163   7.702  0.2882 -0.2142  0.3709
 6526SOL    HW220264   1.907   2.302   7.756 -0.2390 -0.2086  0.1330
 6527SOL     OW20265   7.255   0.492   2.273  0.3349  0.0990  0.2164
 6527SOL    HW120266   7.187   0.559   2.281  0.1234 -0.1516  0.5454
 6527SOL    HW220267   7.333   0.533   2.311  0.1677  0.1081  0.5579
 6528SOL     OW20268   1.923   4.386   3.787 -0.4358  0.2438  0.3273
 6528SOL    HW120269   1.941   4.299   3.822  3.0715  0.4644 -0.5273
 6528SOL    HW220270   1.839   4.410   3.824 -1.8373 -3.7011  0.1575
 6529SOL     OW20271   4.170   2.575   5.454  0.2964  0.1687 -0.2830
 6529SOL    HW120272   4.166   2.565   5.359  0.1114  0.6480 -0.3260
 6529SOL    HW220273   4.221   2.655   5.468  0.3392  0.0909  0.0237
 6530SOL     OW20274   6.448   2.710   4.316 -0.7577 -0.4659 -0.1197
 6530SOL    HW120275   6.392   2.656   4.260  1.0418 -2.6211 -0.0294
 6530SOL    HW220276   6.533   2.666   4.313  0.0725  0.7948  2.2907
 6531SOL     OW20277   6.260   4.656   5.324 -0.2275  0.2232 -0.3024
 6531SOL    HW120278   6.167   4.643   5.345 -0.3692  1.0255 -0.3794
 6531SOL    HW220279   6.303   4.576   5.351 -0.4566  0.9899  2.5949
 6532SOL     OW20280   2.518   0.060   2.913 -0.2625  0.3732  0.2683
 6532SOL    HW120281   2.457   0.133   2.922 -3.0070 -1.7703  0.3877
 6532SOL    HW220282   2.468  -0.016   2.943  2.6878 -1.4813  0.8547
 6533SOL     OW20283   6.946   5.032   3.021  0.1108 -0.0359 -0.0125
 6533SOL    HW120284   6.976   5.092   2.953  0.2095 -0.8134 -0.6784
 6533SOL    HW220285   7.005   4.957   3.015 -1.3826 -1.2127 -0.7717
 6534SOL     OW20286   5.228   0.815   1.228  0.1288 -0.1199  0.1702
 6534SOL    HW120287   5.226   0.730   1.271 -0.8190  0.7296  1.9279
 6534SOL    HW220288   5.309   0.815   1.177  1.1392 -1.3434  1.6853
 6535SOL     OW20289   6.362   2.177   4.684  0.1554 -0.3033  0.3636
 6535SOL    HW120290   6.324   2.093   4.656  0.1216 -0.4911  0.9545
 6535SOL    HW220291   6.355   2.175   4.779  3.6009 -1.3172  0.7266
 6536SOL     OW20292   1.595   2.849   7.669 -0.3888  0.4151  0.0395
 6536SOL    HW120293   1.545   2.899   7.733 -0.9314 -0.9750  0.7225
 6536SOL    HW220294   1.532   2.827   7.600 -0.4676 -0.4045  0.3660
 6537SOL     OW20295   5.480   6.605   4.958  0.3443  0.7700  0.0268
 6537SOL    HW120296   5.499   6.690   4.999  0.4065  1.1315 -0.7301
 6537SOL    HW220297   5.394   6.617   4.918 -0.2700  0.0249  1.0882
 6538SOL     OW20298   4.230   5.350   2.575 -0.2658  0.4469  0.1030
 6538SOL    HW120299   4.170   5.423   2.586 -0.4680  0.5114 -1.1735
 6538SOL    HW220300   4.193   5.280   2.628 -2.3787 -0.0001 -1.7764
 6539SOL     OW20301   2.613   5.700   3.280  0.1995  0.1610  0.1764
 6539SOL    HW120302   2.552   5.654   3.338 -1.0185  1.8115  0.2503
 6539SOL    HW220303   2.563   5.716   3.200  0.5281  1.5240  0.2264
 6540SOL     OW20304   1.840   3.753   7.357  0.4394  0.5816 -0.2149
 6540SOL    HW120305   1.759   3.776   7.313 -0.6128 -0.4942  1.0941
 6540SOL    HW220306   1.908   3.769   7.291 -0.9778 -0.2302 -1.9843
 6541SOL     OW20307   3.145   6.933   2.708 -0.0705 -0.5515 -0.6982
 6541SOL    HW120308   3.232   6.971   2.717  0.0721 -1.0322  0.0766
 6541SOL    HW220309   3.095   6.998   2.659  0.4626  0.1333 -0.3439
 6542SOL     OW20310   1.542   0.440   3.027  0.4062 -0.1033 -0.4846
 6542SOL    HW120311   1.544   0.516   2.969 -0.1064 -0.0747 -0.4688
 6542SOL    HW220312   1.498   0.372   2.976 -1.6179  0.4246  0.4411
 6543SOL     OW20313   6.781   5.497   5.086 -0.2964 -0.7738 -0.1409
 6543SOL    HW120314   6.697   5.468   5.052  0.4149 -3.1054 -0.0479
 6543SOL    HW220315   6.777   5.480   5.180  0.0142 -0.1686 -0.0103
 6544SOL     OW20316   6.351   0.933   0.650 -0.9885 -0.5645 -0.3116
 6544SOL    HW120317   6.337   0.954   0.557 -1.4251  1.1796  0.1184
 6544SOL    HW220318   6.411   1.001   0.681 -0.5956 -1.3178  0.6242
 6545SOL     OW20319   3.306   3.726   0.019  0.1066  0.5202 -0.7134
 6545SOL    HW120320   3.234   3.751   0.077 -0.5957  0.5550 -1.5791
 6545SOL    HW220321   3.356   3.662   0.069 -0.4756  0.5691 -0.0634
 6546SOL     OW20322   2.493   0.746   7.159  0.8004  0.5647  0.4029
 6546SOL    HW120323   2.405   0.746   7.196  1.0153 -0.4371  0.9546
 6546SOL    HW220324   2.491   0.813   7.090 -0.3793  0.5628  0.4274
 6547SOL     OW20325   4.246   0.266   0.318 -0.3275  0.4511 -0.2349
 6547SOL    HW120326   4.174   0.280   0.257 -0.6123 -0.8365 -0.2310
 6547SOL    HW220327   4.313   0.221   0.266 -0.7623 -1.0862  0.4783
 6548SOL     OW20328   3.000   0.420   7.247  0.7259  0.0971  0.3419
 6548SOL    HW120329   3.060   0.461   7.310  1.1990  0.5248 -0.3767
 6548SOL    HW220330   3.020   0.326   7.254  1.4734  0.2321  0.1214
 6549SOL     OW20331   2.031   6.557   6.522 -0.7250 -0.1479  0.1430
 6549SOL    HW120332   2.040   6.505   6.443  0.3506  0.6178 -0.2650
 6549SOL    HW220333   2.110   6.538   6.573  0.4052  2.0714 -0.6533
 6550SOL     OW20334   2.269   3.784   5.520  0.1100  0.6608 -0.3297
 6550SOL    HW120335   2.219   3.703   5.510  0.8064  0.3909 -1.8815
 6550SOL    HW220336   2.235   3.823   5.601 -0.3162 -1.1111  0.3984
 6551SOL     OW20337   3.331   2.584   2.969 -0.2378 -0.0897  0.5487
 6551SOL    HW120338   3.264   2.652   2.970 -0.9421 -0.6285 -1.7052
 6551SOL    HW220339   3.303   2.525   2.898  2.1811 -0.7790  0.0677
 6552SOL     OW20340   3.085   1.224   7.493  0.3318  0.6579  0.3515
 6552SOL    HW120341   3.075   1.318   7.479  1.0360  0.6098 -0.6416
 6552SOL    HW220342   3.005   1.186   7.457 -0.0955  0.8930  1.0433
 6553SOL     OW20343   0.517   7.506   7.076  0.5578  0.6757  0.1845
 6553SOL    HW120344   0.546   7.430   7.026 -0.3305  0.2083  0.3607
 6553SOL    HW220345   0.523   7.579   7.013  0.0385  0.2048 -0.4221
 6554SOL     OW20346   5.651   0.650   6.404 -0.0676 -0.3821  0.2186
 6554SOL    HW120347   5.728   0.602   6.373 -0.4929 -0.1883 -1.2428
 6554SOL    HW220348   5.637   0.719   6.339 -0.8721  0.2377  1.0101
 6555SOL     OW20349   1.092   4.922   4.042  0.0441  0.0411  0.7574
 6555SOL    HW120350   1.110   4.858   3.973 -0.6200  0.4036  0.2232
 6555SOL    HW220351   1.067   4.870   4.118 -0.0035 -0.3479  0.4776
 6556SOL     OW20352   7.023   1.949   3.811  0.4327 -0.4050 -0.2678
 6556SOL    HW120353   6.993   1.862   3.840  0.8406 -0.3555  0.3297
 6556SOL    HW220354   7.007   2.006   3.886 -0.0816  0.1005 -0.7530
 6557SOL     OW20355   2.304   4.134   6.589  0.2600  0.1233  0.4491
 6557SOL    HW120356   2.385   4.146   6.639 -1.3635  1.3310  3.0610
 6557SOL    HW220357   2.281   4.042   6.603  0.6461  0.0405  0.5635
 6558SOL     OW20358   0.604   7.247   6.955 -0.2325 -0.0032  0.3084
 6558SOL    HW120359   0.561   7.195   7.024  2.2807 -1.4211  0.9495
 6558SOL    HW220360   0.695   7.252   6.983  0.4494  1.2035 -1.9077
 6559SOL     OW20361   4.098   7.373   6.093  0.1956 -0.2729  0.1225
 6559SOL    HW120362   4.083   7.466   6.110  0.9232 -0.1813  0.2650
 6559SOL    HW220363   4.070   7.329   6.173 -1.5527 -0.3232 -0.4690
 6560SOL     OW20364   3.338   7.168   3.876  0.0931  0.4448  0.0458
 6560SOL    HW120365   3.362   7.211   3.958  0.6428 -1.3943  0.8921
 6560SOL    HW220366   3.419   7.166   3.825  0.0743  0.3889  0.0179
 6561SOL     OW20367   3.289   6.010   1.724  0.0678 -0.4335  0.2766
 6561SOL    HW120368   3.213   6.039   1.674 -2.1106 -3.4089  1.5092
 6561SOL    HW220369   3.351   5.978   1.659 -0.5207  0.3819 -0.7011
 6562SOL     OW20370   4.323   1.211   2.180  0.0066 -0.4332  0.5663
 6562SOL    HW120371   4.257   1.267   2.137  0.7972 -0.5171 -0.7934
 6562SOL    HW220372   4.288   1.198   2.268 -0.8058  1.2098  0.5406
 6563SOL     OW20373   4.712   1.289   1.516 -0.3408  0.2472 -0.3982
 6563SOL    HW120374   4.735   1.272   1.424 -0.2820 -0.1504 -0.3107
 6563SOL    HW220375   4.753   1.373   1.535 -0.9800  0.7058 -0.9597
 6564SOL     OW20376   7.251   6.451   4.189 -0.1269 -0.1747  0.1068
 6564SOL    HW120377   7.251   6.496   4.105  2.6092 -3.6498 -2.0216
 6564SOL    HW220378   7.194   6.375   4.176 -0.3535 -0.3287  1.7326
 6565SOL     OW20379   6.222   4.895   0.221  0.3238  0.0575  0.0925
 6565SOL    HW120380   6.140   4.855   0.248 -0.1426  0.3751 -0.8123
 6565SOL    HW220381   6.204   4.930   0.134  1.2206  0.7304  0.1650
 6566SOL     OW20382   0.686   0.924   0.202 -0.1031  0.1553  0.4494
 6566SOL    HW120383   0.742   0.948   0.128 -0.2948 -0.7553 -0.0069
 6566SOL    HW220384   0.747   0.909   0.274  0.0729  1.2147  0.5394
 6567SOL     OW20385   7.432   3.367   1.696 -0.3245  0.0858 -0.5958
 6567SOL    HW120386   7.461   3.297   1.638  0.0491 -0.0067 -0.3005
 6567SOL    HW220387   7.338   3.356   1.703  0.0052 -2.1028  1.6633
 6568SOL     OW20388   0.918   0.224   7.305 -0.2070  0.2958  0.2746
 6568SOL    HW120389   0.886   0.224   7.396  0.2140  0.7015  0.4226
 6568SOL    HW220390   0.841   0.244   7.253 -0.1679  1.5066  0.6482
 6569SOL     OW20391   5.470   1.223   5.703 -0.1139  0.9879 -0.0220
 6569SOL    HW120392   5.504   1.180   5.625  0.5526 -0.3258  0.9374
 6569SOL    HW220393   5.375   1.227   5.690 -0.1731 -0.6609 -0.2115
 6570SOL     OW20394   6.431   0.128   5.069  0.1913  0.1885 -0.1091
 6570SOL    HW120395   6.473   0.146   4.985 -0.1160 -0.7539 -0.4711
 6570SOL    HW220396   6.503   0.112   5.129  0.4098  0.7672 -0.2103
 6571SOL     OW20397   3.543   5.921   7.001  0.4351 -0.0213 -0.2633
 6571SOL    HW120398   3.459   5.967   7.001  0.6416  0.3593 -0.4293
 6571SOL    HW220399   3.520   5.829   6.988  0.1228  0.2279 -1.5933
 6572SOL     OW20400   6.877   5.753   0.412  0.3466  0.2606 -0.6047
 6572SOL    HW120401   6.837   5.817   0.353  1.5267 -0.2034 -1.9608
 6572SOL    HW220402   6.971   5.772   0.409  0.3554  1.3959  2.5779
 6573SOL     OW20403   3.677   2.148   3.474 -0.1475  0.0628 -0.0378
 6573SOL    HW120404   3.746   2.089   3.446  0.5480  1.0397 -0.4332
 6573SOL    HW220405   3.723   2.227   3.503 -1.0192  0.1663  1.1125
 6574SOL     OW20406   5.172   0.483   2.736  1.0557  0.1838  0.3506
 6574SOL    HW120407   5.163   0.477   2.641  2.5454 -0.6582  0.2333
 6574SOL    HW220408   5.146   0.573   2.757 -1.2202 -0.1906 -0.5788
 6575SOL     OW20409   5.935   5.217   5.875 -0.3189 -0.3214 -0.5607
 6575SOL    HW120410   5.922   5.276   5.950  1.5934  0.6514 -0.9270
 6575SOL    HW220411   5.862   5.235   5.817  0.2341  1.7766 -0.6763
 6576SOL     OW20412   7.088   3.551   1.255 -1.0226  0.3941 -0.6420
 6576SOL    HW120413   7.181   3.535   1.274 -1.6317 -0.4069  2.1772
 6576SOL    HW220414   7.060   3.615   1.320 -2.8596 -0.8644 -0.0861
 6577SOL     OW20415   3.455   3.797   4.072 -0.3911  0.6896 -0.1899
 6577SOL    HW120416   3.491   3.772   3.987 -0.2434  1.6371 -0.4227
 6577SOL    HW220417   3.360   3.797   4.060 -0.3855  0.4244 -0.2347
 6578SOL     OW20418   6.083   5.454   0.712 -0.1178 -0.1565 -0.0942
 6578SOL    HW120419   6.168   5.499   0.716  1.1519 -2.5007  0.7225
 6578SOL    HW220420   6.078   5.404   0.793 -2.1308 -0.3836 -0.3083
 6579SOL     OW20421   0.772   4.799   4.001 -0.3249  0.2293  1.0300
 6579SOL    HW120422   0.815   4.837   3.923  1.0588  0.1696  1.7336
 6579SOL    HW220423   0.769   4.872   4.063 -0.1536 -0.0873  1.4091
 6580SOL     OW20424   5.300   3.552   4.626  0.0612 -0.0004 -1.0779
 6580SOL    HW120425   5.267   3.618   4.564 -0.8729 -0.5385 -1.1709
 6580SOL    HW220426   5.371   3.596   4.672 -0.1942  0.8924 -1.5139
 6581SOL     OW20427   4.084   1.892   7.690 -0.4753 -0.5164 -0.2421
 6581SOL    HW120428   4.041   1.810   7.667  0.0034 -1.4101  1.8187
 6581SOL    HW220429   4.168   1.889   7.646 -0.8606 -0.6445 -0.9871
 6582SOL     OW20430   1.741   7.289   1.360  0.0758  0.0042 -0.7670
 6582SOL    HW120431   1.831   7.286   1.394  0.3559 -1.9275 -1.5362
 6582SOL    HW220432   1.714   7.197   1.356 -2.9714  0.6005  1.9423
 6583SOL     OW20433   5.599   2.946   4.161 -0.3813  0.6457  0.1093
 6583SOL    HW120434   5.666   2.922   4.096  1.2463  0.7678  1.6505
 6583SOL    HW220435   5.564   3.029   4.130  1.0400  1.1792 -0.1602
 6584SOL     OW20436   3.233   0.216   6.267 -0.7612  0.4910 -0.6673
 6584SOL    HW120437   3.298   0.235   6.199 -1.0394  0.6191 -0.8999
 6584SOL    HW220438   3.201   0.301   6.295 -2.0914  0.4148 -1.7947
 6585SOL     OW20439   6.245   6.956   4.899 -0.0773 -0.4581 -0.6700
 6585SOL    HW120440   6.251   7.026   4.964 -1.0898 -1.9137  1.0762
 6585SOL    HW220441   6.333   6.917   4.898  0.1882  0.1396 -0.8406
 6586SOL     OW20442   5.162   6.499   2.723  0.1061  0.1809  0.1203
 6586SOL    HW120443   5.208   6.583   2.731 -0.6835  0.6148  0.2324
 6586SOL    HW220444   5.231   6.434   2.721  0.7134  0.7918  0.6573
 6587SOL     OW20445   5.601   5.163   1.193  0.3066 -0.2235  0.5308
 6587SOL    HW120446   5.531   5.127   1.139 -0.6149  0.3051  1.3377
 6587SOL    HW220447   5.641   5.087   1.236 -0.4640 -0.4352  0.8749
 6588SOL     OW20448   2.883   6.795   6.436 -0.1399  0.2442  0.5056
 6588SOL    HW120449   2.860   6.704   6.413  0.4925  0.4091 -0.8848
 6588SOL    HW220450   2.816   6.847   6.392  0.0386  0.4904  0.5267
 6589SOL     OW20451   3.916   3.379   2.777  0.3294 -0.6031  0.5814
 6589SOL    HW120452   3.850   3.317   2.745 -0.0601  0.5419 -0.9796
 6589SOL    HW220453   3.986   3.374   2.712  0.5057  0.2150  0.6933
 6590SOL     OW20454   2.265   0.549   7.023 -0.1622  0.0200  0.0623
 6590SOL    HW120455   2.301   0.461   7.014 -0.3640  0.0650 -1.3570
 6590SOL    HW220456   2.341   0.606   7.023 -0.1256 -0.0040 -1.3093
 6591SOL     OW20457   4.001   4.404   5.281  0.4694 -0.2257 -0.2661
 6591SOL    HW120458   4.086   4.425   5.320  0.5181  0.2321 -0.6133
 6591SOL    HW220459   3.963   4.489   5.257  0.0927 -0.4503 -0.4911
 6592SOL     OW20460   3.966   1.019   2.883 -0.6114 -0.5754  0.1903
 6592SOL    HW120461   3.922   0.973   2.955 -1.2871  1.1194  0.9125
 6592SOL    HW220462   3.936   1.110   2.890  1.4360  0.2351 -0.5340
 6593SOL     OW20463   0.429   2.450   7.309 -0.0777 -0.0091 -0.1353
 6593SOL    HW120464   0.336   2.466   7.319  0.1177  0.4347  1.2016
 6593SOL    HW220465   0.435   2.389   7.236 -1.4091 -0.0309 -0.2512
 6594SOL     OW20466   2.748   1.379   2.635  0.1324 -0.4755  0.1466
 6594SOL    HW120467   2.706   1.365   2.550  0.0717 -1.5915  0.3515
 6594SOL    HW220468   2.701   1.322   2.695  0.7808 -0.3911  0.7477
 6595SOL     OW20469   7.494   1.599   3.295  0.0311 -0.2282  0.1028
 6595SOL    HW120470   7.537   1.529   3.245  1.2711  0.5373  0.0587
 6595SOL    HW220471   7.418   1.623   3.241 -0.1168 -1.1752 -0.1316
 6596SOL     OW20472   2.183   7.471   0.949 -0.1260 -0.1776 -0.8340
 6596SOL    HW120473   2.248   7.486   0.880  1.2428 -1.0900  0.2051
 6596SOL    HW220474   2.175   7.376   0.955  0.9536 -0.1942  1.2791
 6597SOL     OW20475   5.602   5.551   6.921 -0.1047 -0.4641  0.6397
 6597SOL    HW120476   5.630   5.642   6.930 -0.0257 -0.5227  1.0164
 6597SOL    HW220477   5.629   5.510   7.004 -1.1682 -0.5588  0.9512
 6598SOL     OW20478   5.499   7.759   5.565 -0.0127  0.0572 -0.1068
 6598SOL    HW120479   5.542   7.681   5.600 -0.5115  0.2629  1.0326
 6598SOL    HW220480   5.489   7.742   5.472  1.6874 -0.3849 -0.2503
 6599SOL     OW20481   6.051   1.084   1.925 -0.2825  0.2103  0.5246
 6599SOL    HW120482   6.112   1.010   1.917 -0.5236 -0.2432  2.4491
 6599SOL    HW220483   6.044   1.099   2.019 -1.5700  1.5999  0.2392
 6600SOL     OW20484   4.975   6.086   5.420  0.0427  1.0238 -0.5955
 6600SOL    HW120485   4.952   6.005   5.373  0.4961  1.2185 -1.1670
 6600SOL    HW220486   4.924   6.082   5.501  2.8995 -1.7813  1.3103
 6601SOL     OW20487   2.633   2.185   7.045  0.0396  0.0326 -0.3229
 6601SOL    HW120488   2.643   2.104   7.096 -0.0296  1.6697  2.4892
 6601SOL    HW220489   2.539   2.195   7.034  0.0104  0.1363  0.0261
 6602SOL     OW20490   6.535   4.577   1.895  0.5326  0.2755 -0.1937
 6602SOL    HW120491   6.559   4.549   1.983  1.1943 -2.9056 -1.2353
 6602SOL    HW220492   6.598   4.532   1.838 -0.9291  0.8479 -2.3878
 6603SOL     OW20493   4.753   3.319   3.117 -0.5133  0.3322 -0.4574
 6603SOL    HW120494   4.839   3.356   3.097  0.8269 -1.4100  1.6229
 6603SOL    HW220495   4.714   3.380   3.180 -0.5254  0.7883 -0.9038
 6604SOL     OW20496   3.324   6.944   1.655  0.4375  0.5028  0.2549
 6604SOL    HW120497   3.366   7.028   1.673 -0.8997  1.5835 -1.3371
 6604SOL    HW220498   3.389   6.878   1.679  2.5221  2.0643 -0.8536
 6605SOL     OW20499   5.005   3.827   7.440  0.1127  0.0897  0.0393
 6605SOL    HW120500   4.995   3.918   7.413 -0.3861  0.0627  0.1169
 6605SOL    HW220501   5.069   3.829   7.511  0.4021  0.3262 -0.2230
 6606SOL     OW20502   7.485   0.152   5.945  0.0096 -0.0875 -0.0290
 6606SOL    HW120503   7.432   0.074   5.958 -1.2286  0.4641 -1.5093
 6606SOL    HW220504   7.567   0.119   5.908 -0.9101 -0.6533 -1.6930
 6607SOL     OW20505   1.933   1.483   0.205 -0.5420  0.1605 -0.3624
 6607SOL    HW120506   1.897   1.537   0.134  0.4989 -1.1823 -1.9921
 6607SOL    HW220507   1.941   1.396   0.167  0.2462 -0.5772  1.3708
 6608SOL     OW20508   4.779   1.526   7.508 -1.0198  0.3927 -0.5236
 6608SOL    HW120509   4.839   1.597   7.483  0.4397 -0.5792  0.0916
 6608SOL    HW220510   4.781   1.525   7.604 -2.7567  0.9092 -0.4383
 6609SOL     OW20511   1.998   0.109   6.807 -0.3121  0.4364 -0.1340
 6609SOL    HW120512   1.918   0.113   6.858  1.1556  1.1915  2.2986
 6609SOL    HW220513   2.015   0.200   6.782  1.6151  0.9322  2.5857
 6610SOL     OW20514   0.433   1.844   3.614 -0.0035  0.5288  0.1511
 6610SOL    HW120515   0.472   1.888   3.538 -1.2133  0.9506 -0.2456
 6610SOL    HW220516   0.339   1.862   3.607 -0.2228 -0.0363  1.3585
 6611SOL     OW20517   3.493   2.099   7.352  0.4712  0.3384 -0.0407
 6611SOL    HW120518   3.430   2.090   7.280  1.5199 -1.2905 -0.8205
 6611SOL    HW220519   3.552   2.168   7.323  0.2576  0.4323 -0.2600
 6612SOL     OW20520   4.539   0.370   7.262  0.6236 -0.5366 -0.4274
 6612SOL    HW120521   4.492   0.287   7.272  0.6282 -0.3694  1.1657
 6612SOL    HW220522   4.631   0.344   7.253  0.6768 -0.7157  0.4916
 6613SOL     OW20523   1.660   3.973   5.028  0.1907  0.1605 -0.2723
 6613SOL    HW120524   1.730   3.973   4.963 -2.5966  1.3036 -3.5456
 6613SOL    HW220525   1.628   3.883   5.030  0.4860  0.0557 -0.1975
 6614SOL     OW20526   2.908   5.429   0.105 -0.3424 -0.3967 -0.4541
 6614SOL    HW120527   2.866   5.490   0.166 -0.2587 -2.8071  2.2224
 6614SOL    HW220528   2.839   5.369   0.079  0.1218 -0.6913 -1.0444
 6615SOL     OW20529   5.932   2.412   5.346 -0.2379  0.4516  0.5061
 6615SOL    HW120530   5.891   2.498   5.348 -1.8366 -0.2714 -0.0141
 6615SOL    HW220531   6.002   2.421   5.281 -0.3961  1.3544  0.4528
 6616SOL     OW20532   7.302   5.305   5.404 -0.7159 -0.3422  0.6246
 6616SOL    HW120533   7.212   5.276   5.387 -0.8331 -0.2381  1.0750
 6616SOL    HW220534   7.336   5.327   5.317 -0.4060 -2.4293  0.1560
 6617SOL     OW20535   3.088   4.704   3.080 -0.2788  0.0652 -0.0740
 6617SOL    HW120536   3.175   4.721   3.044 -0.8255  0.4663 -1.2499
 6617SOL    HW220537   3.094   4.732   3.171  1.4345 -1.8907  0.5100
 6618SOL     OW20538   1.179   6.159   6.675 -0.2582 -0.4422 -0.1779
 6618SOL    HW120539   1.222   6.231   6.629  0.9305 -0.6887  0.5250
 6618SOL    HW220540   1.248   6.096   6.691 -0.3930  0.0433  2.7946
 6619SOL     OW20541   5.222   2.208   6.241 -0.1711  0.7381 -0.1816
 6619SOL    HW120542   5.243   2.205   6.334  0.1478 -0.8045 -0.2807
 6619SOL    HW220543   5.307   2.206   6.196 -0.3329  1.1019 -0.5118
 6620SOL     OW20544   7.249   0.338   7.269  0.2047  0.1234 -0.3665
 6620SOL    HW120545   7.252   0.257   7.218  0.7785  0.5551 -1.0436
 6620SOL    HW220546   7.166   0.379   7.245 -0.9137 -1.0642  1.2810
 6621SOL     OW20547   5.918   6.519   3.505  0.2512 -0.3539  0.0032
 6621SOL    HW120548   5.973   6.581   3.456 -1.4476  0.9074 -0.3776
 6621SOL    HW220549   5.936   6.539   3.597  0.9775 -0.4732 -0.1020
 6622SOL     OW20550   6.324   4.607   5.053  0.2503 -0.2702 -0.0787
 6622SOL    HW120551   6.317   4.633   5.145 -1.3273 -0.7191 -0.0322
 6622SOL    HW220552   6.277   4.675   5.005  2.1812  0.6685 -0.7381
 6623SOL     OW20553   7.170   7.091   6.206  0.2649  0.3550 -0.0789
 6623SOL    HW120554   7.142   7.148   6.134  0.1836  0.6011  0.1475
 6623SOL    HW220555   7.260   7.066   6.183  0.8034  1.6902  0.5036
 6624SOL     OW20556   4.258   2.406   4.442  0.1784  0.2739  0.0015
 6624SOL    HW120557   4.196   2.475   4.461  0.1899  0.0194  1.0250
 6624SOL    HW220558   4.344   2.447   4.454  0.1906  0.3231 -0.2691
 6625SOL     OW20559   3.405   2.901   4.179  1.0398 -0.0548 -0.0445
 6625SOL    HW120560   3.385   2.831   4.242  1.4523  1.0874  1.4219
 6625SOL    HW220561   3.370   2.980   4.220 -0.6928  0.4569 -2.2991
 6626SOL     OW20562   5.366   6.413   0.105 -0.0883 -0.6283 -0.2734
 6626SOL    HW120563   5.452   6.373   0.122  0.1696 -0.0105 -0.0744
 6626SOL    HW220564   5.365   6.427   0.011  0.1526 -0.3834 -0.2427
 6627SOL     OW20565   1.681   1.091   2.571  0.2754 -0.1869  0.0757
 6627SOL    HW120566   1.627   1.012   2.560  0.2875 -0.4639  1.8406
 6627SOL    HW220567   1.634   1.144   2.635  0.6622  0.9165 -0.5256
 6628SOL     OW20568   4.205   0.190   1.079  0.0498 -0.0166  0.8509
 6628SOL    HW120569   4.148   0.114   1.074  1.5371 -1.0817 -1.0541
 6628SOL    HW220570   4.294   0.154   1.082  0.7953  1.6168 -0.0954
 6629SOL     OW20571   0.259   4.695   5.266 -0.2981 -0.0516 -0.4623
 6629SOL    HW120572   0.198   4.766   5.287 -1.2678 -0.5172 -1.5900
 6629SOL    HW220573   0.224   4.619   5.313  1.7365  0.5106  2.2409
 6630SOL     OW20574   5.485   3.776   3.528  0.0448  0.0761 -0.1457
 6630SOL    HW120575   5.493   3.806   3.619 -2.0674  0.8299 -0.1472
 6630SOL    HW220576   5.490   3.856   3.476  0.4096 -0.2628 -0.6404
 6631SOL     OW20577   7.613   7.369   5.328  0.1504  0.1828 -0.3476
 6631SOL    HW120578   7.616   7.288   5.379 -1.2646 -0.1371 -0.7132
 6631SOL    HW220579   7.627   7.438   5.392 -0.8135 -0.2561  0.3742
 6632SOL     OW20580   4.939   4.972   5.421 -0.2260  0.0385 -0.3470
 6632SOL    HW120581   4.906   5.039   5.361  0.0377 -1.6391 -2.4724
 6632SOL    HW220582   4.971   4.902   5.364  2.4924 -0.5628  1.6857
 6633SOL     OW20583   4.966   3.663   1.741  0.1027  0.2213  0.5445
 6633SOL    HW120584   4.876   3.644   1.766 -0.4263  0.6049 -0.9516
 6633SOL    HW220585   4.960   3.742   1.687  1.4092  0.5959  0.9079
 6634SOL     OW20586   6.102   7.297   0.358 -0.2799 -0.0688  0.7835
 6634SOL    HW120587   6.067   7.339   0.436 -1.2002  2.2206 -0.7464
 6634SOL    HW220588   6.194   7.322   0.356 -0.0943 -0.6628  1.4193
 6635SOL     OW20589   5.807   7.224   4.392 -0.1589  0.7374  0.7010
 6635SOL    HW120590   5.767   7.174   4.321  0.6383 -1.7642  1.8824
 6635SOL    HW220591   5.847   7.299   4.349 -0.7476 -0.0444 -1.3226
 6636SOL     OW20592   2.595   6.504   2.797 -0.3945 -0.1450 -0.2022
 6636SOL    HW120593   2.689   6.488   2.805 -0.0909  0.5768 -1.9616
 6636SOL    HW220594   2.587   6.562   2.721 -2.0790  1.4989  1.1353
 6637SOL     OW20595   1.946   4.656   1.013  0.3073 -0.2332 -0.4158
 6637SOL    HW120596   1.996   4.695   0.941  0.0078  0.1058 -0.4456
 6637SOL    HW220597   1.936   4.728   1.075  0.9758 -0.6474  0.1919
 6638SOL     OW20598   4.301   0.016   5.301 -0.1499 -0.1563  0.7323
 6638SOL    HW120599   4.335   0.102   5.325  1.1561 -0.0076 -1.4107
 6638SOL    HW220600   4.214   0.033   5.265  0.1741  0.3006  0.1524
 6639SOL     OW20601   1.978   6.173   1.125 -1.0887  0.1540 -0.2585
 6639SOL    HW120602   2.072   6.162   1.113 -1.2064  0.1449 -1.2124
 6639SOL    HW220603   1.946   6.204   1.040 -2.1113 -0.9173 -0.2790
 6640SOL     OW20604   6.939   4.187   0.017  0.5470  0.6117 -0.2598
 6640SOL    HW120605   6.879   4.167   0.089 -0.4886 -2.5833 -1.8206
 6640SOL    HW220606   7.013   4.127   0.030  1.0833  1.0872 -1.0385
 6641SOL     OW20607   6.881   3.038   3.232 -0.1256  0.0105 -0.2206
 6641SOL    HW120608   6.856   3.098   3.162 -1.4280  0.8315  0.8955
 6641SOL    HW220609   6.969   3.009   3.208  1.4546  3.8538  0.1030
 6642SOL     OW20610   4.289   0.881   1.012  0.0267 -0.3885  0.6557
 6642SOL    HW120611   4.213   0.859   1.066  0.0510 -1.7588  0.1917
 6642SOL    HW220612   4.359   0.900   1.074  0.3347 -2.9270  1.1863
 6643SOL     OW20613   1.470   5.888   1.794  0.0411 -0.6729 -0.1530
 6643SOL    HW120614   1.558   5.861   1.767  0.9117  0.3274  1.5140
 6643SOL    HW220615   1.458   5.973   1.753 -0.9673 -1.5765 -1.8907
 6644SOL     OW20616   1.782   0.297   2.386  0.3332  0.2738 -0.1521
 6644SOL    HW120617   1.696   0.258   2.371  1.0169 -1.0482 -0.8111
 6644SOL    HW220618   1.830   0.231   2.435  0.8717  1.1469  0.5110
 6645SOL     OW20619   1.358   2.150   3.397 -0.3458 -0.0055 -0.1708
 6645SOL    HW120620   1.435   2.104   3.432  0.4416  0.8616 -0.7085
 6645SOL    HW220621   1.343   2.110   3.312 -2.3025 -2.1596  1.0630
 6646SOL     OW20622   5.035   6.228   4.430  0.0098  0.5297  0.3594
 6646SOL    HW120623   5.032   6.272   4.515 -0.3901  2.2606 -0.5126
 6646SOL    HW220624   5.104   6.274   4.382  0.0040 -0.2019 -0.3689
 6647SOL     OW20625   3.357   1.580   4.817 -0.2519  0.1249  0.1905
 6647SOL    HW120626   3.425   1.517   4.793  0.5991  1.3611 -0.7951
 6647SOL    HW220627   3.399   1.634   4.885 -0.0193  1.2503 -0.8237
 6648SOL     OW20628   7.731   6.858   6.920  0.5369 -0.2296 -0.4329
 6648SOL    HW120629   7.795   6.833   6.854  2.3855 -1.7698  1.7990
 6648SOL    HW220630   7.762   6.817   7.000 -2.5131  0.1473  1.0770
 6649SOL     OW20631   2.091   0.744   1.426 -0.1405  0.4950  0.3963
 6649SOL    HW120632   2.132   0.715   1.344 -1.8274 -1.2472  0.0984
 6649SOL    HW220633   2.155   0.720   1.494  0.6974  0.7515 -0.2838
 6650SOL     OW20634   7.020   5.656   0.897 -0.3333  0.0845  0.8620
 6650SOL    HW120635   7.061   5.734   0.936 -0.0997  0.3615  0.0970
 6650SOL    HW220636   6.951   5.692   0.841 -0.4466 -0.2812  0.7691
 6651SOL     OW20637   4.983   5.163   0.706 -0.6494  0.5770 -0.0564
 6651SOL    HW120638   4.960   5.184   0.616 -0.8149  1.2009  0.1292
 6651SOL    HW220639   5.079   5.173   0.710 -0.6749  0.8418 -0.0902
 6652SOL     OW20640   1.786   0.433   6.951 -0.0978 -0.2718 -0.0946
 6652SOL    HW120641   1.722   0.390   7.008 -0.5146 -1.9891 -1.7648
 6652SOL    HW220642   1.762   0.526   6.955 -1.1142 -0.5619  1.2557
 6653SOL     OW20643   3.267   2.782   6.873 -1.0071  0.5641 -0.1087
 6653SOL    HW120644   3.252   2.690   6.855  0.9314  0.2581 -0.3814
 6653SOL    HW220645   3.232   2.796   6.961 -0.6664 -0.6227  0.2293
 6654SOL     OW20646   0.603   4.456   7.304  0.2303  0.0133  0.2372
 6654SOL    HW120647   0.558   4.429   7.224  0.7695 -1.2404  0.3366
 6654SOL    HW220648   0.570   4.544   7.321 -1.1589 -0.3410 -0.4349
 6655SOL     OW20649   2.933   6.667   4.845  0.2421 -0.0711 -0.2902
 6655SOL    HW120650   2.955   6.738   4.905  0.4177  0.3724 -0.8657
 6655SOL    HW220651   2.846   6.689   4.812  0.4985  0.1392 -0.8384
 6656SOL     OW20652   0.545   6.380   0.671 -0.1480  0.9425 -0.3844
 6656SOL    HW120653   0.620   6.319   0.677 -0.1082  1.0514  0.2467
 6656SOL    HW220654   0.495   6.348   0.596 -0.4931 -0.2955  0.3471
 6657SOL     OW20655   6.777   6.978   2.975 -0.2201  0.3920  0.1430
 6657SOL    HW120656   6.744   6.975   2.885  2.4996  1.3625 -0.9999
 6657SOL    HW220657   6.803   7.069   2.988  1.2027 -0.1181  1.1938
 6658SOL     OW20658   5.061   5.716   3.801 -0.2148 -0.0380  0.2961
 6658SOL    HW120659   5.080   5.742   3.892 -1.5470  1.6306  0.1544
 6658SOL    HW220660   4.984   5.769   3.777  0.2648 -0.2558 -1.9016
 6659SOL     OW20661   3.050   7.636   3.153  0.2462 -0.1272  0.6043
 6659SOL    HW120662   3.141   7.628   3.181  0.9589 -1.3983 -1.8076
 6659SOL    HW220663   3.019   7.546   3.144 -1.3072  0.2846  1.4331
 6660SOL     OW20664   1.238   3.311   1.855  0.3724  0.2991  0.0968
 6660SOL    HW120665   1.310   3.277   1.800  0.9366 -0.2541  1.1434
 6660SOL    HW220666   1.279   3.325   1.941 -0.8046 -0.1091  0.7328
 6661SOL     OW20667   5.666   6.391   1.875  0.0666  0.0502  0.2032
 6661SOL    HW120668   5.745   6.346   1.843 -2.2521 -4.2642 -0.3066
 6661SOL    HW220669   5.627   6.429   1.796  0.8744  1.0245  0.2455
 6662SOL     OW20670   0.425   1.671   6.489 -0.0468 -0.2571 -0.3884
 6662SOL    HW120671   0.356   1.737   6.485  0.0388 -0.0974  0.5723
 6662SOL    HW220672   0.389   1.603   6.545  0.3061 -0.5076 -0.4632
 6663SOL     OW20673   6.570   1.143   7.772  0.1348  0.0130 -0.0723
 6663SOL    HW120674   6.609   1.225   7.801 -1.7571  0.8417  0.3098
 6663SOL    HW220675   6.583   1.142   7.677 -0.2142  0.9832 -0.1384
 6664SOL     OW20676   2.103   6.064   5.521  0.4492 -0.4195  0.0965
 6664SOL    HW120677   2.127   6.142   5.471  0.2950 -1.1999 -1.2415
 6664SOL    HW220678   2.153   6.072   5.602  0.1905  1.2243  0.1363
 6665SOL     OW20679   2.012   6.896   2.567  0.0852  0.0146 -0.3390
 6665SOL    HW120680   1.955   6.972   2.555 -0.5760 -0.1380  1.5461
 6665SOL    HW220681   2.085   6.929   2.621  1.8993  0.2222 -2.7526
 6666SOL     OW20682   1.595   7.526   4.598  0.4601 -0.1069  0.5713
 6666SOL    HW120683   1.540   7.574   4.536  0.5123  0.8699  1.2618
 6666SOL    HW220684   1.640   7.461   4.544  0.1649  0.4275 -0.3458
 6667SOL     OW20685   5.582   3.299   2.637  0.0360 -0.0639  0.9154
 6667SOL    HW120686   5.555   3.301   2.729  0.8049  1.2105  1.1504
 6667SOL    HW220687   5.668   3.257   2.639 -0.6154 -1.4520  0.5568
 6668SOL     OW20688   1.988   3.536   3.408 -0.6365  0.0104 -0.0034
 6668SOL    HW120689   2.077   3.563   3.387 -0.7267  1.4308  1.2714
 6668SOL    HW220690   1.997   3.486   3.489 -1.1971  2.2766  1.5554
 6669SOL     OW20691   4.114   4.857   5.197 -0.1766 -0.2963  0.1042
 6669SOL    HW120692   4.060   4.779   5.181 -1.2412 -0.3404  3.2884
 6669SOL    HW220693   4.204   4.825   5.197 -0.4706 -1.1545 -0.4041
 6670SOL     OW20694   3.158   0.521   7.454  0.4304 -0.2956 -0.1838
 6670SOL    HW120695   3.236   0.466   7.468 -0.6427 -1.1140  4.0535
 6670SOL    HW220696   3.173   0.598   7.510 -1.5700 -0.2820  0.4134
 6671SOL     OW20697   3.958   5.224   0.476  0.2016 -0.0962  0.4877
 6671SOL    HW120698   3.998   5.171   0.546  1.2247  0.6033  0.4487
 6671SOL    HW220699   4.028   5.236   0.412 -0.9462 -1.4374 -1.1186
 6672SOL     OW20700   3.805   3.426   6.812 -0.1840  0.2049 -0.0305
 6672SOL    HW120701   3.840   3.408   6.724 -0.9117  0.2416 -0.3346
 6672SOL    HW220702   3.780   3.339   6.845  0.5986  0.1228  0.3699
 6673SOL     OW20703   3.058   1.465   3.686  0.3543  0.4401  0.4625
 6673SOL    HW120704   3.057   1.506   3.773  0.5469  0.8442  0.2749
 6673SOL    HW220705   2.967   1.440   3.670  0.1678  1.1328  0.4180
 6674SOL     OW20706   0.035   3.431   0.884  0.5171  0.3542 -0.1273
 6674SOL    HW120707  -0.005   3.461   0.966 -0.5941  0.6471 -0.7441
 6674SOL    HW220708   0.014   3.338   0.879  1.2084  0.1760  0.2628
 6675SOL     OW20709   1.267   5.580   7.567  0.4453 -0.4429 -0.2044
 6675SOL    HW120710   1.222   5.630   7.498 -0.1586  0.5165  0.8575
 6675SOL    HW220711   1.264   5.489   7.537 -2.2102 -0.4300 -0.1861
 6676SOL     OW20712   7.771   1.823   4.007 -0.0319  0.4101  0.4086
 6676SOL    HW120713   7.857   1.787   3.985  0.1528  0.7099  0.6322
 6676SOL    HW220714   7.711   1.749   4.000  0.2602  0.1814  0.3330
 6677SOL     OW20715   0.264   6.761   6.501 -0.3453 -0.5286  0.3108
 6677SOL    HW120716   0.282   6.847   6.463 -1.3543  0.1437  1.3162
 6677SOL    HW220717   0.325   6.754   6.574  0.1599 -0.9459 -0.1392
 6678SOL     OW20718   7.657   6.805   2.770  0.5500  0.2989 -0.1804
 6678SOL    HW120719   7.718   6.763   2.709  0.5422  0.3199 -0.2030
 6678SOL    HW220720   7.705   6.879   2.806  0.6396  0.1373  0.0293
 6679SOL     OW20721   2.205   0.654   5.822  0.5349 -0.0390 -0.3057
 6679SOL    HW120722   2.169   0.579   5.869  1.3012  0.0570  0.4609
 6679SOL    HW220723   2.295   0.628   5.803  0.2285 -0.0903 -1.7768
 6680SOL     OW20724   6.667   2.246   5.923 -0.2653 -0.1445 -0.2357
 6680SOL    HW120725   6.639   2.226   6.012 -1.3361 -0.6104 -0.6619
 6680SOL    HW220726   6.722   2.324   5.933 -0.1490 -0.3417  0.8539
 6681SOL     OW20727   5.411   6.347   6.826  0.2048  0.6816  0.0106
 6681SOL    HW120728   5.335   6.306   6.784  1.5775 -0.4744 -1.4884
 6681SOL    HW220729   5.419   6.302   6.910  0.4856 -0.7549 -0.7570
 6682SOL     OW20730   5.615   2.939   3.766 -0.0473  0.4010 -0.0720
 6682SOL    HW120731   5.649   2.852   3.744 -1.4901 -0.3664  0.5614
 6682SOL    HW220732   5.681   2.977   3.824  0.3386 -0.5229  0.1120
 6683SOL     OW20733   4.775   6.185   7.196  0.0151 -0.6003  0.1574
 6683SOL    HW120734   4.764   6.117   7.262  0.9216 -0.1883  0.7486
 6683SOL    HW220735   4.838   6.150   7.134 -0.0602 -0.5812  0.0692
 6684SOL     OW20736   6.294   4.872   4.174 -0.4044  0.4413  0.1271
 6684SOL    HW120737   6.274   4.944   4.234 -0.6745  2.0882 -1.8149
 6684SOL    HW220738   6.234   4.802   4.199 -1.5991  1.6473  0.7773
 6685SOL     OW20739   7.260   6.808   3.580  0.4291  0.1286 -0.0285
 6685SOL    HW120740   7.207   6.885   3.561  1.1166  0.4848 -0.5462
 6685SOL    HW220741   7.277   6.812   3.674 -1.1894 -0.4756  0.3299
 6686SOL     OW20742   3.983   3.690   5.284  0.0856  0.4599  0.2022
 6686SOL    HW120743   3.926   3.703   5.208  1.5794 -1.1118 -1.2831
 6686SOL    HW220744   3.929   3.641   5.346 -0.9709  1.2418 -0.0646
 6687SOL     OW20745   1.564   1.683   3.184  0.5636  0.0126 -0.5622
 6687SOL    HW120746   1.569   1.590   3.205 -0.4461 -0.1954 -1.1766
 6687SOL    HW220747   1.603   1.691   3.097  0.9713  0.2222 -0.3621
 6688SOL     OW20748   1.353   3.294   2.912  0.0307 -0.2304  0.1151
 6688SOL    HW120749   1.416   3.222   2.921 -0.3997 -0.7196 -0.6130
 6688SOL    HW220750   1.402   3.362   2.865  0.3517 -0.1683  0.5374
 6689SOL     OW20751   1.046   3.579   4.308 -0.2360 -0.4763 -0.4043
 6689SOL    HW120752   1.048   3.620   4.221 -1.1990 -0.8040 -0.5982
 6689SOL    HW220753   0.975   3.624   4.354  1.1110  0.5991  0.6978
 6690SOL     OW20754   6.945   6.792   4.361 -0.8594 -0.4699 -0.0065
 6690SOL    HW120755   6.864   6.752   4.395 -0.4249  0.1457  1.8916
 6690SOL    HW220756   6.916   6.854   4.295 -2.1933  1.3221  2.1362
 6691SOL     OW20757   3.960   6.021   1.002  0.1970 -0.2159 -0.0328
 6691SOL    HW120758   4.025   6.076   1.045  0.7370 -0.3421 -0.6563
 6691SOL    HW220759   3.877   6.044   1.043  0.7642 -0.7547  1.4672
 6692SOL     OW20760   3.541   1.897   1.864  0.3017  0.3418 -0.2848
 6692SOL    HW120761   3.494   1.825   1.822 -0.8809  0.2649  1.0424
 6692SOL    HW220762   3.530   1.971   1.805 -1.9521  0.4382  0.1321
 6693SOL     OW20763   5.615   0.952   3.917 -0.2712 -0.1121 -0.0937
 6693SOL    HW120764   5.676   0.896   3.965  0.4246  0.3112 -0.4563
 6693SOL    HW220765   5.672   1.014   3.871 -1.0133  1.3355  0.8366
 6694SOL     OW20766   6.090   6.608   1.828  0.1315  0.3025  0.6655
 6694SOL    HW120767   6.050   6.647   1.906 -1.3995 -1.4324  0.8343
 6694SOL    HW220768   6.021   6.609   1.762  1.0733  0.7754 -0.3448
 6695SOL     OW20769   6.751   7.637   0.117 -0.0134 -0.1233  0.3793
 6695SOL    HW120770   6.802   7.583   0.055  1.0688 -0.6034  1.6443
 6695SOL    HW220771   6.811   7.655   0.189 -1.3630  0.0749  1.5090
 6696SOL     OW20772   3.211   4.083   3.169  0.4093  0.2447 -0.2554
 6696SOL    HW120773   3.265   4.142   3.220 -1.6849  1.7281  0.3588
 6696SOL    HW220774   3.122   4.114   3.182 -0.5543 -1.6299 -1.8287
 6697SOL     OW20775   1.180   3.954   7.111 -0.3636  0.0358  0.0918
 6697SOL    HW120776   1.110   3.889   7.123  0.4699 -1.5075 -2.5710
 6697SOL    HW220777   1.241   3.938   7.184 -0.0751 -2.3832 -0.6068
 6698SOL     OW20778   4.771   1.190   6.175 -0.7024 -0.5486  0.1096
 6698SOL    HW120779   4.756   1.097   6.159 -2.7382  0.0302 -1.9649
 6698SOL    HW220780   4.692   1.233   6.142 -0.0437  1.9060  1.4426
 6699SOL     OW20781   0.612   3.436   1.953  0.4141 -0.1134  0.5274
 6699SOL    HW120782   0.620   3.530   1.971  1.0320  0.1190 -0.8437
 6699SOL    HW220783   0.605   3.430   1.858  2.7326 -1.5820  0.3794
 6700SOL     OW20784   4.625   0.619   5.491  0.4589  0.2994  0.7571
 6700SOL    HW120785   4.547   0.607   5.544 -0.1167  0.8560  0.0539
 6700SOL    HW220786   4.622   0.548   5.427 -0.4400  1.3254 -0.3971
 6701SOL     OW20787   0.869   3.839   6.092  0.0585 -0.3510  0.3857
 6701SOL    HW120788   0.776   3.831   6.073 -0.0134  0.7157  0.2415
 6701SOL    HW220789   0.887   3.933   6.089  0.6667 -0.3246  2.7276
 6702SOL     OW20790   2.269   0.309   6.098 -0.6522  0.5475 -0.1901
 6702SOL    HW120791   2.174   0.300   6.109 -0.5505 -0.6674 -0.2062
 6702SOL    HW220792   2.279   0.374   6.028 -1.4596  0.9844  0.0852
 6703SOL     OW20793   2.584   2.255   3.101  0.3514 -0.4866  0.4298
 6703SOL    HW120794   2.623   2.330   3.056  0.0458 -0.0758  0.8488
 6703SOL    HW220795   2.581   2.186   3.035  1.0703 -0.2788  0.1750
 6704SOL     OW20796   6.402   4.172   5.308  0.1585  0.1216 -0.2819
 6704SOL    HW120797   6.383   4.113   5.381 -0.4181 -0.2921 -0.7609
 6704SOL    HW220798   6.399   4.259   5.347  2.4901 -0.1889  0.7755
 6705SOL     OW20799   6.821   2.063   3.136  0.5036  0.1309  0.4967
 6705SOL    HW120800   6.901   2.110   3.161  2.3271 -2.2278 -0.5822
 6705SOL    HW220801   6.807   2.000   3.206 -1.0137  1.1225  1.1399
 6706SOL     OW20802   3.403   5.303   2.883  0.4761 -0.2025 -0.1450
 6706SOL    HW120803   3.455   5.227   2.858  0.2824 -0.0085 -1.1754
 6706SOL    HW220804   3.455   5.348   2.949  0.8066 -0.9699  0.1163
 6707SOL     OW20805   5.899   6.263   1.766 -0.2560  0.6461  0.3215
 6707SOL    HW120806   5.950   6.295   1.691 -3.0917  2.5781 -0.9537
 6707SOL    HW220807   5.865   6.178   1.737 -0.3755  0.8376 -0.1120
 6708SOL     OW20808   5.397   4.386   3.425  0.0233  0.5562  0.6381
 6708SOL    HW120809   5.381   4.354   3.336  0.6189  0.8183  0.4324
 6708SOL    HW220810   5.312   4.378   3.469  0.0889 -1.1461  0.5493
 6709SOL     OW20811   4.736   5.564   0.881  0.4327 -0.3609  0.1202
 6709SOL    HW120812   4.680   5.628   0.926  0.4695 -1.1678  1.3619
 6709SOL    HW220813   4.702   5.479   0.909  0.5811 -0.9000 -1.2673
 6710SOL     OW20814   0.929   7.552   5.553 -0.1816 -0.0108  0.4956
 6710SOL    HW120815   0.882   7.600   5.621 -1.9770 -0.3073 -0.4850
 6710SOL    HW220816   0.937   7.613   5.481 -1.9173 -0.9045 -0.5175
 6711SOL     OW20817   7.498   5.060   6.428  0.3862 -0.6016 -0.7809
 6711SOL    HW120818   7.564   5.056   6.359 -0.0843 -0.3530 -1.2491
 6711SOL    HW220819   7.431   4.998   6.400 -0.7556  0.9084 -1.5671
 6712SOL     OW20820   2.271   0.489   4.740  0.3594  0.3104  0.0724
 6712SOL    HW120821   2.233   0.560   4.689 -1.0348 -0.3056  0.1768
 6712SOL    HW220822   2.345   0.458   4.688 -0.8847 -0.1682 -1.5074
 6713SOL     OW20823   4.249   4.414   6.860  0.2445 -0.3615  0.9585
 6713SOL    HW120824   4.299   4.353   6.805  0.8358  0.7822  0.1995
 6713SOL    HW220825   4.187   4.455   6.800 -0.1631 -0.2203  1.4697
 6714SOL     OW20826   4.079   0.517   3.266  0.5728  0.2603  0.1023
 6714SOL    HW120827   4.120   0.441   3.225 -0.0071 -1.3225  2.2896
 6714SOL    HW220828   3.988   0.516   3.234 -0.1900 -1.6208  2.1282
 6715SOL     OW20829   3.198   6.565   7.349 -0.3305 -0.1994  0.2247
 6715SOL    HW120830   3.175   6.472   7.344  2.2659 -0.8631 -1.2361
 6715SOL    HW220831   3.238   6.575   7.436 -0.4412 -0.4925  0.3117
 6716SOL     OW20832   6.857   6.653   0.457  0.0468 -0.1508 -0.1468
 6716SOL    HW120833   6.912   6.600   0.513  0.9021  0.7498 -0.0984
 6716SOL    HW220834   6.780   6.673   0.510  0.3427 -0.2249  0.3153
 6717SOL     OW20835   0.625   4.007   2.348 -0.7214  0.2383  0.4735
 6717SOL    HW120836   0.570   3.947   2.397 -2.3940  0.2465 -1.2628
 6717SOL    HW220837   0.714   3.972   2.357 -1.6536 -2.7179 -0.7109
 6718SOL     OW20838   4.868   1.332   7.749  0.1253 -0.4425 -0.4836
 6718SOL    HW120839   4.835   1.244   7.729  0.6588 -0.6913 -0.2982
 6718SOL    HW220840   4.950   1.337   7.700  0.3073 -0.2050 -0.1512
 6719SOL     OW20841   5.450   0.333   1.723  0.4121  0.1558  0.7483
 6719SOL    HW120842   5.360   0.326   1.692  0.7456  2.3263 -0.9250
 6719SOL    HW220843   5.487   0.246   1.709 -0.9909 -0.3616  0.0444
 6720SOL     OW20844   1.121   3.099   3.972 -0.1361 -0.9650  0.3180
 6720SOL    HW120845   1.035   3.075   4.008  0.0463  1.4549  2.6519
 6720SOL    HW220846   1.103   3.173   3.914  0.2703 -1.1340 -0.0299
 6721SOL     OW20847   2.900   3.426   0.969 -0.2666 -0.2014 -0.0991
 6721SOL    HW120848   2.980   3.453   1.013 -0.5157  2.4665 -1.0853
 6721SOL    HW220849   2.849   3.380   1.036  0.9006  0.5007  1.3215
 6722SOL     OW20850   4.786   5.130   5.252 -0.2678 -0.2935  0.1942
 6722SOL    HW120851   4.691   5.126   5.255 -0.2957 -3.0961 -0.9655
 6722SOL    HW220852   4.806   5.220   5.228 -2.6577  0.1417 -0.3851
 6723SOL     OW20853   0.822   2.542   3.884 -0.1322  0.2699  0.6648
 6723SOL    HW120854   0.783   2.471   3.935 -0.8299 -0.2500 -0.5584
 6723SOL    HW220855   0.747   2.593   3.853  0.0262 -0.9617 -2.0417
 6724SOL     OW20856   4.933   6.222   6.550 -0.2951 -0.2790  0.3715
 6724SOL    HW120857   4.992   6.186   6.616  0.1270  0.1130  0.2074
 6724SOL    HW220858   4.988   6.277   6.495 -0.7496 -0.1666  0.0202
 6725SOL     OW20859   4.784   4.083   2.976  0.5672  0.2198  0.0912
 6725SOL    HW120860   4.697   4.096   3.015  1.5650  1.1638  2.1682
 6725SOL    HW220861   4.771   4.013   2.912 -1.4551 -0.6279  1.3126
 6726SOL     OW20862   4.262   7.478   0.303  0.3747  0.4075  0.0603
 6726SOL    HW120863   4.309   7.477   0.220 -0.0218  1.6090 -0.1904
 6726SOL    HW220864   4.324   7.516   0.365  0.9003 -1.0701  0.4811
 6727SOL     OW20865   5.048   0.301   3.683 -0.5892 -0.0097  0.1585
 6727SOL    HW120866   5.121   0.361   3.672 -1.3649  0.7934 -0.8816
 6727SOL    HW220867   5.076   0.240   3.752 -0.0873  2.0074  1.8186
 6728SOL     OW20868   4.416   5.534   6.821  0.5676 -0.4190 -0.4607
 6728SOL    HW120869   4.416   5.622   6.784 -0.6900 -0.1389  0.1422
 6728SOL    HW220870   4.326   5.502   6.807 -0.8143  0.5868  4.2779
 6729SOL     OW20871   0.170   1.098   6.258 -0.2044 -0.3636 -0.3206
 6729SOL    HW120872   0.169   1.071   6.166  1.8351  1.7703 -1.0719
 6729SOL    HW220873   0.177   1.193   6.255  1.8985 -0.3514  2.0004
 6730SOL     OW20874   7.751   6.247   1.899  0.1641 -0.3176 -0.0119
 6730SOL    HW120875   7.741   6.155   1.876  0.2825  0.0013 -1.4217
 6730SOL    HW220876   7.693   6.259   1.974  0.0513 -1.5078  0.1159
 6731SOL     OW20877   7.143   1.879   6.122 -0.2124 -0.3627 -0.3309
 6731SOL    HW120878   7.187   1.874   6.037  0.7659 -1.2296  0.2060
 6731SOL    HW220879   7.050   1.867   6.101  0.0099 -0.5406 -1.2799
 6732SOL     OW20880   6.086   1.773   2.047 -0.0553  0.2235 -0.1456
 6732SOL    HW120881   6.173   1.793   2.012 -0.1573  0.6834 -0.1412
 6732SOL    HW220882   6.064   1.849   2.102  1.1430 -1.4829  2.9409
 6733SOL     OW20883   1.054   2.593   1.057 -0.8690 -0.5688 -0.4728
 6733SOL    HW120884   1.025   2.679   1.027  0.4804  0.3124  0.5962
 6733SOL    HW220885   0.974   2.550   1.087 -1.5792  0.2782 -1.0760
 6734SOL     OW20886   5.449   4.562   0.644  0.3743  0.9750  0.9368
 6734SOL    HW120887   5.354   4.560   0.650  0.3804  1.2654  1.1730
 6734SOL    HW220888   5.467   4.596   0.557  0.2632  0.5732  0.7559
 6735SOL     OW20889   4.471   6.064   3.311  0.5423 -0.4620  0.3146
 6735SOL    HW120890   4.381   6.061   3.278  0.5181  1.6434  0.0360
 6735SOL    HW220891   4.467   6.123   3.386  1.4767 -1.4298  1.1595
 6736SOL     OW20892   1.846   2.629   6.655  0.3622  0.1926  0.5043
 6736SOL    HW120893   1.919   2.609   6.596 -1.0144  0.1255 -1.2705
 6736SOL    HW220894   1.865   2.579   6.735  1.1965 -1.5542 -0.7155
 6737SOL     OW20895   5.756   7.536   7.061 -0.1571 -0.0804 -0.0654
 6737SOL    HW120896   5.783   7.626   7.046 -0.7063  0.2598  0.8994
 6737SOL    HW220897   5.834   7.484   7.045 -0.0837  0.4579 -1.5894
 6738SOL     OW20898   2.858   0.724   3.091  0.1928 -0.0647  0.4565
 6738SOL    HW120899   2.847   0.757   3.180 -0.5591  0.1285  0.2935
 6738SOL    HW220900   2.929   0.659   3.098 -0.2142 -0.4282  1.2883
 6739SOL     OW20901   6.185   1.237   7.467  0.1190 -0.4051 -0.6997
 6739SOL    HW120902   6.262   1.212   7.415  1.1113 -0.0327  0.5390
 6739SOL    HW220903   6.191   1.183   7.546  0.6541  1.5313  0.6588
 6740SOL     OW20904   3.249   5.231   5.588  0.2410 -0.2223  0.5320
 6740SOL    HW120905   3.174   5.290   5.603  1.5009  1.3202  1.0612
 6740SOL    HW220906   3.226   5.151   5.636 -0.8070  0.4365  1.1768
 6741SOL     OW20907   4.486   3.085   3.369 -0.2396  0.0852 -0.2220
 6741SOL    HW120908   4.482   2.990   3.366  0.4980  0.0659 -1.3087
 6741SOL    HW220909   4.473   3.113   3.278  1.8503  0.8831 -0.3360
 6742SOL     OW20910   2.718   0.383   2.179  0.4251 -0.4867  0.5382
 6742SOL    HW120911   2.757   0.422   2.101 -1.4620  3.1150  1.1508
 6742SOL    HW220912   2.783   0.396   2.248  0.8852 -0.9255  0.1941
 6743SOL     OW20913   2.477   4.393   5.521  0.1881  0.1123 -0.4983
 6743SOL    HW120914   2.498   4.309   5.562 -1.5583 -1.2691 -2.2747
 6743SOL    HW220915   2.447   4.448   5.593 -1.0381 -1.6210  0.3703
 6744SOL     OW20916   5.056   2.291   5.088 -0.0214 -0.3305  0.0525
 6744SOL    HW120917   5.047   2.319   5.180  0.7956  0.1682 -0.0027
 6744SOL    HW220918   5.077   2.372   5.041  0.5983 -0.7534 -0.4085
 6745SOL     OW20919   2.871   1.633   2.730  0.3067  0.2548 -0.2310
 6745SOL    HW120920   2.828   1.681   2.802  3.3589  0.0071  1.9422
 6745SOL    HW220921   2.832   1.545   2.734  0.6550  0.1432  1.4066
 6746SOL     OW20922   6.196   6.642   3.058 -0.0541  0.1031  0.4738
 6746SOL    HW120923   6.246   6.607   3.132 -0.1551  0.4910  0.7257
 6746SOL    HW220924   6.109   6.602   3.068 -0.2449  0.6066  0.9042
 6747SOL     OW20925   7.238   1.972   1.935  0.4661  0.2113  0.4284
 6747SOL    HW120926   7.203   1.930   2.013  1.3312 -0.9196  0.2385
 6747SOL    HW220927   7.321   1.927   1.919  0.6373  0.9037 -0.7380
 6748SOL     OW20928   4.750   6.396   4.832  0.3996 -0.6346  0.1227
 6748SOL    HW120929   4.769   6.349   4.913 -2.0607 -0.3038  0.9767
 6748SOL    HW220930   4.670   6.445   4.851  0.4184  0.3893 -2.1512
 6749SOL     OW20931   1.616   0.673   0.233  0.2932 -0.2564  0.1443
 6749SOL    HW120932   1.636   0.665   0.140 -1.0318 -1.4066 -0.0668
 6749SOL    HW220933   1.632   0.586   0.269  0.2588  0.0369  0.8866
 6750SOL     OW20934   5.351   0.327   0.093  0.0801 -0.2870  0.0479
 6750SOL    HW120935   5.442   0.312   0.068  0.7704  3.3257 -0.1044
 6750SOL    HW220936   5.357   0.383   0.171 -1.9706  1.0430 -0.6759
 6751SOL     OW20937   7.361   6.238   7.597  0.1788  0.0539 -0.3307
 6751SOL    HW120938   7.444   6.205   7.633  0.8688  0.5769 -1.3917
 6751SOL    HW220939   7.293   6.189   7.644  1.0715 -0.1218  0.8245
 6752SOL     OW20940   6.800   4.683   6.951  0.0592  0.6852  0.2785
 6752SOL    HW120941   6.720   4.638   6.979 -0.5218  0.6725 -1.3088
 6752SOL    HW220942   6.854   4.685   7.030 -1.8970  1.5965  1.6901
 6753SOL     OW20943   7.716   1.258   3.922 -0.5589 -0.3901 -0.5117
 6753SOL    HW120944   7.805   1.223   3.914 -0.0881  0.2091  1.6041
 6753SOL    HW220945   7.691   1.280   3.832  1.3822 -0.6611 -1.1629
 6754SOL     OW20946   7.557   2.790   1.152 -0.2793 -0.5725  0.1478
 6754SOL    HW120947   7.531   2.704   1.119  0.1707 -0.0604 -1.6643
 6754SOL    HW220948   7.476   2.840   1.156 -0.4108 -0.7979  0.3230
 6755SOL     OW20949   1.019   3.193   4.880 -0.0066  0.1330  0.0911
 6755SOL    HW120950   0.973   3.216   4.960  1.5172  2.4717  0.3943
 6755SOL    HW220951   0.965   3.228   4.810  0.6013  1.7048  0.3701
 6756SOL     OW20952   2.736   2.742   6.633  0.5989 -0.7120  0.1103
 6756SOL    HW120953   2.820   2.788   6.630  0.2560 -0.0313  0.5308
 6756SOL    HW220954   2.718   2.719   6.542  0.7057  0.1438 -0.1403
 6757SOL     OW20955   1.839   7.286   1.654  0.2026 -0.5792 -0.2851
 6757SOL    HW120956   1.761   7.285   1.599  0.1889 -0.6370 -0.2646
 6757SOL    HW220957   1.908   7.319   1.596 -0.1470  0.9381  0.1219
 6758SOL     OW20958   5.151   5.965   7.027  0.0861 -0.2074  0.1181
 6758SOL    HW120959   5.156   5.869   7.031 -0.0547 -0.1919  0.7352
 6758SOL    HW220960   5.102   5.990   7.105 -0.4368  0.3333 -0.3763
 6759SOL     OW20961   3.626   5.329   4.855 -0.5650  0.3210  0.7856
 6759SOL    HW120962   3.673   5.400   4.812 -0.2354  0.1731  0.9043
 6759SOL    HW220963   3.603   5.270   4.784  0.6178 -0.2941  0.8911
 6760SOL     OW20964   2.283   0.455   3.102  0.2515 -0.1262 -0.6392
 6760SOL    HW120965   2.197   0.496   3.091 -1.3908 -3.5815 -2.2522
 6760SOL    HW220966   2.285   0.428   3.194 -1.0003 -1.1234 -0.8844
 6761SOL     OW20967   7.349   6.498   4.746 -0.5543 -0.6988 -0.2707
 6761SOL    HW120968   7.413   6.490   4.816  0.2963  0.4501 -0.8804
 6761SOL    HW220969   7.302   6.579   4.765 -1.4416 -1.2350 -0.1447
 6762SOL     OW20970   3.521   2.390   4.254  0.7053  0.3957  0.1364
 6762SOL    HW120971   3.540   2.476   4.217 -0.1546  0.2141 -0.7635
 6762SOL    HW220972   3.503   2.407   4.347 -0.1474  1.2857 -0.1782
 6763SOL     OW20973   2.547   1.593   3.297 -0.3730  0.2467  0.8968
 6763SOL    HW120974   2.614   1.659   3.316  1.3520 -1.3862  0.7344
 6763SOL    HW220975   2.540   1.543   3.378 -1.9842  0.8421  1.1601
 6764SOL     OW20976   2.279   1.395   3.516 -0.0381 -0.2205  0.4403
 6764SOL    HW120977   2.335   1.438   3.581 -0.4513 -0.6494  1.0865
 6764SOL    HW220978   2.202   1.452   3.510  1.5644  1.9319 -2.5010
 6765SOL     OW20979   3.053   3.964   6.009  0.6054 -0.3176 -0.0113
 6765SOL    HW120980   3.102   3.911   6.072  0.6093  0.2556  0.4713
 6765SOL    HW220981   3.059   3.914   5.927  2.9015  0.2085 -0.2532
 6766SOL     OW20982   1.771   1.454   6.157 -0.0826  0.4470 -0.0423
 6766SOL    HW120983   1.718   1.397   6.101 -0.7022  1.2462 -0.2819
 6766SOL    HW220984   1.762   1.416   6.245 -1.2071  0.6644 -0.0518
 6767SOL     OW20985   5.449   7.699   5.301 -0.5001 -0.3929  0.0689
 6767SOL    HW120986   5.483   7.743   5.223  1.4665 -1.3855  0.2985
 6767SOL    HW220987   5.489   7.612   5.299  0.1351 -0.2190  2.5143
 6768SOL     OW20988   5.833   5.423   0.007 -0.7437  0.1648  0.1228
 6768SOL    HW120989   5.909   5.472  -0.023 -0.7331 -0.0058 -0.1267
 6768SOL    HW220990   5.781   5.487   0.056 -0.5426  0.3305  0.1184
 6769SOL     OW20991   1.291   7.212   4.449  0.1614 -0.1664  0.0598
 6769SOL    HW120992   1.287   7.131   4.397  0.4919  0.4744 -0.9997
 6769SOL    HW220993   1.302   7.182   4.539 -1.3773 -1.3435 -0.1039
 6770SOL     OW20994   6.897   1.534   4.781 -0.0855  0.2360 -0.0868
 6770SOL    HW120995   6.919   1.623   4.751  0.8093  0.4988  1.2194
 6770SOL    HW220996   6.901   1.481   4.702 -0.1682  1.2788 -0.8228
 6771SOL     OW20997   5.830   3.504   3.996  0.4263 -0.2842  0.0690
 6771SOL    HW120998   5.755   3.476   3.944  1.2258 -0.9124 -0.7721
 6771SOL    HW220999   5.895   3.436   3.983  0.4972 -0.7297  2.3161
 6772SOL     OW21000   0.882   6.622   4.408  0.1738 -0.2714  0.0216
 6772SOL    HW121001   0.852   6.531   4.417  2.1190 -0.8720  0.8908
 6772SOL    HW221002   0.977   6.616   4.412  0.3733  1.7182 -1.0051
 6773SOL     OW21003   7.143   3.675   6.280  0.2263  0.4367 -0.4097
 6773SOL    HW121004   7.106   3.600   6.325 -0.4683  0.7938 -0.3758
 6773SOL    HW221005   7.179   3.639   6.199 -2.1612  0.3570 -1.5251
 6774SOL     OW21006   4.281   5.009   1.886  0.1126 -0.6403  0.2064
 6774SOL    HW121007   4.373   4.991   1.867  0.1947 -2.0231  1.7194
 6774SOL    HW221008   4.272   4.995   1.981 -1.8614 -1.5646 -0.0503
 6775SOL     OW21009   2.391   0.114   4.740  0.5402  0.1068 -0.7343
 6775SOL    HW121010   2.387   0.019   4.730 -1.5727  0.0965 -0.3392
 6775SOL    HW221011   2.467   0.140   4.688  2.0286 -1.9022  0.2714
 6776SOL     OW21012   6.077   7.754   7.755  0.2861 -0.4413 -0.2448
 6776SOL    HW121013   6.143   7.749   7.685 -0.2430  2.4460 -1.0545
 6776SOL    HW221014   6.105   7.827   7.810 -0.8665 -0.8395  0.9153
 6777SOL     OW21015   1.375   7.275   3.903 -0.3239  0.1790 -0.0170
 6777SOL    HW121016   1.302   7.217   3.880  0.3800 -0.4926 -0.5921
 6777SOL    HW221017   1.342   7.363   3.884 -0.8986 -0.1404 -0.5229
 6778SOL     OW21018   5.132   2.155   3.690  0.0060 -0.1947 -0.6629
 6778SOL    HW121019   5.055   2.199   3.725 -0.2258 -0.0969 -1.2819
 6778SOL    HW221020   5.102   2.114   3.609  0.3140 -1.1654 -0.3055
 6779SOL     OW21021   3.537   6.434   5.347 -0.1513 -0.2328 -0.0163
 6779SOL    HW121022   3.588   6.486   5.284 -0.2338  3.1417  2.4126
 6779SOL    HW221023   3.452   6.478   5.351 -0.5473 -1.0606  1.5711
 6780SOL     OW21024   7.227   3.978   1.816 -0.2083  0.8091 -0.3540
 6780SOL    HW121025   7.273   4.061   1.830  1.9049 -0.5882  1.7056
 6780SOL    HW221026   7.183   3.960   1.899  0.1727 -0.5700 -0.4253
 6781SOL     OW21027   0.878   4.456   5.777 -0.5195  0.7522 -0.1539
 6781SOL    HW121028   0.870   4.422   5.688  0.0616  0.3723 -0.0673
 6781SOL    HW221029   0.829   4.394   5.831 -1.4059  1.3327 -0.2874
 6782SOL     OW21030   7.465   0.384   4.861 -0.8253  0.2844  0.5768
 6782SOL    HW121031   7.494   0.300   4.896 -0.8637  1.2878  3.2826
 6782SOL    HW221032   7.545   0.435   4.851 -0.7562 -0.1555 -1.4583
 6783SOL     OW21033   1.219   4.939   2.662 -0.2516 -0.2377 -0.5106
 6783SOL    HW121034   1.284   5.007   2.647  0.9868 -1.1214  0.6248
 6783SOL    HW221035   1.136   4.979   2.636  0.5899  1.2863 -0.9659
 6784SOL     OW21036   5.501   4.380   6.906 -0.3499 -0.0913  0.0301
 6784SOL    HW121037   5.421   4.418   6.871 -0.3882 -1.0583 -0.9886
 6784SOL    HW221038   5.489   4.380   7.001 -2.1461 -1.4434 -0.1533
 6785SOL     OW21039   6.304   1.821   0.470  0.4448  0.1538 -0.2583
 6785SOL    HW121040   6.256   1.818   0.387  1.8210 -2.6029 -1.1141
 6785SOL    HW221041   6.238   1.808   0.537 -0.4959  0.7104 -1.0542
 6786SOL     OW21042   3.912   4.017   7.120 -0.4302  0.2536  0.3111
 6786SOL    HW121043   3.890   4.109   7.127 -1.6431  0.1072 -1.0968
 6786SOL    HW221044   3.843   3.971   7.168 -0.2966  0.0433  0.3060
 6787SOL     OW21045   1.058   6.822   6.340  0.4030  0.1725  0.5301
 6787SOL    HW121046   1.152   6.805   6.334  0.0468 -1.4295 -1.3340
 6787SOL    HW221047   1.052   6.914   6.366  2.4955  0.6218 -0.3906
 6788SOL     OW21048   6.660   2.282   2.880 -0.1676 -0.4225  1.1227
 6788SOL    HW121049   6.577   2.330   2.877 -1.0582 -1.6603  3.5345
 6788SOL    HW221050   6.725   2.349   2.902 -0.7153  0.3526  0.4427
 6789SOL     OW21051   1.192   2.961   2.248 -0.3071 -0.2659 -0.1419
 6789SOL    HW121052   1.203   3.055   2.264 -0.0335  0.1516 -2.4807
 6789SOL    HW221053   1.102   2.942   2.276 -0.5950  0.8396 -0.2738
 6790SOL     OW21054   5.296   5.687   2.200  0.1759 -0.2625  0.1709
 6790SOL    HW121055   5.226   5.626   2.224 -0.2305  0.2016  0.1881
 6790SOL    HW221056   5.357   5.635   2.149 -0.3365 -0.6097 -0.0949
 6791SOL     OW21057   4.032   7.429   4.261 -0.0399 -0.3521 -0.4190
 6791SOL    HW121058   4.047   7.335   4.248 -0.4970 -0.6959  1.3464
 6791SOL    HW221059   4.107   7.458   4.312  0.6034  0.4861 -1.7879
 6792SOL     OW21060   7.662   1.638   3.724 -0.1239  0.3336 -0.2163
 6792SOL    HW121061   7.631   1.555   3.688  0.7241 -0.9236  1.8025
 6792SOL    HW221062   7.613   1.649   3.805  0.9205  0.9682  0.3533
 6793SOL     OW21063   2.107   1.534   7.438  0.2508  0.1181 -0.0229
 6793SOL    HW121064   2.071   1.551   7.351  0.1971  2.2724  0.3599
 6793SOL    HW221065   2.067   1.452   7.465 -1.2341  0.3925 -1.2658
 6794SOL     OW21066   3.985   2.261   0.506 -0.4503  0.0186 -0.0650
 6794SOL    HW121067   3.962   2.178   0.466 -1.2034  0.0720  0.2516
 6794SOL    HW221068   3.902   2.299   0.533  0.0013  0.2384  1.0478
 6795SOL     OW21069   0.448   1.410   5.355 -0.1325 -0.0511 -0.6006
 6795SOL    HW121070   0.355   1.396   5.339 -0.3598 -1.5838  1.5802
 6795SOL    HW221071   0.491   1.384   5.273 -1.4923 -1.6534 -0.8568
 6796SOL     OW21072   5.417   1.384   1.238 -0.1649 -0.3354  0.4611
 6796SOL    HW121073   5.398   1.311   1.178  1.9974  0.5207 -1.4426
 6796SOL    HW221074   5.502   1.361   1.276  0.5840  1.1756 -0.2367
 6797SOL     OW21075   6.852   3.323   6.730  0.0541  0.0157 -0.4431
 6797SOL    HW121076   6.784   3.271   6.773  1.5372 -1.4703  0.2423
 6797SOL    HW221077   6.895   3.369   6.802  1.0277 -0.6357 -0.5839
 6798SOL     OW21078   0.527   0.548   2.926 -0.2393  0.1650  0.0376
 6798SOL    HW121079   0.576   0.563   3.006 -0.5150 -0.9252  0.4304
 6798SOL    HW221080   0.545   0.625   2.872  1.5386  0.0093  0.3392
 6799SOL     OW21081   0.446   4.705   4.007 -0.4183  0.2015 -0.3013
 6799SOL    HW121082   0.446   4.623   4.055 -0.4508  0.4130  0.0670
 6799SOL    HW221083   0.362   4.746   4.030 -0.4391  0.3009 -0.5455
 6800SOL     OW21084   3.199   5.845   4.425 -0.1969 -0.4211  0.2528
 6800SOL    HW121085   3.215   5.930   4.383  0.0395 -0.4337  0.3139
 6800SOL    HW221086   3.177   5.786   4.353  2.4396 -1.0055 -0.1788
 6801SOL     OW21087   7.049   5.134   6.514 -0.3457 -0.6417  0.2946
 6801SOL    HW121088   6.994   5.083   6.455 -1.6233  0.5291  0.4125
 6801SOL    HW221089   7.082   5.071   6.578 -0.2189 -1.6503 -0.7468
 6802SOL     OW21090   1.834   0.747   1.706 -0.0266 -0.3290 -0.1499
 6802SOL    HW121091   1.917   0.699   1.701  0.8548  0.7083  2.4631
 6802SOL    HW221092   1.847   0.823   1.649 -1.1348 -2.5510 -3.6639
 6803SOL     OW21093   7.078   0.920   5.120  0.1205 -0.3581 -0.8574
 6803SOL    HW121094   7.123   0.844   5.158  0.2667 -0.2773 -0.8680
 6803SOL    HW221095   6.985   0.899   5.129  0.1578 -1.1056 -2.0024
 6804SOL     OW21096   5.101   2.305   4.246 -0.3500  0.5056 -0.1336
 6804SOL    HW121097   5.060   2.311   4.333 -0.7517  0.1571 -0.2963
 6804SOL    HW221098   5.195   2.304   4.264 -0.4440 -1.2543  0.4185
 6805SOL     OW21099   0.219   4.878   5.052  0.2464  0.0155  0.3823
 6805SOL    HW121100   0.311   4.864   5.075  0.4942  0.2122 -0.4364
 6805SOL    HW221101   0.190   4.793   5.018  0.2261  0.0433  0.3303
 6806SOL     OW21102   0.425   6.091   4.720  0.5212  0.1383 -0.2200
 6806SOL    HW121103   0.349   6.076   4.776  0.5512 -1.5523 -0.5728
 6806SOL    HW221104   0.388   6.127   4.639  0.1640 -0.0518 -0.1455
 6807SOL     OW21105   4.265   6.727   1.163  0.4645 -0.0499 -0.4650
 6807SOL    HW121106   4.219   6.810   1.150 -1.4400 -1.0577 -0.3659
 6807SOL    HW221107   4.199   6.666   1.194  1.6164 -1.8651 -1.3581
 6808SOL     OW21108   3.179   3.137   0.047 -0.4615  0.4836  0.2607
 6808SOL    HW121109   3.163   3.153   0.140 -0.8074 -0.2351  0.3315
 6808SOL    HW221110   3.164   3.043   0.035  3.1321 -0.2195  0.2118
 6809SOL     OW21111   5.155   4.935   7.386  0.0824 -0.4874 -0.2786
 6809SOL    HW121112   5.196   4.908   7.304  1.5651  0.2721  0.1656
 6809SOL    HW221113   5.209   5.009   7.416  0.4363 -1.5986  2.0486
 6810SOL     OW21114   7.602   6.578   6.955  0.6509 -0.2535 -0.2751
 6810SOL    HW121115   7.578   6.488   6.976 -1.6078 -0.2801 -2.4261
 6810SOL    HW221116   7.543   6.632   7.007  1.0401 -0.0686 -0.0256
 6811SOL     OW21117   4.926   0.362   5.646  0.4715  0.2105  0.0244
 6811SOL    HW121118   4.996   0.307   5.610  1.3906  0.5338  1.2439
 6811SOL    HW221119   4.933   0.444   5.598 -0.2596 -0.3557 -1.1072
 6812SOL     OW21120   4.678   3.901   4.865  0.1346 -0.5313 -0.3112
 6812SOL    HW121121   4.637   3.906   4.778  0.4776 -0.0169 -0.4493
 6812SOL    HW221122   4.607   3.877   4.924  0.1470 -2.1871 -0.9147
 6813SOL     OW21123   1.565   4.740   5.863 -0.2122  0.2320 -0.0829
 6813SOL    HW121124   1.481   4.718   5.905 -0.2972 -1.4362 -1.0742
 6813SOL    HW221125   1.540   4.792   5.787 -0.3016  0.2426 -0.0474
 6814SOL     OW21126   5.152   3.706   7.205  0.5556 -0.8042  0.0877
 6814SOL    HW121127   5.168   3.790   7.162  2.0391 -1.1310 -0.0509
 6814SOL    HW221128   5.067   3.717   7.247  0.7720  0.8099  0.1797
 6815SOL     OW21129   1.043   7.358   3.472 -0.2003  0.1041  0.9158
 6815SOL    HW121130   0.971   7.306   3.438  0.3520 -0.5751  0.7612
 6815SOL    HW221131   1.031   7.445   3.432 -1.2798  0.1857  1.3957
 6816SOL     OW21132   2.650   3.919   3.225  0.3561 -0.3189 -0.7575
 6816SOL    HW121133   2.622   3.831   3.199  2.2881 -1.4038  0.6161
 6816SOL    HW221134   2.625   3.975   3.151 -2.3885 -1.6710 -0.9928
 6817SOL     OW21135   6.180   6.055   1.737  0.1650  0.3968  0.2277
 6817SOL    HW121136   6.114   6.122   1.719  0.4811  0.7064  0.2208
 6817SOL    HW221137   6.248   6.069   1.672 -1.1140 -1.8194 -1.7306
 6818SOL     OW21138   2.300   5.568   0.598 -0.2545 -0.2609  0.2611
 6818SOL    HW121139   2.377   5.621   0.619  1.1035 -2.2698  0.6245
 6818SOL    HW221140   2.245   5.573   0.676  1.2197 -1.6051  1.4677
 6819SOL     OW21141   4.431   6.511   1.411 -0.4707  0.0928 -0.1843
 6819SOL    HW121142   4.418   6.463   1.492 -0.1671 -1.4170 -0.9988
 6819SOL    HW221143   4.524   6.535   1.412 -0.5293  0.3090  0.0354
 6820SOL     OW21144   1.948   6.550   0.649  1.1063 -0.2468 -0.2190
 6820SOL    HW121145   1.970   6.556   0.556  3.8015 -2.2148  0.1991
 6820SOL    HW221146   1.921   6.459   0.662 -0.5824  0.3260  0.7455
 6821SOL     OW21147   5.945   0.423   3.205  0.1745 -0.5333 -0.1072
 6821SOL    HW121148   6.025   0.474   3.192 -0.0290 -0.4548 -1.2144
 6821SOL    HW221149   5.874   0.485   3.186 -0.0931 -1.0217 -0.7368
 6822SOL     OW21150   2.990   6.829   2.092  0.0938 -0.0077  0.4744
 6822SOL    HW121151   2.999   6.880   2.172  0.9221  0.5885  0.0107
 6822SOL    HW221152   2.931   6.881   2.037  0.0353 -0.1059  0.4438
 6823SOL     OW21153   2.241   7.644   5.417  0.0339 -0.0150 -0.2223
 6823SOL    HW121154   2.242   7.626   5.323 -0.8951 -0.2554 -0.1910
 6823SOL    HW221155   2.333   7.649   5.441  0.2928  0.7086 -1.2722
 6824SOL     OW21156   1.071   4.080   0.030  0.2778  0.0833 -0.0729
 6824SOL    HW121157   1.111   3.994   0.040 -1.3978 -0.6836  0.3410
 6824SOL    HW221158   1.092   4.107  -0.060  2.4506  0.1447  0.4127
 6825SOL     OW21159   0.134   2.603   0.658 -0.4346  0.4232  0.3976
 6825SOL    HW121160   0.204   2.585   0.595 -0.8204  0.0193  0.0823
 6825SOL    HW221161   0.170   2.575   0.743 -0.2810  0.0663  0.2133
 6826SOL     OW21162   1.746   4.474   1.078 -0.2065  0.2175 -0.1224
 6826SOL    HW121163   1.818   4.536   1.067  0.3291 -0.8024 -3.2429
 6826SOL    HW221164   1.695   4.510   1.151  1.6815  2.6725  0.1373
 6827SOL     OW21165   3.480   2.155   5.839  0.5075  0.1073  0.3173
 6827SOL    HW121166   3.401   2.103   5.858  0.9545 -0.7368 -0.0942
 6827SOL    HW221167   3.462   2.194   5.753  0.1750  0.6522  0.6232
 6828SOL     OW21168   6.150   6.756   7.339  0.4716 -0.0987  0.0805
 6828SOL    HW121169   6.114   6.768   7.427  0.3322 -2.1365  0.3493
 6828SOL    HW221170   6.195   6.839   7.320 -0.6062  0.8739  1.5142
 6829SOL     OW21171   6.325   6.466   1.283 -0.2089  0.0150  0.8041
 6829SOL    HW121172   6.288   6.525   1.218 -0.7806  0.5073  1.5580
 6829SOL    HW221173   6.249   6.435   1.333  0.2094 -0.4176  1.1780
 6830SOL     OW21174   4.406   0.099   7.262 -0.1523 -0.4859 -0.1098
 6830SOL    HW121175   4.395   0.043   7.339 -2.2479  0.4278  0.3294
 6830SOL    HW221176   4.318   0.107   7.225  0.0489  2.4280 -0.1808
 6831SOL     OW21177   0.289   6.109   0.018  0.2250  0.1679 -0.0095
 6831SOL    HW121178   0.227   6.159   0.072 -1.2827  0.0692 -1.5620
 6831SOL    HW221179   0.364   6.167   0.009  0.0866  0.5928  1.3483
 6832SOL     OW21180   2.656   4.329   0.267  0.2305  0.3694 -0.4893
 6832SOL    HW121181   2.727   4.372   0.315  1.1550 -0.5292 -1.0138
 6832SOL    HW221182   2.603   4.401   0.232  1.7594  1.0930 -1.3817
 6833SOL     OW21183   4.517   2.870   1.587 -0.0541  0.5236  0.3098
 6833SOL    HW121184   4.500   2.900   1.498 -0.3237  1.7281  0.7497
 6833SOL    HW221185   4.585   2.928   1.620  0.7276 -0.5202  0.5768
 6834SOL     OW21186   7.382   1.570   1.141 -0.3003  0.2364 -0.6462
 6834SOL    HW121187   7.403   1.481   1.168 -2.3096 -0.4109 -1.0570
 6834SOL    HW221188   7.316   1.600   1.203  0.0884  1.3336 -0.7282
 6835SOL     OW21189   4.168   4.536   1.243  0.2549 -0.1326 -0.4203
 6835SOL    HW121190   4.181   4.466   1.306  3.0116 -0.2829 -1.0334
 6835SOL    HW221191   4.128   4.607   1.294  1.1848 -0.7153  1.2043
 6836SOL     OW21192   3.918   4.305   6.720  0.0108 -0.3686 -0.3507
 6836SOL    HW121193   3.941   4.284   6.629 -0.3686 -0.2691 -0.4704
 6836SOL    HW221194   3.964   4.239   6.772  0.4278 -0.2748 -0.5993
 6837SOL     OW21195   6.839   1.961   2.063 -0.0122  0.1508  0.3431
 6837SOL    HW121196   6.859   1.961   1.969 -1.9504 -0.7742 -0.1171
 6837SOL    HW221197   6.780   2.036   2.075  0.1218  0.1876  0.7941
 6838SOL     OW21198   2.515   1.037   2.109 -0.1288  0.3354 -0.0193
 6838SOL    HW121199   2.534   0.969   2.043 -0.6397 -0.2335  0.4104
 6838SOL    HW221200   2.600   1.078   2.125  0.1191  0.0522 -0.5685
 6839SOL     OW21201   3.629   3.669   2.840 -0.1939  0.1913 -0.4963
 6839SOL    HW121202   3.705   3.678   2.782 -0.8908  1.2467 -1.2721
 6839SOL    HW221203   3.629   3.748   2.893 -0.5606  0.0457 -0.2757
 6840SOL     OW21204   0.971   4.145   2.223 -0.2250 -0.3518 -0.0467
 6840SOL    HW121205   0.900   4.186   2.174 -0.5914 -2.4769 -1.4438
 6840SOL    HW221206   0.946   4.053   2.229  2.8940 -1.4713 -1.6986
 6841SOL     OW21207   4.375   1.566   6.174  0.5074 -0.3585 -0.1835
 6841SOL    HW121208   4.399   1.658   6.162  0.7505 -0.3070  0.6114
 6841SOL    HW221209   4.297   1.569   6.230  1.1994 -0.6530  0.8338
 6842SOL     OW21210   2.553   1.361   6.222 -0.1598 -1.0530 -0.5119
 6842SOL    HW121211   2.598   1.446   6.218 -0.3513 -0.9248 -0.0941
 6842SOL    HW221212   2.472   1.380   6.269  0.8579 -1.9103  1.7137
 6843SOL     OW21213   1.917   5.036   5.949  0.5021 -0.1986  0.7261
 6843SOL    HW121214   1.964   5.110   5.912  1.0225 -1.2391 -0.7751
 6843SOL    HW221215   1.985   4.972   5.972 -0.0368 -1.0392  0.0751
 6844SOL     OW21216   4.620   4.216   2.644  0.4807  0.1427  0.3911
 6844SOL    HW121217   4.691   4.152   2.642 -0.3651 -0.9325  2.2452
 6844SOL    HW221218   4.625   4.259   2.559  1.8183 -1.5811 -0.4806
 6845SOL     OW21219   4.484   6.625   4.388 -0.0969  0.1980 -0.3467
 6845SOL    HW121220   4.478   6.606   4.295  0.2728 -1.0474 -0.1359
 6845SOL    HW221221   4.433   6.705   4.400  1.3600  1.3951 -1.8887
 6846SOL     OW21222   4.254   2.680   0.788 -0.4173  0.0533  0.4535
 6846SOL    HW121223   4.182   2.743   0.794  0.0842  0.6081  0.7194
 6846SOL    HW221224   4.232   2.625   0.713 -1.0927  0.2487  0.5033
 6847SOL     OW21225   3.126   3.178   3.572  0.1989  0.4423 -0.0481
 6847SOL    HW121226   3.159   3.230   3.499 -0.5109 -0.5936 -1.1379
 6847SOL    HW221227   3.202   3.129   3.603  0.6419  1.3415  0.3317
 6848SOL     OW21228   3.251   4.578   6.293  0.5829  0.5892  0.8282
 6848SOL    HW121229   3.346   4.570   6.286  0.3728 -0.3734 -3.1051
 6848SOL    HW221230   3.231   4.660   6.249 -0.4911 -0.5384 -0.9255
 6849SOL     OW21231   5.442   2.029   1.373 -0.5960 -0.3856  0.6988
 6849SOL    HW121232   5.462   2.119   1.345  0.0076 -1.1879 -1.7418
 6849SOL    HW221233   5.395   2.039   1.455 -0.7336  2.1793  0.3886
 6850SOL     OW21234   1.878   4.147   1.666  0.0486  0.8302 -0.4139
 6850SOL    HW121235   1.793   4.103   1.669  0.4484 -0.1110 -1.8326
 6850SOL    HW221236   1.899   4.166   1.758 -0.2853 -1.6878  0.2604
 6851SOL     OW21237   0.908   1.994   1.926 -0.1367  0.1144  0.6653
 6851SOL    HW121238   0.856   1.924   1.966 -1.4896  2.6997  3.9916
 6851SOL    HW221239   0.992   1.990   1.972  1.2763 -1.4662 -1.7981
 6852SOL     OW21240   5.427   0.591   1.612  0.5069  0.5966  0.2521
 6852SOL    HW121241   5.332   0.596   1.602  0.2585  0.1026  2.0264
 6852SOL    HW221242   5.444   0.498   1.625  1.4646  0.4463 -1.7505
 6853SOL     OW21243   2.138   0.289   4.889  0.1529  0.2951  0.0529
 6853SOL    HW121244   2.170   0.354   4.827  1.2112  1.3677  1.6440
 6853SOL    HW221245   2.201   0.217   4.884 -0.9111 -0.5719 -1.5682
 6854SOL     OW21246   2.389   5.489   3.413 -0.0031  0.7231  0.2886
 6854SOL    HW121247   2.297   5.512   3.411 -0.0908  0.2989 -0.8288
 6854SOL    HW221248   2.391   5.398   3.442  0.0846  0.7892  0.4971
 6855SOL     OW21249   7.547   4.377   1.526  0.2411  0.2714 -0.1524
 6855SOL    HW121250   7.452   4.377   1.526  0.2402  0.5070 -0.1101
 6855SOL    HW221251   7.571   4.298   1.573  0.0689 -0.0748 -0.6377
 6856SOL     OW21252   3.336   0.938   1.645 -0.4642 -0.4365 -0.5125
 6856SOL    HW121253   3.358   0.935   1.552  0.2391 -0.8100 -0.3387
 6856SOL    HW221254   3.298   1.025   1.658  0.6499  0.1218 -0.8863
 6857SOL     OW21255   3.297   7.461   6.427 -0.3381  0.1563  0.2593
 6857SOL    HW121256   3.238   7.528   6.394 -0.2048  0.3511  0.4141
 6857SOL    HW221257   3.290   7.389   6.364 -0.1270  0.5011 -0.1540
 6858SOL     OW21258   0.244   4.186   0.688 -0.0799  0.2750  0.0815
 6858SOL    HW121259   0.272   4.271   0.657 -0.1180 -0.3055 -1.6387
 6858SOL    HW221260   0.170   4.162   0.632  0.6682 -1.3876 -0.2556
 6859SOL     OW21261   7.353   1.023   2.454 -0.0317  0.4896  0.0177
 6859SOL    HW121262   7.317   0.940   2.485  1.8534 -0.1794  0.5153
 6859SOL    HW221263   7.319   1.031   2.364  0.7174 -1.4295 -0.4891
 6860SOL     OW21264   2.422   0.040   6.404  0.5561 -0.1680 -0.2640
 6860SOL    HW121265   2.329   0.027   6.387  0.6237 -2.4826  0.7273
 6860SOL    HW221266   2.458   0.068   6.320 -0.7487 -1.0108 -1.1514
 6861SOL     OW21267   1.572   3.608   3.675  0.3040  0.3316 -0.7605
 6861SOL    HW121268   1.656   3.638   3.639 -0.4068  0.1743 -2.6361
 6861SOL    HW221269   1.579   3.513   3.677  0.8251  0.3685  0.8451
 6862SOL     OW21270   7.718   2.788   2.736 -0.4492  0.2722  0.1294
 6862SOL    HW121271   7.646   2.839   2.773 -0.8718 -0.8483  0.9050
 6862SOL    HW221272   7.697   2.697   2.758  1.8260 -0.0082  1.5011
 6863SOL     OW21273   1.425   1.533   2.871 -0.3112 -0.0146  0.3016
 6863SOL    HW121274   1.465   1.456   2.911 -0.9851 -0.3448  0.3514
 6863SOL    HW221275   1.462   1.537   2.783  2.4216  1.6184  1.3882
 6864SOL     OW21276   4.719   1.741   4.020 -0.5103  0.5349  0.7857
 6864SOL    HW121277   4.654   1.808   3.999 -0.2422  0.7480  0.6341
 6864SOL    HW221278   4.803   1.781   3.998 -0.4718 -0.6819 -1.7164
 6865SOL     OW21279   6.017   0.296   5.256 -0.2745  0.1185  0.6460
 6865SOL    HW121280   6.079   0.244   5.206  0.1848  0.1857  1.1415
 6865SOL    HW221281   5.950   0.234   5.284 -0.3101  0.0033  0.3065
 6866SOL     OW21282   4.168   5.189   6.683 -0.2648 -0.0370 -0.0134
 6866SOL    HW121283   4.126   5.138   6.752 -3.7878  2.3111 -0.1673
 6866SOL    HW221284   4.115   5.172   6.605  1.8917 -0.3722 -1.4983
 6867SOL     OW21285   5.649   3.581   5.826  0.0630 -0.1121  0.4148
 6867SOL    HW121286   5.640   3.676   5.818  0.5904 -0.0613  0.3665
 6867SOL    HW221287   5.744   3.566   5.825 -0.0256 -0.7957 -1.4980
 6868SOL     OW21288   4.140   1.345   5.599 -0.1140  0.3449 -0.0985
 6868SOL    HW121289   4.047   1.358   5.580 -0.5209  0.3915  1.7390
 6868SOL    HW221290   4.149   1.366   5.692  1.7829  0.5305 -0.2856
 6869SOL     OW21291   3.660   0.030   2.975  0.3092 -1.1492  0.1776
 6869SOL    HW121292   3.740  -0.019   2.955  1.5316  0.9329 -0.3696
 6869SOL    HW221293   3.684   0.084   3.050 -1.1240 -1.6650  1.0281
 6870SOL     OW21294   0.582   3.433   2.990  0.0201 -0.2347 -0.1993
 6870SOL    HW121295   0.532   3.381   3.053 -0.6631 -0.7390 -1.1289
 6870SOL    HW221296   0.672   3.430   3.021 -0.4869  0.5517  1.4223
 6871SOL     OW21297   6.409   6.439   5.373  0.4200 -0.6047 -0.6103
 6871SOL    HW121298   6.440   6.528   5.390 -1.4022  0.7077 -3.4550
 6871SOL    HW221299   6.489   6.387   5.365  1.5964  1.1165 -0.5295
 6872SOL     OW21300   5.064   2.592   2.368  0.3337  0.5605 -0.0814
 6872SOL    HW121301   5.044   2.554   2.283 -0.5205 -0.3422  0.5024
 6872SOL    HW221302   5.156   2.617   2.362 -0.1266  2.0674 -1.8317
 6873SOL     OW21303   0.088   7.196   3.320  0.3469  0.2731 -0.2395
 6873SOL    HW121304   0.082   7.148   3.237 -1.1565  1.4980 -0.8689
 6873SOL    HW221305   0.151   7.266   3.303 -1.8626  2.1467 -1.2626
 6874SOL     OW21306   0.811   1.420   0.959  0.3483 -0.2083 -0.5949
 6874SOL    HW121307   0.785   1.508   0.985  0.3125 -0.4718  0.3010
 6874SOL    HW221308   0.794   1.416   0.865  0.7607  0.8808 -0.7274
 6875SOL     OW21309   1.572   4.456   7.678  0.2329  0.4485 -0.2066
 6875SOL    HW121310   1.479   4.444   7.701  0.4609 -2.2138 -0.3385
 6875SOL    HW221311   1.578   4.547   7.651 -1.9288  1.2672  1.6898
 6876SOL     OW21312   4.990   5.929   7.272  0.0955  0.0549  0.1024
 6876SOL    HW121313   4.935   5.971   7.337  0.1081 -0.4742  0.4561
 6876SOL    HW221314   4.989   5.836   7.295  1.7251  0.1174  0.5772
 6877SOL     OW21315   4.258   3.364   6.092  0.2988  0.1120  0.5360
 6877SOL    HW121316   4.234   3.282   6.136 -1.4835 -0.3404 -1.1497
 6877SOL    HW221317   4.175   3.411   6.082  0.8793  0.8992 -0.9102
 6878SOL     OW21318   2.662   6.699   4.827  0.0586 -0.5628  0.0417
 6878SOL    HW121319   2.657   6.790   4.796  1.5014 -0.5483 -0.2155
 6878SOL    HW221320   2.577   6.662   4.805  0.3331 -0.0090 -2.2445
 6879SOL     OW21321   5.510   1.391   4.996 -0.3084 -0.0514  0.2328
 6879SOL    HW121322   5.596   1.383   5.037 -0.1557  0.0550 -0.0619
 6879SOL    HW221323   5.513   1.476   4.952  0.4741 -1.2033 -2.1235
 6880SOL     OW21324   0.660   0.629   4.468  0.2092  0.2223  0.1421
 6880SOL    HW121325   0.617   0.552   4.507 -0.5436 -0.2723 -1.5629
 6880SOL    HW221326   0.730   0.592   4.414 -0.7270  0.6162 -1.4121
 6881SOL     OW21327   6.226   7.700   7.506 -0.3624  0.3205  0.1162
 6881SOL    HW121328   6.193   7.617   7.473 -0.0121 -0.4850  1.7199
 6881SOL    HW221329   6.165   7.765   7.470 -2.8684 -0.9678  1.7203
 6882SOL     OW21330   0.605   7.045   4.173 -0.3741 -0.0343  0.1217
 6882SOL    HW121331   0.513   7.072   4.165  0.0969  1.4236 -0.5440
 6882SOL    HW221332   0.654   7.126   4.176  1.0085 -0.8025 -0.6643
 6883SOL     OW21333   5.206   5.527   7.663 -0.0167 -0.1078  0.1734
 6883SOL    HW121334   5.256   5.571   7.594  0.1055 -0.8551 -0.2236
 6883SOL    HW221335   5.219   5.581   7.740  0.2178  0.4931 -0.2795
 6884SOL     OW21336   5.815   4.100   7.033  0.1754 -0.1885  0.1753
 6884SOL    HW121337   5.859   4.039   6.974  0.4953 -1.8269  2.0241
 6884SOL    HW221338   5.884   4.163   7.057 -0.0353  0.6832 -1.3541
 6885SOL     OW21339   2.868   6.064   4.031  0.1274 -0.1238 -0.1349
 6885SOL    HW121340   2.777   6.044   4.055 -0.3505  2.7149  0.8168
 6885SOL    HW221341   2.861   6.139   3.972  1.8660  0.0872 -0.1100
 6886SOL     OW21342   6.389   5.847   0.204 -0.5466 -0.1316  0.0216
 6886SOL    HW121343   6.476   5.825   0.172 -1.1092  0.9722 -2.5052
 6886SOL    HW221344   6.393   5.941   0.224 -1.3662  0.1430 -1.0095
 6887SOL     OW21345   4.196   1.673   6.362 -0.3438  0.0034  0.0396
 6887SOL    HW121346   4.121   1.651   6.416  0.9272 -1.8166  1.1688
 6887SOL    HW221347   4.260   1.710   6.422  0.4529 -0.4380 -0.5172
 6888SOL     OW21348   2.266   0.727   6.312  0.5170  0.1948 -0.2623
 6888SOL    HW121349   2.315   0.674   6.249 -0.6079 -0.6781 -0.4405
 6888SOL    HW221350   2.231   0.799   6.260  0.4372  0.0398 -0.4235
 6889SOL     OW21351   0.999   2.512   7.120 -0.1969  0.1585  0.2811
 6889SOL    HW121352   0.925   2.476   7.169  0.9188 -0.6229  1.4670
 6889SOL    HW221353   0.987   2.606   7.124 -0.0363  0.1367  2.3260
 6890SOL     OW21354   0.688   2.697   2.314 -0.0200 -0.7697  0.6894
 6890SOL    HW121355   0.624   2.722   2.380 -0.3901 -0.0819  0.0752
 6890SOL    HW221356   0.761   2.659   2.365 -0.3584 -0.3871  1.4739
 6891SOL     OW21357   4.079   5.040   0.650  0.2802  0.5467  0.0690
 6891SOL    HW121358   4.039   5.028   0.736  0.8027 -2.7510 -0.0268
 6891SOL    HW221359   4.172   5.020   0.664  0.2269 -0.8702 -1.3625
 6892SOL     OW21360   5.013   6.607   1.970 -0.0428  0.7935  0.2297
 6892SOL    HW121361   5.030   6.541   1.903 -2.1462 -0.8640  1.1898
 6892SOL    HW221362   4.952   6.667   1.928 -1.2880 -0.1909  0.5705
 6893SOL     OW21363   3.190   2.285   0.854 -0.3347 -0.6736 -0.1623
 6893SOL    HW121364   3.281   2.312   0.841  0.0446 -1.3612  0.9194
 6893SOL    HW221365   3.195   2.215   0.920 -1.6694 -0.5827  0.0608
 6894SOL     OW21366   2.323   0.435   0.191  0.1372 -0.2340 -0.0963
 6894SOL    HW121367   2.270   0.370   0.145 -1.6260  0.8627  0.2847
 6894SOL    HW221368   2.380   0.472   0.124  0.1852 -1.1954 -0.5989
 6895SOL     OW21369   2.310   6.990   1.099 -0.4373 -0.4512 -0.5077
 6895SOL    HW121370   2.238   6.985   1.161  1.2419  0.6215  1.6794
 6895SOL    HW221371   2.359   7.068   1.125  2.1063 -1.7093 -1.1786
 6896SOL     OW21372   5.183   5.225   3.950 -0.2026 -0.3287  0.3349
 6896SOL    HW121373   5.172   5.318   3.970  0.1523  0.0570 -1.1196
 6896SOL    HW221374   5.132   5.180   4.017 -1.3453  0.9593  0.3828
 6897SOL     OW21375   4.269   2.871   3.462 -0.5781  0.0709 -0.0394
 6897SOL    HW121376   4.207   2.944   3.467  0.4774  1.0479 -1.0234
 6897SOL    HW221377   4.310   2.879   3.376  2.3940  0.6878  1.3009
 6898SOL     OW21378   1.054   1.369   4.157  0.7952 -0.0714  0.6344
 6898SOL    HW121379   1.076   1.313   4.082 -0.4712  0.0292  0.1612
 6898SOL    HW221380   0.962   1.349   4.175  0.6917  0.9268  1.2804
 6899SOL     OW21381   1.678   1.128   4.672 -0.1618 -0.2864  0.0297
 6899SOL    HW121382   1.653   1.193   4.606  1.6929 -0.1587 -0.5984
 6899SOL    HW221383   1.732   1.065   4.624  1.6271  0.0629  1.4863
 6900SOL     OW21384   3.267   0.828   0.254  0.1607  0.7302  0.3302
 6900SOL    HW121385   3.215   0.901   0.221 -0.8962 -0.6286 -1.1246
 6900SOL    HW221386   3.318   0.799   0.179  1.4337  0.6627  1.1937
 6901SOL     OW21387   5.631   2.683   3.112 -0.4413  0.2063 -0.5403
 6901SOL    HW121388   5.703   2.707   3.171 -1.0062  0.2664  0.1374
 6901SOL    HW221389   5.671   2.624   3.048 -0.2554 -1.6908  1.2194
 6902SOL     OW21390   3.711   2.233   7.212 -0.0830  0.1977  0.0996
 6902SOL    HW121391   3.770   2.274   7.148 -1.3627 -1.5704 -2.4244
 6902SOL    HW221392   3.687   2.304   7.272  1.0937  2.0345 -1.4753
 6903SOL     OW21393   4.746   2.253   0.516  0.5415 -0.1229 -0.2386
 6903SOL    HW121394   4.736   2.189   0.587  0.6532  0.0002 -0.1110
 6903SOL    HW221395   4.670   2.238   0.459 -0.7056  1.1862  1.0118
 6904SOL     OW21396   4.439   3.288   6.722 -0.7928  0.7678  0.0681
 6904SOL    HW121397   4.481   3.277   6.637  0.6610  0.8534  0.7563
 6904SOL    HW221398   4.380   3.363   6.709 -0.9080  0.5129 -0.9710
 6905SOL     OW21399   5.913   3.060   0.796  0.2669  0.2962 -0.0238
 6905SOL    HW121400   5.846   3.032   0.858  0.1939 -0.0574 -0.2611
 6905SOL    HW221401   5.970   2.984   0.787  1.7642  1.1497  1.5583
 6906SOL     OW21402   6.441   7.285   2.997  0.2887 -0.1157  0.2768
 6906SOL    HW121403   6.424   7.193   3.018 -1.4077 -0.6101 -2.6938
 6906SOL    HW221404   6.437   7.331   3.081 -0.6762 -2.4810  1.6048
 6907SOL     OW21405   2.563   0.152   4.503  0.3208  0.1148  0.1064
 6907SOL    HW121406   2.636   0.148   4.442  0.4312 -0.2317  0.2587
 6907SOL    HW221407   2.499   0.089   4.467 -0.1729  0.8701 -0.3739
 6908SOL     OW21408   1.989   4.505   3.542  0.8161 -0.4485 -0.2021
 6908SOL    HW121409   1.959   4.447   3.612  0.8030 -2.7066 -1.9916
 6908SOL    HW221410   2.023   4.582   3.589 -0.9267 -1.0044  2.1804
 6909SOL     OW21411   3.323   3.331   6.893 -0.2102 -0.5012  0.5512
 6909SOL    HW121412   3.386   3.386   6.939 -0.4126  0.2926 -0.1050
 6909SOL    HW221413   3.316   3.252   6.947 -0.3539  0.3519  1.8022
 6910SOL     OW21414   5.550   0.015   7.206  0.1712 -0.1125  0.5063
 6910SOL    HW121415   5.497  -0.004   7.129  1.2524 -1.2516  0.0106
 6910SOL    HW221416   5.487   0.043   7.272 -0.8994 -0.1958 -0.4490
 6911SOL     OW21417   2.223   6.366   6.634 -0.1003  0.2004 -0.4353
 6911SOL    HW121418   2.268   6.309   6.571 -0.9355  0.6195 -1.4412
 6911SOL    HW221419   2.268   6.350   6.717  0.1968 -1.3285 -0.8556
 6912SOL     OW21420   5.238   5.234   3.689 -0.1176 -0.4755 -0.3069
 6912SOL    HW121421   5.217   5.215   3.781 -1.3436 -3.3693 -1.0628
 6912SOL    HW221422   5.297   5.164   3.663 -1.2216 -0.7786 -2.1760
 6913SOL     OW21423   3.743   3.026   0.427 -0.0884 -0.6457  0.3082
 6913SOL    HW121424   3.775   3.078   0.501 -0.6564 -0.6099  0.5305
 6913SOL    HW221425   3.810   2.958   0.416  1.3451  0.8670 -0.8121
 6914SOL     OW21426   1.271   1.184   0.609  0.4101  0.1114  0.1358
 6914SOL    HW121427   1.349   1.132   0.591 -0.8800 -1.8133 -0.2612
 6914SOL    HW221428   1.244   1.218   0.524  0.8084  0.8136  0.2794
 6915SOL     OW21429   7.641   7.024   0.450 -0.1707 -0.4027 -0.3120
 6915SOL    HW121430   7.653   7.089   0.381 -0.6415  1.4079  1.2208
 6915SOL    HW221431   7.694   7.057   0.523 -0.2155 -1.9069  0.4433
 6916SOL     OW21432   0.596   4.753   2.768  0.0612 -0.7694  1.0670
 6916SOL    HW121433   0.620   4.792   2.852  3.0814 -0.7477  0.3099
 6916SOL    HW221434   0.534   4.683   2.790  0.7290 -0.7276  3.2938
 6917SOL     OW21435   0.838   1.857   6.730 -0.0525 -0.1469 -0.6793
 6917SOL    HW121436   0.925   1.818   6.729  0.5171  1.0380  0.1567
 6917SOL    HW221437   0.785   1.799   6.675  0.6113 -2.3021  0.8407
 6918SOL     OW21438   3.536   0.282   3.874 -0.3415  0.4172 -0.5615
 6918SOL    HW121439   3.608   0.302   3.813  0.3214 -1.1052 -0.3380
 6918SOL    HW221440   3.481   0.220   3.826 -0.0215 -0.5009  0.2248
 6919SOL     OW21441   1.669   5.290   1.388 -0.0549  0.5462  0.0896
 6919SOL    HW121442   1.668   5.275   1.293  0.7789 -0.5216  0.2168
 6919SOL    HW221443   1.579   5.313   1.411  0.4002  4.6909 -1.4842
 6920SOL     OW21444   3.232   2.936   2.033 -0.0271 -0.3580  0.2395
 6920SOL    HW121445   3.143   2.936   1.998  0.2158  0.6197 -0.4148
 6920SOL    HW221446   3.288   2.957   1.958  0.7025 -0.3972  0.7563
 6921SOL     OW21447   1.950   4.707   5.118 -0.4841  0.0271 -0.7349
 6921SOL    HW121448   1.908   4.620   5.118 -1.1452  0.2620  1.8395
 6921SOL    HW221449   2.037   4.691   5.153 -0.9484  0.4911  0.6971
 6922SOL     OW21450   0.853   5.857   1.607 -0.5287  0.2056  0.0555
 6922SOL    HW121451   0.912   5.803   1.660 -3.2522 -0.4731  2.7118
 6922SOL    HW221452   0.864   5.946   1.640 -0.6927  0.1425  0.2840
 6923SOL     OW21453   7.480   7.295   1.322  0.5071  0.1832 -0.0449
 6923SOL    HW121454   7.465   7.296   1.227  0.7432  1.3986 -0.0905
 6923SOL    HW221455   7.466   7.204   1.348  2.2586 -0.5787 -1.5550
 6924SOL     OW21456   2.943   2.280   7.603 -0.2115 -0.1562  0.0211
 6924SOL    HW121457   2.899   2.365   7.597  0.9277  0.4619  0.0999
 6924SOL    HW221458   2.897   2.234   7.673  0.3588  1.1745  1.3389
 6925SOL     OW21459   1.249   7.501   6.440  0.7576  0.4483 -0.5002
 6925SOL    HW121460   1.325   7.519   6.496 -0.3735  1.9215  0.6710
 6925SOL    HW221461   1.175   7.495   6.501 -0.0131 -1.6751 -1.5349
 6926SOL     OW21462   5.544   7.251   1.699  0.1990 -0.4663  0.3683
 6926SOL    HW121463   5.589   7.179   1.657  2.7435  1.4459 -0.4611
 6926SOL    HW221464   5.606   7.284   1.764 -0.9019  0.8970  0.8032
 6927SOL     OW21465   2.934   5.152   5.378 -0.4419  0.7048  0.5000
 6927SOL    HW121466   2.966   5.238   5.350 -1.0445  0.6289 -0.4390
 6927SOL    HW221467   2.874   5.171   5.450  1.5066  0.8620  2.2072
 6928SOL     OW21468   5.091   7.409   7.142 -0.5806 -0.0176 -0.7021
 6928SOL    HW121469   5.113   7.330   7.091 -0.0415 -0.1696 -0.2451
 6928SOL    HW221470   5.155   7.410   7.213 -2.0406 -0.4794  0.6981
 6929SOL     OW21471   0.691   2.644   6.491 -0.2304  0.1269  0.5493
 6929SOL    HW121472   0.611   2.651   6.544 -1.0520 -0.1038 -0.6288
 6929SOL    HW221473   0.747   2.714   6.524 -1.1643  0.7035  0.9715
 6930SOL     OW21474   3.733   2.795   5.798 -0.4328  0.0376 -0.2618
 6930SOL    HW121475   3.726   2.701   5.783  1.6670 -0.2484  0.1352
 6930SOL    HW221476   3.762   2.802   5.890 -0.7558  1.0693 -0.2323
 6931SOL     OW21477   0.916   5.057   3.570  0.7092 -0.0871 -0.0058
 6931SOL    HW121478   0.912   5.057   3.666 -1.3983 -0.3595 -0.0431
 6931SOL    HW221479   0.924   5.149   3.547  2.2339 -0.0796  0.4106
 6932SOL     OW21480   0.205   3.083   1.399 -0.2211 -0.2789  0.1081
 6932SOL    HW121481   0.255   3.105   1.320  1.5921 -1.6572  0.8045
 6932SOL    HW221482   0.153   3.162   1.417 -0.2944  0.2529 -2.1379
 6933SOL     OW21483   0.506   1.755   1.014 -0.0820  0.2272 -0.0235
 6933SOL    HW121484   0.568   1.698   1.060 -0.0243  0.1792 -0.1606
 6933SOL    HW221485   0.536   1.755   0.923 -0.5820 -0.2022 -0.1886
 6934SOL     OW21486   1.066   3.768   3.863 -0.0844 -0.3078 -0.2963
 6934SOL    HW121487   1.088   3.723   3.782 -1.8510 -1.2483 -0.3106
 6934SOL    HW221488   0.998   3.713   3.903 -0.1777  0.8125  1.1699
 6935SOL     OW21489   6.046   3.640   3.808  0.1880 -0.5019 -1.1145
 6935SOL    HW121490   6.005   3.584   3.874  2.6114  0.1072  1.0492
 6935SOL    HW221491   6.051   3.726   3.849  2.0296 -0.1730 -1.9452
 6936SOL     OW21492   1.092   7.040   5.929  0.3110 -0.1683  0.8935
 6936SOL    HW121493   1.092   7.097   6.006  0.8422 -1.0212  1.5432
 6936SOL    HW221494   1.064   7.097   5.858 -3.4526 -0.0970  2.2153
 6937SOL     OW21495   0.039   2.053   0.412  0.5521  0.7580  0.1597
 6937SOL    HW121496   0.119   2.087   0.372 -0.7540  2.3675 -1.1989
 6937SOL    HW221497  -0.024   2.048   0.341 -0.7561  0.0866  1.3144
 6938SOL     OW21498   1.877   1.165   4.859  0.2708  0.1774  0.1503
 6938SOL    HW121499   1.796   1.175   4.808  1.8464  0.5725 -2.4364
 6938SOL    HW221500   1.896   1.253   4.891 -0.1204  0.1457  0.4832
 6939SOL     OW21501   4.407   7.486   5.712 -0.3305  0.4304  0.1259
 6939SOL    HW121502   4.468   7.471   5.640  0.1265 -0.2147  0.6249
 6939SOL    HW221503   4.366   7.400   5.727 -1.6547  0.9349 -0.4396
 6940SOL     OW21504   7.163   1.105   2.672 -0.1351  0.2724 -0.1748
 6940SOL    HW121505   7.079   1.060   2.672 -1.2596  2.1269 -2.5583
 6940SOL    HW221506   7.163   1.155   2.591  2.1586  2.3873  0.9886
 6941SOL     OW21507   1.310   1.863   3.620  0.0481  0.0341 -0.4240
 6941SOL    HW121508   1.234   1.907   3.581 -1.2180  0.2859  2.0940
 6941SOL    HW221509   1.386   1.904   3.578 -1.1558 -0.2246 -3.0261
 6942SOL     OW21510   7.010   5.129   3.661  0.2958  0.6002  0.3379
 6942SOL    HW121511   6.917   5.148   3.646  0.0819 -0.2535  0.5186
 6942SOL    HW221512   7.056   5.182   3.596 -0.3629  0.4186 -0.2887
 6943SOL     OW21513   1.105   4.256   4.242  0.1967 -0.2650  0.6994
 6943SOL    HW121514   1.123   4.221   4.155  2.8660  0.8736  0.7048
 6943SOL    HW221515   1.072   4.182   4.292  0.5646 -1.4266 -0.7228
 6944SOL     OW21516   5.506   0.889   2.945  0.2117 -0.5857  0.2181
 6944SOL    HW121517   5.572   0.829   2.911 -0.3467  0.1283 -2.3505
 6944SOL    HW221518   5.540   0.976   2.926 -0.0465 -0.0975  1.8059
 6945SOL     OW21519   2.452   1.268   3.341 -0.4956  0.2408 -0.0164
 6945SOL    HW121520   2.388   1.314   3.395 -1.5821 -0.5588 -0.5742
 6945SOL    HW221521   2.444   1.176   3.368 -0.8097 -0.1142 -1.2615
 6946SOL     OW21522   5.960   5.241   2.549  0.5017 -0.0145  0.0095
 6946SOL    HW121523   5.913   5.184   2.610 -0.7632  0.3384 -0.5840
 6946SOL    HW221524   5.977   5.321   2.599 -0.2854  0.1681 -0.0016
 6947SOL     OW21525   1.785   4.263   5.450  0.4651 -0.0159  0.4184
 6947SOL    HW121526   1.867   4.310   5.435  0.4323  0.4631  1.6266
 6947SOL    HW221527   1.717   4.323   5.418  0.5412 -0.0757  0.1455
 6948SOL     OW21528   1.897   2.079   6.816 -0.4382 -0.4034  0.3495
 6948SOL    HW121529   1.801   2.073   6.816 -0.5425  0.9658  0.5943
 6948SOL    HW221530   1.916   2.148   6.879  0.6230  0.5231 -0.9356
 6949SOL     OW21531   3.716   1.519   7.775 -0.3002  0.3048  0.4794
 6949SOL    HW121532   3.769   1.446   7.806 -1.1243 -0.2304  0.6503
 6949SOL    HW221533   3.780   1.587   7.752  0.4484 -0.2946  0.7530
 6950SOL     OW21534   1.537   0.154   4.583 -0.3392 -0.0230  0.4746
 6950SOL    HW121535   1.460   0.110   4.620 -0.0036 -1.5162 -0.4874
 6950SOL    HW221536   1.610   0.100   4.611  0.3731  1.3532  1.3321
 6951SOL     OW21537   6.608   7.129   2.695 -0.1995  0.7100 -0.2892
 6951SOL    HW121538   6.607   7.173   2.611 -0.2827  0.2000 -0.5622
 6951SOL    HW221539   6.573   7.193   2.757  3.0844  2.3878  0.0277
 6952SOL     OW21540   6.010   1.740   5.841 -0.0989  0.6479 -0.0055
 6952SOL    HW121541   6.070   1.745   5.767 -0.9559  0.8791 -0.6949
 6952SOL    HW221542   6.032   1.657   5.884  1.9822  1.5933  0.8782
 6953SOL     OW21543   3.573   4.936   7.671 -0.5783 -0.7301 -0.1079
 6953SOL    HW121544   3.502   4.905   7.614 -0.4203 -1.2271 -0.0338
 6953SOL    HW221545   3.545   5.024   7.697 -0.2581 -0.1391 -1.6424
 6954SOL     OW21546   0.053   6.764   2.578 -0.0805 -0.0957 -0.8911
 6954SOL    HW121547   0.057   6.740   2.485 -1.7175  1.1763 -1.3526
 6954SOL    HW221548   0.047   6.859   2.577 -0.7233 -0.1039  0.4903
 6955SOL     OW21549   1.528   5.282   0.415 -0.3518 -0.3993  0.5546
 6955SOL    HW121550   1.518   5.324   0.501  1.9508  1.5148 -0.0022
 6955SOL    HW221551   1.602   5.222   0.427 -1.4420 -1.8407  0.4182
 6956SOL     OW21552   2.012   5.129   1.821 -0.1172 -0.4028  0.2448
 6956SOL    HW121553   1.945   5.133   1.754  0.3171  0.0478 -0.1722
 6956SOL    HW221554   1.971   5.165   1.899 -0.3307 -0.0433 -0.0314
 6957SOL     OW21555   4.276   2.092   7.170  0.0820 -0.0115 -0.2645
 6957SOL    HW121556   4.252   2.171   7.219 -2.1198 -1.4775  1.2242
 6957SOL    HW221557   4.361   2.066   7.205  0.4283  1.2305 -0.1646
 6958SOL     OW21558   2.481   0.608   5.757 -0.4405 -0.4201 -1.5211
 6958SOL    HW121559   2.572   0.588   5.782 -0.8618  0.3390  0.9459
 6958SOL    HW221560   2.485   0.698   5.725 -0.5227  0.3264  0.3979
 6959SOL     OW21561   2.970   4.969   1.314  0.8277  0.1924  0.0579
 6959SOL    HW121562   2.998   5.012   1.395  1.8090 -2.6143  1.3388
 6959SOL    HW221563   2.962   4.876   1.337  1.9725 -0.8940 -3.2801
 6960SOL     OW21564   0.708   5.237   6.591 -0.8876 -0.1725 -0.6133
 6960SOL    HW121565   0.687   5.206   6.679 -0.5583  0.1156 -0.4295
 6960SOL    HW221566   0.692   5.331   6.594 -3.0782 -0.4654 -1.5157
 6961SOL     OW21567   2.019   4.737   3.687  0.3303  0.4182 -0.0155
 6961SOL    HW121568   1.927   4.755   3.669  0.5725  0.8716 -0.8571
 6961SOL    HW221569   2.027   4.747   3.782 -0.5939 -0.1662  0.1309
 6962SOL     OW21570   2.628   6.712   6.168 -0.0859  0.0192  0.1643
 6962SOL    HW121571   2.651   6.619   6.173 -0.5830 -0.0486  1.6816
 6962SOL    HW221572   2.705   6.753   6.129  1.4178 -0.6384  2.2640
 6963SOL     OW21573   4.730   5.228   7.120 -0.4734  0.0464  0.1474
 6963SOL    HW121574   4.770   5.179   7.191  0.8545  0.1480 -0.4962
 6963SOL    HW221575   4.799   5.287   7.089 -1.0558  0.1086 -1.1163
 6964SOL     OW21576   1.763   0.768   6.406 -0.2423 -0.4012 -0.3026
 6964SOL    HW121577   1.843   0.733   6.445  0.3295  1.4404  0.3034
 6964SOL    HW221578   1.791   0.850   6.366 -2.1205  1.2371  1.5178
 6965SOL     OW21579   6.763   6.434   3.096  0.4469  0.2713 -0.4671
 6965SOL    HW121580   6.701   6.413   3.025  1.1303  0.8460 -1.2603
 6965SOL    HW221581   6.743   6.371   3.165  0.2878 -0.8216 -1.4830
 6966SOL     OW21582   3.233   1.050   0.053 -0.1662 -0.2150  0.5988
 6966SOL    HW121583   3.328   1.047   0.040 -0.3515  0.0859 -0.9949
 6966SOL    HW221584   3.203   1.117  -0.008 -1.4336 -0.4352  0.9687
 6967SOL     OW21585   5.471   4.661   0.380 -0.0380  0.2930 -0.0060
 6967SOL    HW121586   5.556   4.703   0.370  0.2705 -0.8259 -3.0302
 6967SOL    HW221587   5.408   4.731   0.360  0.1421  0.9667  1.6417
 6968SOL     OW21588   2.569   1.946   5.636 -0.4217 -0.0158 -0.1403
 6968SOL    HW121589   2.653   1.970   5.675 -1.3196  3.0590  0.1528
 6968SOL    HW221590   2.530   1.885   5.700  0.1301  1.2533  1.4909
 6969SOL     OW21591   4.593   1.537   7.081 -0.1149  0.3202  0.5349
 6969SOL    HW121592   4.516   1.587   7.108 -0.2907 -0.3878  1.3990
 6969SOL    HW221593   4.572   1.505   6.994 -0.4925  0.7400  0.4673
 6970SOL     OW21594   2.973   4.666   4.850  0.1818  0.1214  0.1133
 6970SOL    HW121595   2.947   4.597   4.910 -2.9483  0.9849 -0.0713
 6970SOL    HW221596   3.005   4.736   4.907 -1.4580  0.4036  0.7524
 6971SOL     OW21597   5.072   4.420   3.065  0.0097 -0.1459 -0.0090
 6971SOL    HW121598   4.977   4.417   3.076  0.1125  0.2958  1.0689
 6971SOL    HW221599   5.098   4.329   3.054 -0.4198 -0.3732  0.7920
 6972SOL     OW21600   6.188   2.052   5.590 -0.7616 -0.1426  0.1628
 6972SOL    HW121601   6.218   1.976   5.640  0.7888  0.0079 -0.4632
 6972SOL    HW221602   6.196   2.126   5.651  1.1299  0.0419 -0.2453
 6973SOL     OW21603   4.707   4.532   7.727  0.0708 -0.2724  0.1572
 6973SOL    HW121604   4.777   4.593   7.750 -0.1302  0.0078  0.0404
 6973SOL    HW221605   4.663   4.573   7.652  0.6293 -1.1155 -0.6385
 6974SOL     OW21606   3.870   7.281   7.548  0.0811 -0.0311 -0.0471
 6974SOL    HW121607   3.937   7.347   7.566  0.0034  0.3819 -1.2068
 6974SOL    HW221608   3.882   7.259   7.455 -1.0457 -0.3461 -0.1317
 6975SOL     OW21609   7.517   6.284   6.047  0.1169  0.2021 -0.1935
 6975SOL    HW121610   7.476   6.367   6.072  0.2436  0.2887 -0.2687
 6975SOL    HW221611   7.447   6.219   6.054  0.0726  0.2791  0.0777
 6976SOL     OW21612   5.958   4.860   0.161  0.3103 -0.2561 -0.4473
 6976SOL    HW121613   5.893   4.927   0.182 -1.2587 -1.5933 -0.8440
 6976SOL    HW221614   5.934   4.831   0.073  1.9772 -0.2262 -0.9502
 6977SOL     OW21615   6.450   2.329   4.926  0.1282  0.7853  0.0223
 6977SOL    HW121616   6.479   2.382   4.851 -0.7589  2.1192  0.5898
 6977SOL    HW221617   6.419   2.393   4.990  0.8196 -0.3384  1.5261
 6978SOL     OW21618   0.318   0.585   1.169  0.0109 -0.0919  0.4337
 6978SOL    HW121619   0.242   0.532   1.145 -2.0707  2.6101  0.5532
 6978SOL    HW221620   0.335   0.638   1.090  0.5411  0.6624  1.0424
 6979SOL     OW21621   5.148   0.176   0.222  0.2722 -0.2767  0.2133
 6979SOL    HW121622   5.208   0.239   0.183 -0.4167  0.7522  0.7555
 6979SOL    HW221623   5.083   0.159   0.154 -0.7611  1.2922  0.7329
 6980SOL     OW21624   4.141   3.434   5.848 -0.1510 -0.8809  0.5340
 6980SOL    HW121625   4.209   3.379   5.887 -1.2857 -2.0183  0.9782
 6980SOL    HW221626   4.138   3.406   5.756  1.3186  0.5713  0.0095
 6981SOL     OW21627   2.286   4.864   2.608  0.0927 -0.5663  0.2220
 6981SOL    HW121628   2.289   4.959   2.600  0.1158 -0.6738 -1.2240
 6981SOL    HW221629   2.195   4.841   2.588  0.5004 -0.9763 -1.2362
 6982SOL     OW21630   5.817   3.978   1.063 -0.0273  0.3366 -0.1360
 6982SOL    HW121631   5.897   3.937   1.096  0.4955  1.6908  0.3410
 6982SOL    HW221632   5.796   3.929   0.983  1.6124  0.3584 -0.6092
 6983SOL     OW21633   6.391   1.849   6.222  0.2976 -0.2231  0.5850
 6983SOL    HW121634   6.351   1.914   6.165 -1.0400 -0.5002  1.1648
 6983SOL    HW221635   6.431   1.786   6.162  0.8113  0.6446  0.0089
 6984SOL     OW21636   6.298   4.230   1.776  0.2809 -0.4941 -0.7457
 6984SOL    HW121637   6.246   4.311   1.771 -1.7912 -1.7725 -1.2174
 6984SOL    HW221638   6.366   4.242   1.709  0.5540  1.1810 -0.2280
 6985SOL     OW21639   6.459   0.186   0.155 -0.2703  0.0885  0.0320
 6985SOL    HW121640   6.489   0.127   0.086 -0.5582 -0.3570  0.2805
 6985SOL    HW221641   6.366   0.201   0.136 -0.0447  1.0158 -0.4173
 6986SOL     OW21642   3.937   4.453   1.118  0.4717 -0.2129 -0.5025
 6986SOL    HW121643   3.915   4.482   1.207  1.2000 -0.6609 -0.1745
 6986SOL    HW221644   4.032   4.455   1.115  0.4635  2.5226 -2.1793
 6987SOL     OW21645   3.503   3.399   2.630  0.4835 -0.3799  0.5082
 6987SOL    HW121646   3.477   3.396   2.722  1.3049  0.0790  0.7661
 6987SOL    HW221647   3.421   3.410   2.582  0.2035  1.3450  1.3068
 6988SOL     OW21648   2.845   2.722   2.556  0.0006 -0.2851 -0.2321
 6988SOL    HW121649   2.776   2.664   2.588  0.6589 -0.6310  0.5820
 6988SOL    HW221650   2.798   2.801   2.527 -0.9579 -1.4031 -1.8757
 6989SOL     OW21651   7.330   3.380   6.467 -0.1607  0.4853  0.2916
 6989SOL    HW121652   7.271   3.323   6.515 -0.1046 -1.6823 -2.0144
 6989SOL    HW221653   7.274   3.431   6.409  0.0363  0.3717 -0.0015
 6990SOL     OW21654   3.071   7.164   4.459  0.1219 -0.2680 -0.6263
 6990SOL    HW121655   3.028   7.101   4.402 -1.1186 -0.7521  0.7599
 6990SOL    HW221656   3.076   7.244   4.408 -0.7488 -0.7460 -1.4858
 6991SOL     OW21657   2.408   6.180   1.112 -0.0174  0.1397 -0.1406
 6991SOL    HW121658   2.490   6.205   1.154 -0.8664  2.7325  0.1071
 6991SOL    HW221659   2.385   6.096   1.152  1.5521  0.2814  1.1304
 6992SOL     OW21660   7.645   1.778   0.526  0.0706  0.6866 -0.2760
 6992SOL    HW121661   7.729   1.734   0.513  0.7748  1.5756  1.0132
 6992SOL    HW221662   7.616   1.801   0.438  0.1689 -1.4114 -0.9191
 6993SOL     OW21663   3.022   4.206   3.508 -0.0544  0.5025 -0.2084
 6993SOL    HW121664   2.956   4.139   3.488  0.5499  0.2888 -1.6069
 6993SOL    HW221665   3.099   4.157   3.535  0.5818  0.5623 -1.8034
 6994SOL     OW21666   3.233   2.957   0.931  0.4452 -0.5241 -0.5424
 6994SOL    HW121667   3.292   2.881   0.930  1.5543  0.2963 -0.2006
 6994SOL    HW221668   3.162   2.933   0.990  0.1925 -1.7110 -1.3082
 6995SOL     OW21669   4.003   4.884   5.451 -0.2913  0.1843  0.1699
 6995SOL    HW121670   4.030   4.911   5.364  0.1969  2.4371  0.9598
 6995SOL    HW221671   3.925   4.830   5.436 -0.5171  0.9346 -1.6262
 6996SOL     OW21672   3.310   7.641   5.502 -0.1838  0.4484  0.0479
 6996SOL    HW121673   3.251   7.567   5.490 -1.1894  1.2376  0.0370
 6996SOL    HW221674   3.392   7.601   5.534 -0.4868 -0.7197 -0.5680
 6997SOL     OW21675   7.462   2.384   2.057  0.1725  0.6563 -0.5833
 6997SOL    HW121676   7.460   2.295   2.091  0.0724  0.1378 -1.8889
 6997SOL    HW221677   7.452   2.440   2.134 -1.9859 -0.4857  0.0340
 6998SOL     OW21678   7.088   2.912   0.743 -0.2934 -0.4113  0.3711
 6998SOL    HW121679   7.161   2.907   0.682 -0.0945 -1.5761  0.6858
 6998SOL    HW221680   7.050   2.999   0.727  0.1337 -0.4403 -0.9537
 6999SOL     OW21681   0.260   6.666   5.057  0.0628  0.0536 -0.3762
 6999SOL    HW121682   0.248   6.628   5.144 -0.6648 -0.2891 -0.6198
 6999SOL    HW221683   0.283   6.592   5.001  0.2775  0.2321 -0.5240
 7000SOL     OW21684   5.089   2.823   4.846 -0.3398 -0.0262 -0.5556
 7000SOL    HW121685   5.043   2.902   4.872 -1.2099 -0.5250 -0.5637
 7000SOL    HW221686   5.129   2.845   4.761 -0.7698  0.3241 -0.6692
 7001SOL     OW21687   5.840   7.010   1.818  0.2641  0.1914  0.4188
 7001SOL    HW121688   5.927   6.998   1.855  1.2207  0.2263 -1.6619
 7001SOL    HW221689   5.796   6.926   1.834  0.9949 -0.1420  0.7303
 7002SOL     OW21690   3.124   4.020   5.432  0.1678 -0.0725 -0.4380
 7002SOL    HW121691   3.073   4.023   5.351  1.6913  0.4772 -1.4236
 7002SOL    HW221692   3.195   3.959   5.413  1.5777  1.4369 -0.1741
 7003SOL     OW21693   0.077   2.805   6.871 -0.1676 -0.1714 -0.7144
 7003SOL    HW121694   0.145   2.805   6.804 -0.1443  2.5869 -0.8029
 7003SOL    HW221695   0.042   2.894   6.870 -0.6780 -0.2167  2.4250
 7004SOL     OW21696   3.352   2.816   3.897 -0.0659 -0.8206  0.1067
 7004SOL    HW121697   3.408   2.747   3.862 -1.8905 -1.4416 -1.8367
 7004SOL    HW221698   3.398   2.848   3.975  2.2696 -2.1704 -0.6328
 7005SOL     OW21699   5.118   6.692   3.786  0.0943 -0.0637  0.3071
 7005SOL    HW121700   5.072   6.760   3.735  2.2946  0.2339 -1.4600
 7005SOL    HW221701   5.048   6.640   3.825 -1.8049 -0.2013 -2.9274
 7006SOL     OW21702   0.263   0.930   7.104 -0.1560 -0.3060 -0.2294
 7006SOL    HW121703   0.172   0.961   7.098 -0.9812 -2.4201  0.3735
 7006SOL    HW221704   0.286   0.940   7.196  0.2858  0.2913 -0.3931
 7007SOL     OW21705   1.403   5.762   2.602  0.3572  0.5190  0.3742
 7007SOL    HW121706   1.449   5.828   2.653 -1.4174  1.2368  1.1372
 7007SOL    HW221707   1.321   5.805   2.577  1.0590  0.1759 -3.0193
 7008SOL     OW21708   6.266   6.663   2.112 -0.1914  0.3130  0.7757
 7008SOL    HW121709   6.207   6.599   2.071  0.3218 -0.5477  1.3592
 7008SOL    HW221710   6.276   6.731   2.045 -0.1892 -0.5480 -0.1374
 7009SOL     OW21711   7.739   7.423   0.281 -0.4861  0.0420 -0.1840
 7009SOL    HW121712   7.822   7.451   0.242  0.4216 -0.2135  1.4839
 7009SOL    HW221713   7.675   7.433   0.210  1.1338 -0.7742 -1.8492
 7010SOL     OW21714   7.496   0.584   3.790 -0.2545 -0.1569  0.0324
 7010SOL    HW121715   7.556   0.509   3.791  0.1554  0.0752 -2.1846
 7010SOL    HW221716   7.416   0.550   3.830  1.1797 -0.5484  2.8128
 7011SOL     OW21717   7.138   1.036   6.577  0.0293  0.7050 -0.2770
 7011SOL    HW121718   7.153   0.944   6.597  1.0027  0.5982 -1.4203
 7011SOL    HW221719   7.067   1.062   6.637 -0.4486 -0.8425 -0.1278
 7012SOL     OW21720   5.207   5.385   4.185 -0.3407  0.7519 -0.3832
 7012SOL    HW121721   5.297   5.362   4.206  0.0259  2.2977 -0.1530
 7012SOL    HW221722   5.165   5.395   4.271 -1.1086 -1.1758 -0.4702
 7013SOL     OW21723   5.257   4.312   4.831 -0.1560  0.2063  0.4840
 7013SOL    HW121724   5.341   4.357   4.826 -0.6876  1.4112  1.5566
 7013SOL    HW221725   5.262   4.243   4.766  1.9278 -0.2150  1.0312
 7014SOL     OW21726   5.653   3.646   1.041 -0.0462 -0.0713  0.0091
 7014SOL    HW121727   5.567   3.628   1.079 -0.3032  2.1733  0.5918
 7014SOL    HW221728   5.634   3.671   0.950 -0.2557  2.2761  0.6507
 7015SOL     OW21729   7.561   2.362   5.357 -0.4227 -0.4033 -0.3055
 7015SOL    HW121730   7.508   2.367   5.278 -0.7233  0.2459 -0.0711
 7015SOL    HW221731   7.498   2.374   5.429  0.1493  1.3609 -0.0568
 7016SOL     OW21732   1.429   1.086   0.864  0.2374  0.4030 -0.0186
 7016SOL    HW121733   1.459   1.107   0.775  0.2385 -1.3821 -0.4812
 7016SOL    HW221734   1.335   1.071   0.854  0.6637 -2.6810 -0.3842
 7017SOL     OW21735   6.535   2.645   1.123  0.3850  0.5274 -0.1399
 7017SOL    HW121736   6.508   2.659   1.214  0.9466  2.0263 -0.1727
 7017SOL    HW221737   6.475   2.699   1.072 -0.7741 -1.2966 -0.8261
 7018SOL     OW21738   2.453   6.727   5.053  0.1584 -0.6262 -0.1097
 7018SOL    HW121739   2.479   6.690   5.137 -0.4629  1.9319  1.2838
 7018SOL    HW221740   2.535   6.741   5.006  0.4751 -2.5057 -0.1783
 7019SOL     OW21741   4.685   4.013   7.570 -0.3765  0.7479 -0.2189
 7019SOL    HW121742   4.772   4.030   7.605 -1.4399  0.3732  2.9603
 7019SOL    HW221743   4.701   3.970   7.486  2.5727 -1.1695  1.1495
 7020SOL     OW21744   4.649   4.596   2.189  0.4496  0.5976 -0.1574
 7020SOL    HW121745   4.673   4.653   2.116  0.9523  0.4178 -0.1398
 7020SOL    HW221746   4.724   4.537   2.198 -0.2795 -0.4081 -0.5100
 7021SOL     OW21747   1.069   7.248   7.598  0.1297 -0.6144 -0.1914
 7021SOL    HW121748   1.121   7.167   7.600  0.4389 -0.4039  0.2371
 7021SOL    HW221749   1.017   7.246   7.678  0.9805  0.1624  0.4004
 7022SOL     OW21750   4.365   3.450   1.468  0.8815 -0.1028 -0.0145
 7022SOL    HW121751   4.275   3.482   1.476  0.7233 -0.6344  0.3678
 7022SOL    HW221752   4.411   3.488   1.543  0.6964 -0.7387  0.4330
 7023SOL     OW21753   5.699   7.481   4.133 -0.3373 -0.7297  0.1232
 7023SOL    HW121754   5.778   7.534   4.123  0.6212 -2.5286 -3.3267
 7023SOL    HW221755   5.692   7.467   4.228  0.6893  3.3354  0.9898
 7024SOL     OW21756   2.408   4.523   2.731 -0.3882 -0.2797 -0.2456
 7024SOL    HW121757   2.504   4.512   2.727 -0.2626  0.9345 -0.7940
 7024SOL    HW221758   2.395   4.615   2.751 -1.4735 -0.2467 -1.0565
 7025SOL     OW21759   2.791   6.617   4.510  0.3428  0.1685  0.2615
 7025SOL    HW121760   2.885   6.629   4.527 -0.1753  0.7024  3.1348
 7025SOL    HW221761   2.787   6.599   4.416  3.5410 -2.2233  0.3866
 7026SOL     OW21762   6.769   6.096   4.753 -0.1753  0.3030 -0.4798
 7026SOL    HW121763   6.677   6.108   4.778  0.3367  1.9068  0.8693
 7026SOL    HW221764   6.786   6.168   4.692  0.5581  0.9880  0.4932
 7027SOL     OW21765   2.248   1.165   0.290 -0.0413  0.1577 -0.1427
 7027SOL    HW121766   2.317   1.116   0.335 -0.6388 -1.5106 -0.9669
 7027SOL    HW221767   2.167   1.138   0.334 -0.6716 -1.6932 -2.2553
 7028SOL     OW21768   7.036   1.477   1.407 -0.1070  0.0289 -0.3136
 7028SOL    HW121769   6.992   1.433   1.334 -2.0547  0.3693  0.5785
 7028SOL    HW221770   7.103   1.531   1.365 -1.6024  0.7349 -1.9585
 7029SOL     OW21771   2.031   3.760   7.150  0.2178 -0.2359  0.3083
 7029SOL    HW121772   2.098   3.712   7.101 -0.1844  0.7784 -1.2756
 7029SOL    HW221773   2.075   3.840   7.179  0.1892 -0.4082  0.8507
 7030SOL     OW21774   2.164   2.534   2.987 -0.0296 -0.1439  0.5420
 7030SOL    HW121775   2.202   2.562   3.070  1.7634 -0.3239 -0.1700
 7030SOL    HW221776   2.219   2.574   2.920 -1.1976 -0.3154 -0.5768
 7031SOL     OW21777   6.400   5.117   5.531 -0.1591  0.6708 -0.2161
 7031SOL    HW121778   6.328   5.170   5.565  0.5221  0.4957  1.6025
 7031SOL    HW221779   6.416   5.052   5.600 -0.3389 -1.3286 -1.9522
 7032SOL     OW21780   0.807   7.481   2.872 -0.0441 -0.1057 -0.0846
 7032SOL    HW121781   0.855   7.544   2.927  0.4087 -0.4207 -0.1116
 7032SOL    HW221782   0.805   7.401   2.925  1.3464 -0.7493 -0.9518
 7033SOL     OW21783   5.151   7.431   4.407 -0.1611  0.4148  0.1719
 7033SOL    HW121784   5.190   7.481   4.479 -3.0042  0.0888  2.0854
 7033SOL    HW221785   5.149   7.493   4.334  0.4629  1.6176  1.1344
 7034SOL     OW21786   2.810   0.114   1.929 -0.0921 -0.0143  0.3729
 7034SOL    HW121787   2.838   0.140   2.017  1.0191  1.7563 -0.4464
 7034SOL    HW221788   2.825   0.192   1.875 -1.1583 -0.9173 -1.3090
 7035SOL     OW21789   3.093   2.612   2.022 -0.1355 -0.3622  0.4663
 7035SOL    HW121790   3.073   2.618   1.928  0.7520 -0.7314  0.2381
 7035SOL    HW221791   3.014   2.642   2.066 -0.4158  0.2168 -0.4119
 7036SOL     OW21792   3.011   4.047   1.657  0.2770 -0.0209  0.6176
 7036SOL    HW121793   3.026   3.969   1.603  1.1318  1.2410 -1.1091
 7036SOL    HW221794   2.975   4.014   1.738  2.0263 -2.3695  0.5597
 7037SOL     OW21795   6.077   3.525   6.233 -0.1158 -0.5385  0.0421
 7037SOL    HW121796   6.082   3.435   6.264 -0.7197 -1.4459 -2.3048
 7037SOL    HW221797   6.168   3.555   6.233 -0.1684  0.2251  4.2520
 7038SOL     OW21798   6.243   2.406   3.779 -0.2591  0.1616  0.0418
 7038SOL    HW121799   6.283   2.475   3.833 -1.0010  0.9652 -0.4074
 7038SOL    HW221800   6.313   2.342   3.767 -0.1017 -0.0798  2.0023
 7039SOL     OW21801   0.517   5.079   7.679  0.2699  0.4749  0.3593
 7039SOL    HW121802   0.527   5.174   7.671 -1.1272  0.6924  0.8917
 7039SOL    HW221803   0.524   5.062   7.773 -1.7069  0.3829  0.5415
 7040SOL     OW21804   0.715   0.275   4.865 -0.2691 -0.0982 -0.5367
 7040SOL    HW121805   0.713   0.335   4.939  0.5762 -1.7433  0.8832
 7040SOL    HW221806   0.691   0.190   4.902  1.4634 -1.2306 -1.8674
 7041SOL     OW21807   5.268   5.379   5.249  0.0711  0.1092  0.0979
 7041SOL    HW121808   5.297   5.353   5.336  1.0122  0.6662 -0.0397
 7041SOL    HW221809   5.179   5.412   5.263  0.1973  0.1571  0.8382
 7042SOL     OW21810   5.739   0.038   2.699 -0.2035  0.3944  0.0899
 7042SOL    HW121811   5.778   0.119   2.666 -0.0569  0.8072  1.2442
 7042SOL    HW221812   5.677   0.066   2.766 -1.8167 -0.3160 -1.0266
 7043SOL     OW21813   6.497   0.161   3.292 -0.1503 -0.1236 -0.2318
 7043SOL    HW121814   6.499   0.116   3.377 -0.1895  1.5310  0.6751
 7043SOL    HW221815   6.448   0.241   3.308 -0.5206  0.0273 -1.9382
 7044SOL     OW21816   5.422   6.976   6.004 -0.0173  0.1191  0.4958
 7044SOL    HW121817   5.412   7.046   5.939  1.4734  0.0463  0.1524
 7044SOL    HW221818   5.407   7.020   6.088  1.4915  1.0390  0.3324
 7045SOL     OW21819   4.249   4.458   5.585 -0.1606 -0.1653 -0.3535
 7045SOL    HW121820   4.252   4.434   5.492  1.6165 -1.0311 -0.1039
 7045SOL    HW221821   4.268   4.551   5.586 -0.6248 -0.0560 -0.8686
 7046SOL     OW21822   3.232   3.607   0.294  0.1370 -0.6090  0.3140
 7046SOL    HW121823   3.309   3.557   0.322 -0.0453 -1.2645 -0.2886
 7046SOL    HW221824   3.200   3.558   0.217  0.7144  1.1616 -1.1229
 7047SOL     OW21825   3.370   2.598   2.106 -0.1305  0.6287 -0.0955
 7047SOL    HW121826   3.283   2.630   2.081 -0.9488 -1.2559  0.1884
 7047SOL    HW221827   3.387   2.641   2.190 -1.0178  0.6474  0.0891
 7048SOL     OW21828   0.420   6.666   7.257 -0.6230 -0.1272 -0.2825
 7048SOL    HW121829   0.413   6.754   7.294  1.0204  0.4294 -1.1775
 7048SOL    HW221830   0.504   6.633   7.288 -0.4490 -0.7023 -1.2951
 7049SOL     OW21831   5.044   1.807   3.233 -0.4823  0.3182 -0.3015
 7049SOL    HW121832   5.017   1.870   3.167  1.2026  1.2833 -0.1370
 7049SOL    HW221833   5.123   1.767   3.198 -0.0488  0.2209  0.7375
 7050SOL     OW21834   1.424   6.276   4.736  0.2583 -0.1170  0.2235
 7050SOL    HW121835   1.489   6.346   4.744 -0.0341  0.0226  1.5904
 7050SOL    HW221836   1.476   6.196   4.733  0.5370  0.0643  0.1830
 7051SOL     OW21837   4.462   2.037   2.396  0.0160  0.0110 -0.2556
 7051SOL    HW121838   4.450   1.948   2.432  0.1449 -1.6425 -3.8903
 7051SOL    HW221839   4.379   2.058   2.354  0.0871  1.5722  0.3110
 7052SOL     OW21840   0.775   5.047   6.404  0.5295  0.0044  0.0916
 7052SOL    HW121841   0.704   5.046   6.341  0.9369  3.3628 -0.6169
 7052SOL    HW221842   0.739   5.091   6.481  1.7680  1.9021 -0.3360
 7053SOL     OW21843   0.889   0.134   5.346  0.2676 -0.0010 -0.0052
 7053SOL    HW121844   0.901   0.072   5.274 -0.5962 -1.6239  1.1990
 7053SOL    HW221845   0.807   0.108   5.387 -0.2376  2.0816  0.4453
 7054SOL     OW21846   1.784   7.577   5.896  0.1792  0.0283 -0.0725
 7054SOL    HW121847   1.779   7.486   5.925  0.7125  0.1808  0.5330
 7054SOL    HW221848   1.815   7.572   5.806 -0.5383 -0.4153 -0.2981
 7055SOL     OW21849   7.330   7.425   7.299  0.1180  0.4094 -0.3464
 7055SOL    HW121850   7.290   7.362   7.359  2.2334  0.5970  1.3822
 7055SOL    HW221851   7.256   7.471   7.259 -1.3907 -0.8804  0.8408
 7056SOL     OW21852   6.730   2.174   4.899 -0.2121 -0.0182  0.4063
 7056SOL    HW121853   6.673   2.116   4.949 -0.5300  0.0876  0.1702
 7056SOL    HW221854   6.674   2.248   4.875  0.7370  1.5358  2.6116
 7057SOL     OW21855   0.635   1.090   5.581  0.6690  0.2301 -0.2008
 7057SOL    HW121856   0.615   1.180   5.606  0.4490 -0.2487  1.5326
 7057SOL    HW221857   0.551   1.044   5.587  0.6508  0.0166 -1.7066
 7058SOL     OW21858   1.550   3.305   7.344  0.6180 -0.2029  0.3371
 7058SOL    HW121859   1.455   3.318   7.338  0.4135 -0.6885  1.9139
 7058SOL    HW221860   1.575   3.273   7.258 -0.2036  2.4024 -0.9655
 7059SOL     OW21861   2.638   0.700   2.154  0.2404  0.1760 -0.3068
 7059SOL    HW121862   2.646   0.722   2.061  1.3790  0.1036 -0.2410
 7059SOL    HW221863   2.695   0.624   2.166  1.6206  1.3210  0.8065
 7060SOL     OW21864   3.354   5.189   7.759  0.0295 -0.5703  0.4236
 7060SOL    HW121865   3.403   5.221   7.683 -0.2506  0.9073  0.8485
 7060SOL    HW221866   3.408   5.213   7.834 -0.7071 -0.1167  0.8176
 7061SOL     OW21867   7.659   6.078   6.117 -0.2229 -0.0063  0.3547
 7061SOL    HW121868   7.748   6.060   6.086 -0.7085 -3.2133  0.4395
 7061SOL    HW221869   7.639   6.165   6.083  2.4839  0.3298 -0.6822
 7062SOL     OW21870   4.082   4.446   1.955  0.2017  0.3698  0.0393
 7062SOL    HW121871   4.038   4.506   1.895  1.4991  0.5881 -0.7527
 7062SOL    HW221872   4.018   4.377   1.972 -0.4116  0.6240 -1.1247
 7063SOL     OW21873   7.402   2.340   5.117  0.1745 -0.0486 -0.6431
 7063SOL    HW121874   7.398   2.248   5.091 -0.4918  0.0203 -0.7785
 7063SOL    HW221875   7.407   2.388   5.035 -1.0651  0.1205 -0.6351
 7064SOL     OW21876   4.296   2.269   6.668  0.3310 -0.7082 -0.0304
 7064SOL    HW121877   4.324   2.297   6.755 -0.1516 -2.0594  0.5982
 7064SOL    HW221878   4.219   2.321   6.648 -0.2660 -1.2090  0.8946
 7065SOL     OW21879   3.369   0.684   0.741  0.0759 -0.4580  0.1225
 7065SOL    HW121880   3.297   0.621   0.749 -0.6023  0.2535 -0.1365
 7065SOL    HW221881   3.325   0.769   0.736  0.8014 -0.1432 -2.2126
 7066SOL     OW21882   4.593   3.765   1.435 -0.1766 -0.0406 -0.5360
 7066SOL    HW121883   4.672   3.728   1.474 -0.9749 -1.5448 -0.2539
 7066SOL    HW221884   4.587   3.853   1.470  1.3732  0.0920 -0.5660
 7067SOL     OW21885   6.516   5.455   3.032 -0.7071  0.6303  0.1362
 7067SOL    HW121886   6.459   5.531   3.024 -1.9681 -0.2017  0.9306
 7067SOL    HW221887   6.478   5.390   2.974  0.3495  0.5645 -0.5196
 7068SOL     OW21888   0.736   5.939   4.841 -0.0777  0.4290  0.1691
 7068SOL    HW121889   0.704   5.973   4.924 -0.3416  0.4094  0.0798
 7068SOL    HW221890   0.705   5.848   4.839 -3.6149  1.4618 -1.6688
 7069SOL     OW21891   5.437   2.281   5.224 -0.1904  0.3287 -0.2091
 7069SOL    HW121892   5.409   2.362   5.182  1.3452  0.5555 -0.8765
 7069SOL    HW221893   5.518   2.303   5.269  0.2000 -0.8034 -0.3083
 7070SOL     OW21894   7.343   0.229   3.068 -0.0446 -0.4641 -0.0352
 7070SOL    HW121895   7.266   0.266   3.025  0.9039  0.4560 -0.9962
 7070SOL    HW221896   7.393   0.188   2.998  0.7418 -0.3640  0.4552
 7071SOL     OW21897   7.474   4.746   0.876  0.3921  0.3858  0.5726
 7071SOL    HW121898   7.386   4.742   0.911  0.2454  1.2402  0.3398
 7071SOL    HW221899   7.528   4.778   0.948  0.2249  1.3883  0.2752
 7072SOL     OW21900   3.740   4.627   4.390 -0.5841  0.5912  0.2347
 7072SOL    HW121901   3.808   4.694   4.389 -0.1770  0.3646 -3.8922
 7072SOL    HW221902   3.725   4.606   4.298 -4.2066 -1.5002  1.0827
 7073SOL     OW21903   0.159   1.653   1.017  0.5016 -0.3854 -0.0824
 7073SOL    HW121904   0.107   1.575   1.002  0.4470 -0.1952 -0.9632
 7073SOL    HW221905   0.240   1.638   0.967  1.5508 -0.9092  1.7006
 7074SOL     OW21906   4.562   5.017   1.769 -0.3841  0.2744 -0.4037
 7074SOL    HW121907   4.627   4.959   1.729  0.2956 -0.0840  1.1640
 7074SOL    HW221908   4.550   5.087   1.704  0.2050 -0.6005 -1.4973
 7075SOL     OW21909   0.664   6.218   4.794 -0.0115 -0.0660  0.0428
 7075SOL    HW121910   0.731   6.158   4.826  0.1328  0.1760  0.1992
 7075SOL    HW221911   0.610   6.165   4.736  2.1661  0.4123 -2.6541
 7076SOL     OW21912   3.439   7.261   5.508 -0.0231 -0.2308  0.0278
 7076SOL    HW121913   3.534   7.262   5.524 -0.0730 -1.7847  0.5990
 7076SOL    HW221914   3.407   7.340   5.550  0.8013 -0.6504  1.5385
 7077SOL     OW21915   1.187   7.443   2.784  0.5255  0.5073  0.4361
 7077SOL    HW121916   1.152   7.367   2.832  1.8258 -0.6576 -0.3836
 7077SOL    HW221917   1.144   7.439   2.698  2.2076 -0.6633 -0.4126
 7078SOL     OW21918   7.172   3.018   6.893  0.9289 -0.2873 -0.4805
 7078SOL    HW121919   7.237   3.068   6.844  1.5105  1.5321  1.9607
 7078SOL    HW221920   7.160   3.067   6.974 -1.9899 -1.6761  0.0585
 7079SOL     OW21921   1.555   2.881   6.941 -0.0853  0.3207 -0.0430
 7079SOL    HW121922   1.618   2.820   6.980 -0.6055  0.1857  0.6013
 7079SOL    HW221923   1.601   2.965   6.941 -0.4118  0.5483  1.8163
 7080SOL     OW21924   1.747   5.843   4.512 -0.2844 -0.0273  0.5415
 7080SOL    HW121925   1.826   5.789   4.502  0.3923  0.9590  0.3696
 7080SOL    HW221926   1.724   5.835   4.604  0.8071  0.6992  0.9019
 7081SOL     OW21927   2.461   6.782   0.661  0.5765  0.1986  0.4774
 7081SOL    HW121928   2.482   6.714   0.598 -0.0431  0.4724 -0.0374
 7081SOL    HW221929   2.538   6.838   0.664  0.1653  0.8925 -0.9782
 7082SOL     OW21930   5.658   5.983   2.457 -0.6291 -0.1352 -0.0788
 7082SOL    HW121931   5.678   5.895   2.426 -0.4280 -0.9433  2.1518
 7082SOL    HW221932   5.707   6.041   2.399 -0.9689 -1.4465 -1.7638
 7083SOL     OW21933   6.663   4.456   5.332 -0.0333  0.1555 -0.1041
 7083SOL    HW121934   6.703   4.540   5.308  1.7826 -0.0068  2.0414
 7083SOL    HW221935   6.707   4.392   5.276 -0.0845  0.4182 -0.4499
 7084SOL     OW21936   5.350   2.089   3.203  0.1299  0.1942  0.1034
 7084SOL    HW121937   5.366   2.090   3.109 -1.1911 -0.7464 -0.1624
 7084SOL    HW221938   5.254   2.087   3.211  0.2142  0.6085  1.4721
 7085SOL     OW21939   1.102   3.291   5.270 -0.3656 -0.5140 -0.1958
 7085SOL    HW121940   1.076   3.374   5.310  0.6241 -1.0629  1.6978
 7085SOL    HW221941   1.019   3.248   5.248 -0.8943  0.6551 -0.5570
 7086SOL     OW21942   2.658   5.203   2.829  0.3326 -0.6818 -0.2308
 7086SOL    HW121943   2.688   5.284   2.786  0.2965 -0.7955 -0.4697
 7086SOL    HW221944   2.595   5.233   2.894 -0.5295 -0.6040 -1.0849
 7087SOL     OW21945   7.767   0.840   0.113  0.3036  0.2601 -0.5437
 7087SOL    HW121946   7.776   0.933   0.134  3.5901  0.1586 -0.9791
 7087SOL    HW221947   7.813   0.829   0.030 -1.2350 -1.5468 -1.2282
 7088SOL     OW21948   3.797   1.491   2.659  0.0032  0.3824 -0.3629
 7088SOL    HW121949   3.830   1.496   2.569 -0.9223 -1.7221 -0.8722
 7088SOL    HW221950   3.712   1.535   2.655 -0.2065 -0.0421 -0.6092
 7089SOL     OW21951   6.763   7.305   7.772  0.2623  0.0534 -0.1309
 7089SOL    HW121952   6.781   7.253   7.850  0.9675 -1.2393 -1.1231
 7089SOL    HW221953   6.835   7.369   7.768  1.1647 -0.9608 -0.6033
 7090SOL     OW21954   4.033   7.123   0.758  0.3367 -0.3453 -0.7472
 7090SOL    HW121955   3.969   7.183   0.720  0.5742  0.0665 -0.5077
 7090SOL    HW221956   4.013   7.038   0.719 -1.5204 -0.6189  0.6264
 7091SOL     OW21957   1.332   0.452   6.634  0.4191  0.6762 -0.3500
 7091SOL    HW121958   1.378   0.388   6.689 -0.0007  0.4132 -0.2968
 7091SOL    HW221959   1.285   0.508   6.696 -1.1900 -0.4833 -0.4521
 7092SOL     OW21960   6.349   2.188   6.982 -0.2529 -0.1234  0.0228
 7092SOL    HW121961   6.348   2.156   7.072  0.6891  3.6820  1.5974
 7092SOL    HW221962   6.422   2.143   6.940  1.8151  0.7275  2.4454
 7093SOL     OW21963   7.479   7.243   5.705  0.5469 -0.2092 -0.3018
 7093SOL    HW121964   7.558   7.273   5.659  0.1462 -0.5796 -1.2552
 7093SOL    HW221965   7.448   7.321   5.752  1.9096 -0.2634  0.7316
 7094SOL     OW21966   5.132   4.590   5.251  0.0522  0.1142 -0.1046
 7094SOL    HW121967   5.179   4.650   5.194 -0.6273 -0.4083 -1.2600
 7094SOL    HW221968   5.134   4.506   5.204 -0.9179 -0.2198  0.4267
 7095SOL     OW21969   2.006   7.729   2.756 -0.3190  0.4484  0.7050
 7095SOL    HW121970   2.102   7.722   2.755 -0.4122 -1.0123  0.1392
 7095SOL    HW221971   1.989   7.820   2.781  1.2086  0.5689  1.4282
 7096SOL     OW21972   5.110   3.741   1.332  0.1520  0.4162 -0.3978
 7096SOL    HW121973   5.059   3.781   1.262  1.4862  0.7896 -1.2065
 7096SOL    HW221974   5.092   3.647   1.326  0.7022  0.3794 -1.6392
 7097SOL     OW21975   4.899   3.826   1.195  0.1682 -0.6408 -0.7375
 7097SOL    HW121976   4.831   3.764   1.167 -1.3960  1.4211 -1.8430
 7097SOL    HW221977   4.868   3.911   1.161  0.6687  1.2765  3.1174
 7098SOL     OW21978   4.957   1.568   6.217  0.1595 -0.1015  0.1598
 7098SOL    HW121979   4.990   1.657   6.219  0.6148 -0.2515 -0.3271
 7098SOL    HW221980   4.862   1.577   6.228  0.2037  0.4384  0.1207
 7099SOL     OW21981   0.196   7.734   2.474  0.3018  0.3450  0.6143
 7099SOL    HW121982   0.263   7.727   2.407 -0.6547 -1.1174 -0.2545
 7099SOL    HW221983   0.140   7.806   2.446  1.2672  1.3357  1.1586
 7100SOL     OW21984   2.682   2.593   6.402  0.2633  0.1887  0.2448
 7100SOL    HW121985   2.728   2.565   6.322  1.1955  2.2099  0.0089
 7100SOL    HW221986   2.599   2.627   6.370  0.1205 -0.1255  0.2777
 7101SOL     OW21987   0.315   7.000   0.667  0.5702 -0.0138  0.1996
 7101SOL    HW121988   0.262   6.993   0.587  1.6046  0.2034 -0.5315
 7101SOL    HW221989   0.404   6.979   0.638  1.1428  1.0898  1.0821
 7102SOL     OW21990   0.072   3.754   6.268 -0.0763  0.3101  0.2039
 7102SOL    HW121991   0.039   3.740   6.179  0.4640  1.1075 -0.1316
 7102SOL    HW221992   0.010   3.817   6.306 -0.0557  0.3070  0.2421
 7103SOL     OW21993   3.590   1.543   0.337 -0.2415  0.3802 -0.2925
 7103SOL    HW121994   3.503   1.549   0.300  0.4250  2.6866 -1.7065
 7103SOL    HW221995   3.648   1.574   0.267  1.5445  0.4119  1.1298
 7104SOL     OW21996   2.093   1.856   5.205 -0.1886  0.2402 -0.0109
 7104SOL    HW121997   2.141   1.907   5.139  0.4106  1.1426  1.0871
 7104SOL    HW221998   2.135   1.770   5.203 -0.1201  0.2811 -0.7440
 7105SOL     OW21999   0.196   4.114   2.355 -0.4233  0.3912  0.1782
 7105SOL    HW122000   0.264   4.153   2.411  0.1332  0.4381 -0.5175
 7105SOL    HW222001   0.245   4.073   2.284 -0.8758 -2.6588  1.4953
 7106SOL     OW22002   2.774   2.879   7.602  0.4494 -0.7448  0.1647
 7106SOL    HW122003   2.862   2.844   7.587  1.3781 -0.0370  3.2549
 7106SOL    HW222004   2.716   2.819   7.556  2.5463  0.0055 -3.9263
 7107SOL     OW22005   6.823   5.598   0.082  0.0237 -0.4154  0.5362
 7107SOL    HW122006   6.822   5.694   0.084  0.2551 -0.3695 -0.8042
 7107SOL    HW222007   6.734   5.573   0.106 -0.6522  0.2146 -1.1330
 7108SOL     OW22008   4.233   7.712   7.767 -0.5250  0.2444  0.7794
 7108SOL    HW122009   4.269   7.623   7.775 -0.7859 -0.0898 -1.2612
 7108SOL    HW222010   4.144   7.705   7.801 -0.2788 -0.0507  1.3949
 7109SOL     OW22011   5.745   0.937   3.652 -0.5675  0.1965  0.1255
 7109SOL    HW122012   5.840   0.948   3.650 -0.6299  0.6947 -0.4158
 7109SOL    HW222013   5.732   0.847   3.683  0.0873 -0.0259 -0.2304
 7110SOL     OW22014   1.437   5.393   0.640  0.3942  0.7124 -0.0983
 7110SOL    HW122015   1.379   5.317   0.628 -0.4929  1.6590 -2.4537
 7110SOL    HW222016   1.389   5.450   0.699 -0.8646  1.1835 -1.4917
 7111SOL     OW22017   7.175   4.374   0.377 -0.0713  0.3782 -0.2367
 7111SOL    HW122018   7.138   4.389   0.464 -0.1377 -0.8704 -0.0355
 7111SOL    HW222019   7.105   4.400   0.317  0.1876  1.8073  0.0470
 7112SOL     OW22020   7.139   6.713   1.020  0.2992 -0.1132 -0.7115
 7112SOL    HW122021   7.069   6.650   1.001 -1.6123  1.5820  0.2363
 7112SOL    HW222022   7.158   6.754   0.936 -0.5464  0.0603 -0.8312
 7113SOL     OW22023   4.992   5.702   5.441 -0.3175  0.2430 -0.2694
 7113SOL    HW122024   5.073   5.721   5.393 -0.6514 -1.0318 -1.3898
 7113SOL    HW222025   5.006   5.617   5.481 -1.9816 -1.2857 -2.6552
 7114SOL     OW22026   5.837   1.550   3.992  0.2101  0.2342 -0.0310
 7114SOL    HW122027   5.864   1.493   3.920 -0.0859 -0.5853  0.5003
 7114SOL    HW222028   5.742   1.541   3.996 -0.0270  1.9858 -0.9509
 7115SOL     OW22029   2.129   2.109   0.490 -0.1442  0.0856 -0.2226
 7115SOL    HW122030   2.110   2.063   0.408  1.1991 -0.6784 -0.1330
 7115SOL    HW222031   2.216   2.148   0.476 -0.2852  0.6870  0.5248
 7116SOL     OW22032   1.142   3.966   0.617  0.7234 -0.3010  0.1600
 7116SOL    HW122033   1.238   3.975   0.619  0.9157 -2.0631  0.8501
 7116SOL    HW222034   1.117   3.967   0.709  0.3286 -1.9024  0.0941
 7117SOL     OW22035   6.782   1.833   4.277 -0.2318  0.3028  0.3772
 7117SOL    HW122036   6.760   1.847   4.369 -0.4423  1.5747  0.1438
 7117SOL    HW222037   6.721   1.765   4.248 -0.6706  0.4274  0.9820
 7118SOL     OW22038   2.677   0.152   2.480  0.5094  0.8536 -0.2941
 7118SOL    HW122039   2.631   0.219   2.430  2.8095  2.3270 -0.5868
 7118SOL    HW222040   2.747   0.200   2.525  1.5542 -1.1976  0.3772
 7119SOL     OW22041   4.001   5.228   2.996 -0.2276  0.0775  0.7646
 7119SOL    HW122042   3.960   5.288   2.934 -0.2981 -1.5448 -0.8520
 7119SOL    HW222043   4.028   5.153   2.942  0.9637 -0.7979  2.4906
 7120SOL     OW22044   3.582   1.617   2.282 -0.1822 -0.8079 -0.3055
 7120SOL    HW122045   3.581   1.586   2.192 -0.1191  0.7153 -0.8508
 7120SOL    HW222046   3.546   1.705   2.278  1.5921  0.0265  0.8739
 7121SOL     OW22047   3.552   7.656   0.021 -0.0604 -0.6894 -0.1953
 7121SOL    HW122048   3.592   7.572   0.001 -0.5028 -0.8917 -0.2336
 7121SOL    HW222049   3.560   7.707  -0.060  2.8511  0.4014  0.6216
 7122SOL     OW22050   7.331   3.164   0.635  0.0402 -0.2994 -0.4955
 7122SOL    HW122051   7.239   3.186   0.644  0.2931  0.5711  0.0929
 7122SOL    HW222052   7.373   3.201   0.713  0.9178 -0.4666 -0.8712
 7123SOL     OW22053   7.737   1.606   3.121  1.0442  0.3101 -0.2570
 7123SOL    HW122054   7.741   1.540   3.052 -0.1435  0.9478 -0.9482
 7123SOL    HW222055   7.820   1.654   3.113  1.2120 -0.0643 -0.7890
 7124SOL     OW22056   3.419   2.019   1.217 -0.4681  0.0613  0.2809
 7124SOL    HW122057   3.484   2.055   1.278  0.4048 -1.4284  0.2754
 7124SOL    HW222058   3.349   1.985   1.274 -1.2200  1.5586  0.2909
 7125SOL     OW22059   3.985   4.773   1.186  0.1343 -0.3479 -0.3813
 7125SOL    HW122060   3.982   4.761   1.091  0.1501  1.1731 -0.5953
 7125SOL    HW222061   3.897   4.802   1.209  0.7678  1.6403 -0.3081
 7126SOL     OW22062   3.129   0.973   2.060 -0.1353  0.4237 -0.4069
 7126SOL    HW122063   3.116   1.066   2.042  0.9726  0.8593  0.8955
 7126SOL    HW222064   3.105   0.963   2.152  1.8122 -0.1063  0.0915
 7127SOL     OW22065   7.707   3.388   2.528 -0.1816 -0.1370  0.2540
 7127SOL    HW122066   7.765   3.376   2.604 -0.6521 -0.0423  0.6374
 7127SOL    HW222067   7.644   3.316   2.536  0.0502 -0.4079 -0.3185
 7128SOL     OW22068   2.024   6.701   3.177 -0.2224  0.1418 -0.4541
 7128SOL    HW122069   2.033   6.616   3.133  1.2952  0.4555 -0.8170
 7128SOL    HW222070   2.016   6.679   3.270  0.3204 -0.3960 -0.5250
 7129SOL     OW22071   3.806   1.759   4.863 -0.4395  0.6063 -0.1691
 7129SOL    HW122072   3.712   1.767   4.849 -0.5885  2.2224  1.4215
 7129SOL    HW222073   3.835   1.848   4.884  1.2203 -0.0728  0.6143
 7130SOL     OW22074   2.015   4.491   6.386  0.1186  0.6333  0.0308
 7130SOL    HW122075   1.972   4.418   6.429 -1.3963  1.5196  0.0830
 7130SOL    HW222076   1.969   4.569   6.418  1.4108  1.5980 -0.3346
 7131SOL     OW22077   7.542   4.153   1.095 -0.1660  0.3744 -0.0450
 7131SOL    HW122078   7.584   4.196   1.169  0.3625 -0.4564  0.1547
 7131SOL    HW222079   7.579   4.065   1.094 -0.8206  0.0896 -0.7648
 7132SOL     OW22080   5.975   4.187   3.605  0.0137 -0.5826 -0.4447
 7132SOL    HW122081   6.044   4.252   3.611  0.3859 -1.0230  0.1230
 7132SOL    HW222082   5.996   4.136   3.527  0.1042 -0.4621 -0.4987
 7133SOL     OW22083   6.162   2.919   0.742 -0.0914  0.4309  0.5588
 7133SOL    HW122084   6.206   2.844   0.701 -1.2963  0.0455 -0.0818
 7133SOL    HW222085   6.213   2.995   0.712 -0.2407  0.0546 -0.7375
 7134SOL     OW22086   6.302   6.805   1.863  0.4276 -0.1249 -0.0247
 7134SOL    HW122087   6.353   6.816   1.783  1.4656 -1.7514  0.3714
 7134SOL    HW222088   6.236   6.739   1.841  0.9191 -0.8211  0.5076
 7135SOL     OW22089   7.749   6.706   7.421  0.5513  0.0534 -0.0231
 7135SOL    HW122090   7.663   6.712   7.379  0.5060 -0.7438 -0.0592
 7135SOL    HW222091   7.756   6.786   7.473  0.5153  0.9460 -1.3644
 7136SOL     OW22092   3.245   0.977   1.266 -0.1991 -0.3987  0.1602
 7136SOL    HW122093   3.280   0.981   1.177 -0.1618 -0.6880  0.1637
 7136SOL    HW222094   3.322   0.980   1.323 -0.0313 -2.7160  0.1525
 7137SOL     OW22095   0.744   2.259   6.271  0.4041 -0.0485 -0.5997
 7137SOL    HW122096   0.835   2.260   6.241  1.0486 -0.6476  1.2053
 7137SOL    HW222097   0.720   2.351   6.279  1.1842  0.1319 -0.1964
 7138SOL     OW22098   1.886   3.869   1.358 -0.1272  0.2246  0.6786
 7138SOL    HW122099   1.886   3.827   1.445  2.2180  1.3328  1.2891
 7138SOL    HW222100   1.863   3.960   1.375  0.2388  0.4270  0.1136
 7139SOL     OW22101   1.284   2.827   6.959  0.3246 -0.5886 -0.0800
 7139SOL    HW122102   1.250   2.763   6.898 -0.6603 -1.0199  0.8823
 7139SOL    HW222103   1.379   2.819   6.953  0.2137 -1.5532 -0.5689
 7140SOL     OW22104   3.298   1.956   4.900 -0.1660 -0.1823 -0.3447
 7140SOL    HW122105   3.220   1.911   4.931 -0.8650  0.5192 -1.0229
 7140SOL    HW222106   3.344   1.983   4.980 -0.2983 -1.1159  0.0572
 7141SOL     OW22107   4.528   6.948   4.311 -0.0382  0.5370 -0.0496
 7141SOL    HW122108   4.451   6.893   4.326 -0.9419  1.6231 -0.5509
 7141SOL    HW222109   4.528   6.965   4.217  0.6060  0.8737  0.0035
 7142SOL     OW22110   2.480   4.180   1.170 -0.4753  0.1069 -0.3579
 7142SOL    HW122111   2.503   4.258   1.220 -2.4589 -0.3078  1.3368
 7142SOL    HW222112   2.458   4.114   1.236  1.1598 -1.9516 -1.7344
 7143SOL     OW22113   3.601   5.247   5.410 -0.4072 -0.5388  0.1652
 7143SOL    HW122114   3.645   5.259   5.326 -0.8774  0.7286  0.0858
 7143SOL    HW222115   3.508   5.235   5.387 -0.4342 -0.9213  0.4654
 7144SOL     OW22116   2.705   5.359   3.531  0.0562 -0.3427  0.2999
 7144SOL    HW122117   2.737   5.444   3.501  0.5941 -1.1568 -1.5851
 7144SOL    HW222118   2.722   5.358   3.625  1.6858  0.9257  0.0511
 7145SOL     OW22119   0.758   1.411   2.083 -0.3778  0.3089  0.2276
 7145SOL    HW122120   0.821   1.394   2.014 -1.6231  1.1143 -1.1561
 7145SOL    HW222121   0.808   1.460   2.149  0.9363 -0.8534  0.1449
 7146SOL     OW22122   7.109   7.347   2.672  0.6814  0.2970 -0.3699
 7146SOL    HW122123   7.112   7.442   2.672 -0.0404  0.3252 -0.4348
 7146SOL    HW222124   7.117   7.323   2.765  0.0963  0.4540 -0.2764
 7147SOL     OW22125   4.097   7.369   2.562  0.2728  0.4870  0.2235
 7147SOL    HW122126   4.004   7.387   2.548 -0.3446 -1.7927  0.9328
 7147SOL    HW222127   4.108   7.371   2.657 -0.1329 -3.4123  0.5279
 7148SOL     OW22128   3.517   4.518   5.119 -0.5674 -0.5367 -0.3135
 7148SOL    HW122129   3.478   4.484   5.038  0.4753  1.3150 -1.6738
 7148SOL    HW222130   3.448   4.509   5.185 -2.0564 -0.5397 -1.8046
 7149SOL     OW22131   4.947   6.296   1.572  0.2458  0.6278 -0.0382
 7149SOL    HW122132   4.972   6.217   1.619 -2.2848  1.3176  2.7903
 7149SOL    HW222133   4.911   6.265   1.489  0.7163 -1.0461  0.3502
 7150SOL     OW22134   0.331   6.250   7.339 -0.1407 -0.4449  0.1589
 7150SOL    HW122135   0.412   6.200   7.330 -0.5990 -1.0549 -0.6794
 7150SOL    HW222136   0.302   6.266   7.249 -0.0462  1.2822  0.4010
 7151SOL     OW22137   7.646   2.055   4.358 -0.5189  0.4688 -0.1436
 7151SOL    HW122138   7.728   2.042   4.405  0.4328  3.0235 -0.9630
 7151SOL    HW222139   7.671   2.090   4.273 -2.4457  0.8730 -0.6068
 7152SOL     OW22140   3.248   7.099   1.332 -0.1633 -0.0058 -0.4238
 7152SOL    HW122141   3.314   7.032   1.353 -0.5475 -1.1361 -2.5417
 7152SOL    HW222142   3.297   7.182   1.333  0.3661 -0.2925  2.0259
 7153SOL     OW22143   2.455   0.980   3.256  0.0809 -0.1174 -0.1066
 7153SOL    HW122144   2.437   1.005   3.165 -0.5460 -1.1693 -0.2995
 7153SOL    HW222145   2.550   0.975   3.262  0.1510 -3.3677 -1.7263
 7154SOL     OW22146   6.699   3.169   6.899 -0.3258 -0.2434 -0.5660
 7154SOL    HW122147   6.604   3.172   6.915 -0.1823 -0.1182  0.3245
 7154SOL    HW222148   6.731   3.098   6.953  0.2797  0.6198  0.2484
 7155SOL     OW22149   5.672   0.366   4.265  1.1139  0.8715 -0.3662
 7155SOL    HW122150   5.668   0.456   4.296 -0.0298  0.7103  0.0235
 7155SOL    HW222151   5.643   0.371   4.173 -0.1796  0.7659  0.0160
 7156SOL     OW22152   4.762   4.832   6.138  0.0317 -0.1882 -0.5820
 7156SOL    HW122153   4.823   4.869   6.202  1.4964 -1.6845 -1.0138
 7156SOL    HW222154   4.786   4.874   6.056  2.5796 -2.7181 -1.3413
 7157SOL     OW22155   1.054   0.032   1.977 -0.4279  0.1140  0.3021
 7157SOL    HW122156   1.062   0.126   1.990 -0.6579  0.4987 -2.0402
 7157SOL    HW222157   1.141   0.004   1.948 -0.4968 -0.3225  0.5039
 7158SOL     OW22158   6.458   0.673   1.342  0.0645  0.5910  0.0556
 7158SOL    HW122159   6.438   0.658   1.249 -0.0101 -1.0028  0.3004
 7158SOL    HW222160   6.553   0.677   1.346  0.1945 -1.3397  0.1265
 7159SOL     OW22161   1.378   2.715   7.517 -0.0979 -0.2898 -0.0334
 7159SOL    HW122162   1.384   2.683   7.427  0.7749 -1.5353  0.4432
 7159SOL    HW222163   1.352   2.639   7.568  0.9259  0.0111  0.9878
 7160SOL     OW22164   3.328   4.945   1.112 -0.8943 -0.3267  0.0606
 7160SOL    HW122165   3.333   4.864   1.164 -0.8274  0.1050  0.7409
 7160SOL    HW222166   3.342   5.015   1.176  1.7851  0.1422 -0.9101
 7161SOL     OW22167   4.397   6.704   7.494 -0.3124 -0.2673 -0.2912
 7161SOL    HW122168   4.380   6.798   7.495 -0.5976 -0.2770  1.9332
 7161SOL    HW222169   4.488   6.695   7.522  0.1502 -0.6214 -1.8490
 7162SOL     OW22170   6.705   0.953   3.289 -0.1722 -0.4602  0.0846
 7162SOL    HW122171   6.787   0.912   3.260  0.8973  1.8421 -0.3500
 7162SOL    HW222172   6.655   0.965   3.208  0.2897  0.6472 -0.0539
 7163SOL     OW22173   4.072   6.685   7.322 -0.1350  0.0765  0.3567
 7163SOL    HW122174   4.022   6.622   7.374 -1.9597  0.0589 -1.3165
 7163SOL    HW222175   4.156   6.642   7.308  0.8537  0.4717  3.9867
 7164SOL     OW22176   2.842   6.405   4.945  0.0025  0.0302  0.4263
 7164SOL    HW122177   2.845   6.361   4.860  0.9078  0.0208  0.4442
 7164SOL    HW222178   2.784   6.480   4.931 -0.2262 -0.2351 -0.0719
 7165SOL     OW22179   2.034   3.739   5.251 -0.2432 -0.0858  1.0376
 7165SOL    HW122180   2.119   3.756   5.211 -0.5483 -1.3549 -0.2604
 7165SOL    HW222181   2.005   3.657   5.211 -1.7573 -0.0647  1.9964
 7166SOL     OW22182   2.032   6.614   2.838 -0.1386  0.2473 -0.1474
 7166SOL    HW122183   2.088   6.549   2.881 -2.3092 -1.1164  0.7861
 7166SOL    HW222184   2.091   6.663   2.781  1.6893 -2.2369 -0.5521
 7167SOL     OW22185   2.253   6.046   0.734 -0.5546 -0.5283 -0.0862
 7167SOL    HW122186   2.183   5.980   0.737 -2.3369  1.2603  0.3256
 7167SOL    HW222187   2.252   6.078   0.644  1.3405 -2.0191 -0.7041
 7168SOL     OW22188   1.671   0.687   6.958  0.2765 -0.0464 -0.0974
 7168SOL    HW122189   1.706   0.743   6.889 -0.2544  0.7701  0.2792
 7168SOL    HW222190   1.593   0.733   6.989  1.5024  0.5653  2.3030
 7169SOL     OW22191   0.093   1.199   6.543 -0.1943 -0.1043 -0.2959
 7169SOL    HW122192   0.080   1.274   6.486 -2.7964  0.4788  0.8982
 7169SOL    HW222193   0.095   1.124   6.484  0.3782  0.7290 -1.3629
 7170SOL     OW22194   0.468   7.727   1.222  0.2215  0.1865 -0.2102
 7170SOL    HW122195   0.402   7.667   1.257  0.3051 -0.0541 -0.4593
 7170SOL    HW222196   0.548   7.674   1.218 -0.0236 -0.1082 -1.7372
 7171SOL     OW22197   5.101   4.141   4.316 -0.0207 -0.0032 -0.1630
 7171SOL    HW122198   5.057   4.209   4.264  0.7163  0.4620 -0.1888
 7171SOL    HW222199   5.098   4.174   4.406  0.2439  0.0127 -0.1604
 7172SOL     OW22200   1.794   3.234   3.346  0.1534  0.7993 -0.0855
 7172SOL    HW122201   1.843   3.227   3.264 -0.9007 -0.5598 -0.6338
 7172SOL    HW222202   1.703   3.220   3.321 -0.2727  1.0798  1.2323
 7173SOL     OW22203   3.089   3.567   4.732 -0.0836  0.4769  0.1540
 7173SOL    HW122204   3.047   3.578   4.647 -1.3554  0.4978  0.7557
 7173SOL    HW222205   3.092   3.655   4.769 -1.9711  0.1560  1.2015
 7174SOL     OW22206   7.326   3.795   3.896  0.5023  0.0862 -0.8382
 7174SOL    HW122207   7.316   3.870   3.955  1.7140 -0.1206 -0.3389
 7174SOL    HW222208   7.420   3.786   3.885  0.3251 -0.3745 -2.1943
 7175SOL     OW22209   1.489   2.342   5.399  0.0777 -0.0791  0.2112
 7175SOL    HW122210   1.460   2.430   5.377 -0.6033 -0.4786 -0.5166
 7175SOL    HW222211   1.454   2.326   5.487  1.4696  0.9225  0.9806
 7176SOL     OW22212   4.361   1.434   2.948  0.4868 -0.1659  0.4425
 7176SOL    HW122213   4.374   1.527   2.929 -2.1283  0.0530 -0.7072
 7176SOL    HW222214   4.376   1.390   2.864  1.1839 -0.7323  0.8558
 7177SOL     OW22215   0.071   1.104   7.433  0.1021  0.3263  0.4665
 7177SOL    HW122216   0.000   1.093   7.370  0.7413 -2.3423  0.1139
 7177SOL    HW222217   0.141   1.047   7.401  0.6692 -0.7035  3.2608
 7178SOL     OW22218   0.861   7.202   2.653  0.0819 -0.5423 -0.1475
 7178SOL    HW122219   0.916   7.246   2.717 -0.0495 -0.0187 -0.3871
 7178SOL    HW222220   0.805   7.145   2.705 -0.8481  0.7559  0.3289
 7179SOL     OW22221   0.848   0.415   5.768 -0.0950  0.3619  0.1933
 7179SOL    HW122222   0.912   0.353   5.803 -3.2957 -2.2842  2.0762
 7179SOL    HW222223   0.868   0.421   5.675  1.1882 -2.5632  0.1771
 7180SOL     OW22224   6.023   7.718   5.184  0.0233 -0.0193  0.5627
 7180SOL    HW122225   6.067   7.648   5.136  3.2777  1.7706  0.6985
 7180SOL    HW222226   6.014   7.788   5.120 -1.2641  0.2390  0.9974
 7181SOL     OW22227   5.379   7.754   1.007  0.3031 -0.4857  0.2667
 7181SOL    HW122228   5.459   7.792   1.042  0.4390  0.5352 -1.1101
 7181SOL    HW222229   5.407   7.702   0.932 -0.2291 -0.8583  0.3178
 7182SOL     OW22230   5.786   5.540   3.872 -0.7846  0.2418  0.1910
 7182SOL    HW122231   5.695   5.571   3.873 -1.2588 -1.0318 -0.9801
 7182SOL    HW222232   5.780   5.450   3.907 -0.1737 -0.2890 -1.0249
 7183SOL     OW22233   2.197   3.176   5.325  0.0760  0.4767 -0.6008
 7183SOL    HW122234   2.202   3.141   5.236  1.8710  0.7637 -0.6349
 7183SOL    HW222235   2.199   3.099   5.381  0.9506  0.3675 -0.7667
 7184SOL     OW22236   4.885   0.567   7.071  0.0615  0.4764  0.0079
 7184SOL    HW122237   4.949   0.513   7.117  0.3285  1.3222  0.6438
 7184SOL    HW222238   4.938   0.629   7.020 -0.2444  0.5619 -0.2114
 7185SOL     OW22239   7.494   7.734   1.048  0.5245  0.1224 -0.0554
 7185SOL    HW122240   7.419   7.722   1.105 -0.0247 -2.0131 -1.1381
 7185SOL    HW222241   7.548   7.799   1.094 -1.4611  0.9818  1.2186
 7186SOL     OW22242   0.238   6.170   4.209 -0.1149  0.4494  0.4173
 7186SOL    HW122243   0.187   6.245   4.180  0.9322  0.7202 -0.7948
 7186SOL    HW222244   0.204   6.150   4.296 -1.1687  1.6193  0.2948
 7187SOL     OW22245   1.859   6.120   0.310 -0.3207 -0.5808  0.2364
 7187SOL    HW122246   1.852   6.110   0.215 -0.8555 -1.0839  0.3161
 7187SOL    HW222247   1.831   6.035   0.344 -0.7191 -0.2104  0.8576
 7188SOL     OW22248   7.334   5.633   0.465  0.1663 -0.4712  0.6641
 7188SOL    HW122249   7.428   5.629   0.482  0.3077 -0.1655 -0.0304
 7188SOL    HW222250   7.294   5.611   0.549  0.8564 -0.7003  0.9398
 7189SOL     OW22251   2.846   3.147   3.477  0.5657  0.4534  0.0530
 7189SOL    HW122252   2.885   3.072   3.431 -0.7401  0.1310 -0.5791
 7189SOL    HW222253   2.921   3.199   3.506  1.4767 -0.5929 -0.3401
 7190SOL     OW22254   6.105   7.001   1.877 -0.1067 -0.7785  0.1211
 7190SOL    HW122255   6.140   7.082   1.915  1.2313 -1.3403  0.1363
 7190SOL    HW222256   6.180   6.941   1.876 -0.7339 -1.5668 -1.1770
 7191SOL     OW22257   7.068   4.759   6.096  0.3883  0.0812 -0.2769
 7191SOL    HW122258   7.094   4.667   6.105  0.7924 -0.0202 -1.9923
 7191SOL    HW222259   6.996   4.757   6.033  1.0016  0.9977 -1.0449
 7192SOL     OW22260   4.309   7.282   1.290  0.2799 -0.7007 -0.2917
 7192SOL    HW122261   4.246   7.351   1.270 -1.8682 -2.5418 -0.3319
 7192SOL    HW222262   4.387   7.306   1.240 -0.8998  0.8996 -1.4976
 7193SOL     OW22263   0.714   3.374   5.194  0.4346 -0.4648  0.0300
 7193SOL    HW122264   0.683   3.373   5.103  1.5222  0.7999 -0.3843
 7193SOL    HW222265   0.648   3.425   5.241  0.3023 -0.3932 -0.2310
 7194SOL     OW22266   4.505   6.854   3.846  0.0468  0.2770 -0.4086
 7194SOL    HW122267   4.596   6.872   3.823  0.0695  0.7426  0.0178
 7194SOL    HW222268   4.464   6.824   3.765  0.8484 -0.9960 -0.3582
 7195SOL     OW22269   0.482   7.763   6.955 -0.4369  0.0545 -0.3026
 7195SOL    HW122270   0.550   7.829   6.941  0.0038  0.0512  1.5288
 7195SOL    HW222271   0.418   7.779   6.887 -0.4840  2.5681  0.2500
 7196SOL     OW22272   1.524   2.189   1.597  0.2424  0.8502  0.4109
 7196SOL    HW122273   1.536   2.270   1.547 -0.9847  1.1383  0.5552
 7196SOL    HW222274   1.494   2.218   1.683 -0.4595  0.2395  0.3838
 7197SOL     OW22275   7.041   3.186   0.995 -0.0769  0.2343 -0.3917
 7197SOL    HW122276   7.071   3.095   1.004  0.8773  0.4688 -1.0605
 7197SOL    HW222277   7.121   3.237   0.989 -0.6148  1.0813 -0.4513
 7198SOL     OW22278   2.241   4.602   3.338 -0.2269  0.2401  0.0234
 7198SOL    HW122279   2.282   4.673   3.290 -0.8180  0.2888 -0.4166
 7198SOL    HW222280   2.253   4.625   3.430  0.0719  0.6221 -0.1114
 7199SOL     OW22281   4.485   0.817   3.460  0.2084  0.1812 -0.4829
 7199SOL    HW122282   4.493   0.878   3.387 -1.8554  0.0064 -0.9207
 7199SOL    HW222283   4.464   0.872   3.536  1.8639  0.3123 -0.0748
 7200SOL     OW22284   0.819   4.623   1.509 -0.5390 -0.5545 -0.3158
 7200SOL    HW122285   0.888   4.676   1.469  0.4740 -0.9758  0.8338
 7200SOL    HW222286   0.758   4.605   1.437  1.1410 -1.1620 -1.6416
 7201SOL     OW22287   5.316   0.976   6.934  0.1317 -0.3433 -0.3909
 7201SOL    HW122288   5.410   0.961   6.945  0.0265 -1.9961 -1.3306
 7201SOL    HW222289   5.309   1.021   6.849  0.0836  0.1148 -0.1482
 7202SOL     OW22290   0.032   1.112   5.386 -0.1370 -0.2491  0.6925
 7202SOL    HW122291  -0.014   1.033   5.358  0.0041 -0.8939  2.1899
 7202SOL    HW222292  -0.024   1.151   5.453 -0.4899  1.2866 -0.4229
 7203SOL     OW22293   1.545   5.184   4.138  0.0637 -0.1907  0.1767
 7203SOL    HW122294   1.553   5.189   4.043  0.8175 -0.5323  0.2163
 7203SOL    HW222295   1.561   5.092   4.159 -1.2958 -0.3705  0.5399
 7204SOL     OW22296   7.656   7.736   7.696 -0.3471 -0.0795  0.1552
 7204SOL    HW122297   7.569   7.775   7.686  0.1301  1.2129  0.8913
 7204SOL    HW222298   7.708   7.776   7.627  0.2750  1.0045  1.2281
 7205SOL     OW22299   1.694   2.788   6.354  0.9782 -0.4965  0.0618
 7205SOL    HW122300   1.672   2.820   6.442  2.3188 -1.6105  0.8607
 7205SOL    HW222301   1.684   2.693   6.361 -0.0911 -0.5171 -1.3766
 7206SOL     OW22302   3.179   2.080   2.623  0.1670  0.0377  0.0646
 7206SOL    HW122303   3.091   2.046   2.607  0.4141  0.1678 -1.8943
 7206SOL    HW222304   3.218   2.019   2.685 -1.7620  0.8175  2.1989
 7207SOL     OW22305   0.474   5.754   7.453  0.2880  0.3378 -0.1606
 7207SOL    HW122306   0.472   5.695   7.378 -0.2979  0.1702 -0.0208
 7207SOL    HW222307   0.386   5.792   7.456 -0.0209 -0.3838  0.9983
 7208SOL     OW22308   4.641   3.445   7.604 -0.0552  0.9504  0.6477
 7208SOL    HW122309   4.555   3.448   7.562 -0.9019  1.4675  2.3441
 7208SOL    HW222310   4.695   3.504   7.552 -0.7922  0.8372 -0.2773
 7209SOL     OW22311   7.220   6.733   2.109  0.6063  0.1557 -0.4861
 7209SOL    HW122312   7.277   6.659   2.130  0.1839  0.2589  1.1030
 7209SOL    HW222313   7.206   6.778   2.192 -2.1639 -0.1236 -0.7154
 7210SOL     OW22314   1.534   5.141   7.058  0.0355  0.0875 -0.7930
 7210SOL    HW122315   1.619   5.166   7.021 -0.3683  0.7299 -1.3109
 7210SOL    HW222316   1.556   5.099   7.141  0.7714  3.5638  0.9939
 7211SOL     OW22317   3.922   3.758   4.045  0.6965  0.1566 -0.3838
 7211SOL    HW122318   3.842   3.709   4.027 -1.6042  3.2376  0.4864
 7211SOL    HW222319   3.923   3.767   4.141  1.9817  0.3308 -0.4073
 7212SOL     OW22320   6.519   6.804   7.419  0.7465  0.0148 -0.0433
 7212SOL    HW122321   6.471   6.732   7.460 -0.3123  0.8555  0.2462
 7212SOL    HW222322   6.516   6.784   7.325  0.4552 -0.3078  0.0332
 7213SOL     OW22323   0.732   0.539   6.994 -0.3830 -0.2339  0.0791
 7213SOL    HW122324   0.694   0.514   6.910 -0.3483  0.8100 -0.2650
 7213SOL    HW222325   0.822   0.509   6.990 -0.5025 -0.5745 -0.0741
 7214SOL     OW22326   6.312   0.474   7.452 -0.2792 -0.3344  0.3212
 7214SOL    HW122327   6.326   0.457   7.545  0.1911  0.4996  0.4231
 7214SOL    HW222328   6.295   0.388   7.414 -1.6834 -0.5431  1.3646
 7215SOL     OW22329   3.711   2.465   0.219  0.0852 -0.0198  0.5608
 7215SOL    HW122330   3.727   2.529   0.150 -2.0076  0.6571  0.6418
 7215SOL    HW222331   3.671   2.516   0.290  1.1871 -0.8984  1.8691
 7216SOL     OW22332   6.060   3.719   1.502 -0.0266 -0.1164 -0.0436
 7216SOL    HW122333   5.991   3.784   1.493  1.6526  2.0089  1.3256
 7216SOL    HW222334   6.029   3.659   1.570 -0.5151  0.8207  0.5639
 7217SOL     OW22335   4.088   7.625   2.774  0.5808 -0.4500 -0.3005
 7217SOL    HW122336   4.182   7.643   2.768  0.6674 -1.3663 -2.1233
 7217SOL    HW222337   4.053   7.652   2.689 -1.1019  1.3421  0.8777
 7218SOL     OW22338   7.524   6.286   3.483 -0.0614  0.2486  0.0769
 7218SOL    HW122339   7.452   6.347   3.498 -0.5455  1.2687 -4.5945
 7218SOL    HW222340   7.603   6.335   3.505 -0.5890  1.6036 -0.9128
 7219SOL     OW22341   2.986   6.476   7.022 -0.1847 -0.1267  0.1473
 7219SOL    HW122342   3.008   6.550   6.967  0.2583 -1.1324 -1.0757
 7219SOL    HW222343   3.001   6.399   6.967  1.6321 -1.2789  2.0799
 7220SOL     OW22344   4.959   6.292   2.038  0.1831 -0.4275 -0.0451
 7220SOL    HW122345   4.943   6.242   1.958 -0.0213  0.3205 -0.4874
 7220SOL    HW222346   5.052   6.314   2.034  0.4485 -1.4089  0.5333
 7221SOL     OW22347   3.452   3.750   1.289  0.3980  0.4911 -0.4659
 7221SOL    HW122348   3.476   3.658   1.280 -0.5296  0.4221 -3.2630
 7221SOL    HW222349   3.357   3.749   1.299  0.1701  1.1415 -2.2049
 7222SOL     OW22350   6.104   7.412   0.597 -0.0317 -0.5593 -0.1181
 7222SOL    HW122351   6.053   7.449   0.669 -0.2852  0.9969 -1.0489
 7222SOL    HW222352   6.164   7.351   0.639  0.3464  0.8610  1.5255
 7223SOL     OW22353   2.701   3.616   7.296 -0.5985 -0.4036 -0.2121
 7223SOL    HW122354   2.763   3.549   7.322 -1.4672 -0.9789  0.4311
 7223SOL    HW222355   2.736   3.650   7.214  1.6677  0.7551  1.1410
 7224SOL     OW22356   5.211   6.383   5.797 -0.1223 -0.4263 -0.5268
 7224SOL    HW122357   5.281   6.324   5.824  0.8798  0.5344 -0.9637
 7224SOL    HW222358   5.254   6.467   5.784 -1.9050  1.1170  2.5161
 7225SOL     OW22359   0.677   0.390   1.975  0.4740  0.2396 -0.0544
 7225SOL    HW122360   0.713   0.417   1.890 -0.2924 -2.1740 -1.2268
 7225SOL    HW222361   0.749   0.405   2.037  1.1578  1.7717 -1.1474
 7226SOL     OW22362   5.987   3.084   3.698  0.5705  0.0254 -0.0769
 7226SOL    HW122363   5.923   3.090   3.768  0.7354  1.0851  0.0007
 7226SOL    HW222364   6.031   3.000   3.712 -0.5453 -0.5519  0.0709
 7227SOL     OW22365   6.097   1.842   0.305  0.6173  0.6583 -0.6674
 7227SOL    HW122366   6.076   1.933   0.324 -0.1461  0.2238  0.7279
 7227SOL    HW222367   6.018   1.806   0.265  0.3621  0.2262  0.2085
 7228SOL     OW22368   0.603   2.358   4.457 -0.8783 -0.2860  0.4469
 7228SOL    HW122369   0.647   2.318   4.532 -1.5624 -0.7646  0.6054
 7228SOL    HW222370   0.663   2.427   4.428  1.0365 -2.3136 -0.7161
 7229SOL     OW22371   2.456   0.314   4.991 -0.4354 -0.6234 -0.1995
 7229SOL    HW122372   2.434   0.256   4.918 -1.7654  0.1798 -0.4747
 7229SOL    HW222373   2.450   0.402   4.954  1.9860 -0.2704  0.0936
 7230SOL     OW22374   3.770   0.267   3.205  0.0708  0.0290 -1.3775
 7230SOL    HW122375   3.705   0.335   3.225  1.6743  1.0667  0.8209
 7230SOL    HW222376   3.844   0.315   3.168  1.4330 -0.3251  0.6765
 7231SOL     OW22377   7.441   0.442   5.194 -0.7528 -0.3851  0.2202
 7231SOL    HW122378   7.350   0.422   5.218 -0.4382 -1.5239  0.5615
 7231SOL    HW222379   7.479   0.356   5.173  0.2739  0.0657  0.1841
 7232SOL     OW22380   7.081   5.982   3.963  0.4564 -0.7117  0.3352
 7232SOL    HW122381   6.997   6.025   3.976 -0.7198 -2.8814  0.5271
 7232SOL    HW222382   7.100   5.939   4.047 -0.3588 -3.5778 -0.8047
 7233SOL     OW22383   2.020   5.130   3.040 -0.0362 -0.3201  0.2630
 7233SOL    HW122384   1.970   5.163   3.114 -1.0022 -0.8473 -0.1381
 7233SOL    HW222385   2.036   5.038   3.061  1.7208  0.0849  0.8845
 7234SOL     OW22386   0.558   4.851   3.780 -0.0337  0.5689  0.6034
 7234SOL    HW122387   0.639   4.830   3.734 -1.0874 -1.9632 -0.2908
 7234SOL    HW222388   0.568   4.811   3.867  0.5170  2.2192  1.3406
 7235SOL     OW22389   6.564   4.791   4.858 -0.3348 -0.5976  0.3952
 7235SOL    HW122390   6.570   4.788   4.954 -0.3939  2.8239  0.6161
 7235SOL    HW222391   6.652   4.769   4.828 -0.3838 -1.9967  1.1653
 7236SOL     OW22392   6.201   7.053   7.693 -0.3157  0.2207 -0.6731
 7236SOL    HW122393   6.242   7.120   7.748 -1.5921  0.5396 -0.0652
 7236SOL    HW222394   6.257   7.047   7.616  1.3018  0.0627  0.4710
 7237SOL     OW22395   2.004   6.794   1.934  0.0687 -0.6165 -0.0622
 7237SOL    HW122396   2.087   6.781   1.978 -0.4758 -1.2321  0.8227
 7237SOL    HW222397   2.013   6.878   1.888  2.4297 -2.2770 -3.0033
 7238SOL     OW22398   3.155   3.392   7.231  0.2237 -0.0088  0.4597
 7238SOL    HW122399   3.157   3.331   7.306 -0.7611  1.6643  1.9264
 7238SOL    HW222400   3.230   3.450   7.246  0.6037 -0.2571 -0.4204
 7239SOL     OW22401   0.985   0.589   4.001  0.6672 -0.0217  0.0119
 7239SOL    HW122402   0.972   0.640   4.081 -2.0813  1.3984 -1.2256
 7239SOL    HW222403   0.941   0.506   4.018 -0.4429  0.5056 -0.1679
 7240SOL     OW22404   7.074   7.198   7.044 -0.4192  0.1311  0.0687
 7240SOL    HW122405   7.165   7.213   7.018 -0.4015  0.9731  0.5562
 7240SOL    HW222406   7.074   7.112   7.086  0.0075 -0.1852 -0.5840
 7241SOL     OW22407   4.051   4.139   5.955  0.0456 -0.1479  0.1084
 7241SOL    HW122408   4.115   4.150   5.884 -0.3696 -0.9988 -0.4153
 7241SOL    HW222409   4.022   4.048   5.947 -1.1756  0.2036  0.3830
 7242SOL     OW22410   6.829   7.033   5.333  0.4141 -0.0744  0.4446
 7242SOL    HW122411   6.813   6.982   5.254  0.1420  1.0254 -0.2413
 7242SOL    HW222412   6.920   7.062   5.325  1.1608 -1.8728  1.7052
 7243SOL     OW22413   5.406   3.178   7.576  1.0035 -0.0722 -0.3208
 7243SOL    HW122414   5.394   3.271   7.558  0.9092 -0.2669 -1.3709
 7243SOL    HW222415   5.437   3.142   7.493  0.1516 -1.1306 -0.2021
 7244SOL     OW22416   3.786   7.754   0.933 -0.4181  1.2690 -0.6350
 7244SOL    HW122417   3.803   7.667   0.897 -1.1719  0.5419  0.7134
 7244SOL    HW222418   3.690   7.762   0.933 -0.4224  1.4654  0.6716
 7245SOL     OW22419   4.298   7.221   5.640  0.1031 -0.0772  0.6671
 7245SOL    HW122420   4.253   7.231   5.557 -1.4092 -0.3095  1.4155
 7245SOL    HW222421   4.343   7.137   5.634  0.7799  0.3424 -0.2441
 7246SOL     OW22422   6.711   0.349   0.840  0.2134  0.1951  0.3276
 7246SOL    HW122423   6.622   0.356   0.873  0.3795  2.7082  0.4395
 7246SOL    HW222424   6.731   0.436   0.806  2.6615 -0.2662  0.3979
 7247SOL     OW22425   0.926   4.860   5.451  0.0154  0.5461 -0.4467
 7247SOL    HW122426   0.931   4.764   5.448 -1.6006  0.4720 -2.4253
 7247SOL    HW222427   0.940   4.881   5.543  1.2367 -1.5153 -0.0855
 7248SOL     OW22428   1.931   4.510   4.852  1.0496 -0.0908 -0.3127
 7248SOL    HW122429   1.923   4.498   4.947  0.2773 -0.5242 -0.4250
 7248SOL    HW222430   1.840   4.509   4.820  1.3369 -0.6692 -1.1404
 7249SOL     OW22431   7.168   3.687   1.823  0.0318 -0.5110 -0.2892
 7249SOL    HW122432   7.204   3.776   1.816 -0.3795 -0.3419 -0.3081
 7249SOL    HW222433   7.197   3.656   1.909  0.8896 -0.6814 -0.6371
 7250SOL     OW22434   3.907   0.483   5.145 -0.0425  0.2376 -0.6207
 7250SOL    HW122435   3.991   0.523   5.122  1.4563 -1.0849  2.0786
 7250SOL    HW222436   3.852   0.557   5.171  1.1406  0.9635 -0.0657
 7251SOL     OW22437   5.861   0.497   6.019  0.3439  0.7818 -0.1368
 7251SOL    HW122438   5.913   0.420   6.041  1.3944  0.9941 -1.7834
 7251SOL    HW222439   5.776   0.481   6.062  1.0257 -0.5669  0.7819
 7252SOL     OW22440   2.805   6.464   0.963  0.0133  0.1856  0.0533
 7252SOL    HW122441   2.717   6.500   0.947  0.1195  0.7984  0.8406
 7252SOL    HW222442   2.839   6.513   1.037  0.1458 -1.5624  1.2216
 7253SOL     OW22443   3.487   0.988   4.348  0.3907  0.5070  0.3929
 7253SOL    HW122444   3.478   0.917   4.284  0.4435  0.7664  0.0942
 7253SOL    HW222445   3.489   0.944   4.433  2.5155 -0.0239  0.1228
 7254SOL     OW22446   7.422   1.527   5.154 -0.4081 -0.6111  0.2779
 7254SOL    HW122447   7.503   1.507   5.199 -0.3864 -1.0933  0.0381
 7254SOL    HW222448   7.358   1.465   5.191 -1.2326  1.1797  2.0408
 7255SOL     OW22449   3.698   2.391   3.695 -0.3343 -0.2106 -0.1388
 7255SOL    HW122450   3.778   2.419   3.650  0.3325 -0.3676  0.9223
 7255SOL    HW222451   3.727   2.363   3.781 -1.5022 -0.5766  0.1585
 7256SOL     OW22452   6.310   2.128   6.228  0.1655 -0.1242 -0.8895
 7256SOL    HW122453   6.383   2.189   6.215 -1.4276  1.8519 -1.1817
 7256SOL    HW222454   6.269   2.121   6.142 -1.0441  0.2817 -0.3745
 7257SOL     OW22455   5.288   0.783   2.564  0.5109  0.1497 -0.2883
 7257SOL    HW122456   5.349   0.716   2.595  2.0104  1.2817 -0.6682
 7257SOL    HW222457   5.323   0.865   2.599 -1.5065  0.7182  0.4884
 7258SOL     OW22458   5.125   6.988   2.851  0.9780 -0.1064  0.3201
 7258SOL    HW122459   5.214   7.004   2.818  0.9026 -0.7320 -0.2134
 7258SOL    HW222460   5.074   6.967   2.773 -0.1726  2.3285  0.3326
 7259SOL     OW22461   1.382   1.460   1.366  0.2619  0.3382 -0.6828
 7259SOL    HW122462   1.475   1.451   1.384 -0.0674 -2.2253  0.1660
 7259SOL    HW222463   1.349   1.516   1.437  0.9045 -0.0897 -0.0338
 7260SOL     OW22464   3.924   2.680   2.353 -0.5090 -1.1065 -0.5937
 7260SOL    HW122465   3.996   2.625   2.321  0.5575  0.1406 -0.4141
 7260SOL    HW222466   3.963   2.731   2.424 -1.7258 -0.7870 -0.1409
 7261SOL     OW22467   7.179   4.970   5.749 -0.0977  0.4380 -0.0534
 7261SOL    HW122468   7.159   4.988   5.657  0.4209 -0.5946 -0.3845
 7261SOL    HW222469   7.125   5.032   5.797 -2.0969 -0.4698 -0.9858
 7262SOL     OW22470   3.998   3.425   0.029 -0.0894 -0.1596  0.9479
 7262SOL    HW122471   3.969   3.448   0.117  0.6837 -1.6339  1.6172
 7262SOL    HW222472   4.088   3.458   0.024 -0.2779  0.3135  0.5355
 7263SOL     OW22473   3.971   1.966   5.327  0.5643 -0.1918 -0.0103
 7263SOL    HW122474   4.029   1.922   5.389  3.9432  1.4833 -1.7118
 7263SOL    HW222475   3.972   1.911   5.249 -0.3782 -0.2679  0.0215
 7264SOL     OW22476   4.475   2.815   6.271  0.4322 -0.2929  0.5456
 7264SOL    HW122477   4.527   2.736   6.255  2.2705  0.6416  1.5979
 7264SOL    HW222478   4.532   2.887   6.247 -1.2818  0.7593 -0.5670
 7265SOL     OW22479   5.394   0.065   7.432  0.8290 -0.0702 -0.4050
 7265SOL    HW122480   5.448   0.139   7.459  0.2674  0.5469 -0.9469
 7265SOL    HW222481   5.379   0.016   7.512 -1.3758  2.0883  0.6345
 7266SOL     OW22482   3.825   7.252   0.643  0.2402 -0.5738  0.4796
 7266SOL    HW122483   3.812   7.273   0.550  1.2995 -1.3104  0.1479
 7266SOL    HW222484   3.739   7.223   0.672 -0.8503  2.2734  0.4928
 7267SOL     OW22485   7.432   5.025   4.680 -0.0746  0.9156  0.2280
 7267SOL    HW122486   7.423   5.116   4.654 -0.9433  0.4443 -1.2858
 7267SOL    HW222487   7.361   5.010   4.742  1.0009  1.6250  1.6932
 7268SOL     OW22488   1.298   0.633   0.831 -0.0720 -0.5660  0.0766
 7268SOL    HW122489   1.281   0.703   0.768  0.6226 -0.1480  0.3492
 7268SOL    HW222490   1.344   0.566   0.780 -2.5542 -1.7870 -0.7143
 7269SOL     OW22491   1.175   6.562   0.733  0.2692  0.0587 -0.0444
 7269SOL    HW122492   1.248   6.531   0.787 -1.0026  0.2833  1.8719
 7269SOL    HW222493   1.217   6.595   0.653  2.1191 -1.2587  0.3215
 7270SOL     OW22494   1.176   6.722   6.734 -0.0411  0.3026 -0.2712
 7270SOL    HW122495   1.111   6.704   6.801 -1.5484  0.9912 -1.4741
 7270SOL    HW222496   1.189   6.639   6.689 -1.6761  0.5707 -1.3194
 7271SOL     OW22497   4.094   5.222   4.455  0.2288 -0.2908  0.3143
 7271SOL    HW122498   4.007   5.218   4.495  1.0698 -1.1385  2.1701
 7271SOL    HW222499   4.130   5.134   4.467  2.2615  0.6671  1.8576
 7272SOL     OW22500   2.155   6.188   2.495  0.4394 -0.4437 -0.5862
 7272SOL    HW122501   2.124   6.257   2.554  1.0080  0.3708 -1.2226
 7272SOL    HW222502   2.219   6.140   2.547 -0.7371 -1.1931  0.2242
 7273SOL     OW22503   0.044   4.726   4.844  0.3307 -0.2923 -0.0880
 7273SOL    HW122504   0.018   4.657   4.905  0.3378  1.4826  2.0467
 7273SOL    HW222505   0.097   4.681   4.778 -0.4177 -2.4456  0.6890
 7274SOL     OW22506   6.549   4.111   0.370  0.4725  0.1347  0.1514
 7274SOL    HW122507   6.468   4.163   0.373  0.0483 -0.4395 -1.0294
 7274SOL    HW222508   6.546   4.059   0.450 -1.3436 -1.3359 -0.8011
 7275SOL     OW22509   7.204   4.397   2.647 -0.4031 -0.6848 -0.2872
 7275SOL    HW122510   7.262   4.391   2.572  1.2871 -1.1924  0.9964
 7275SOL    HW222511   7.262   4.413   2.722 -2.0707  0.5801  0.8350
 7276SOL     OW22512   4.130   1.423   2.111  1.0771 -0.0188 -0.2757
 7276SOL    HW122513   4.147   1.450   2.201  0.7587 -0.4135 -0.0890
 7276SOL    HW222514   4.058   1.360   2.118 -0.0915  1.2020 -0.9786
 7277SOL     OW22515   1.626   5.470   1.067 -0.7418  0.4729  0.2133
 7277SOL    HW122516   1.703   5.511   1.028  0.0931  0.4252  1.7643
 7277SOL    HW222517   1.645   5.376   1.064 -1.9228  0.2237 -1.7800
 7278SOL     OW22518   4.893   2.251   0.017 -0.2332  0.4339 -0.7178
 7278SOL    HW122519   4.930   2.220  -0.066  0.3587  0.6769 -0.5507
 7278SOL    HW222520   4.967   2.247   0.078 -0.8471 -0.4434 -0.0219
 7279SOL     OW22521   1.092   5.110   5.838 -0.1758  0.2986  0.3684
 7279SOL    HW122522   1.142   5.166   5.897 -0.7545  1.2249 -0.0022
 7279SOL    HW222523   1.129   5.128   5.751 -0.3157  0.0519  0.2561
 7280SOL     OW22524   4.786   1.417   2.283 -0.1284  0.0316 -0.6446
 7280SOL    HW122525   4.840   1.392   2.358 -0.5626 -0.1785 -0.4026
 7280SOL    HW222526   4.703   1.372   2.297 -0.1330 -0.1930 -1.3694
 7281SOL     OW22527   5.162   6.480   0.562 -0.3328 -0.0425 -1.0129
 7281SOL    HW122528   5.084   6.515   0.605 -0.9717 -2.2905 -0.1762
 7281SOL    HW222529   5.130   6.447   0.478 -0.2937 -0.8723 -0.7142
 7282SOL     OW22530   2.648   4.696   7.617  0.3954  0.0231  0.0215
 7282SOL    HW122531   2.621   4.637   7.547 -1.2900  0.5709  0.1739
 7282SOL    HW222532   2.666   4.638   7.691 -0.3398 -0.3628 -0.0986
 7283SOL     OW22533   4.029   5.566   2.361 -1.4843 -0.0493 -0.4570
 7283SOL    HW122534   4.090   5.574   2.287  0.9912 -1.2983  1.3207
 7283SOL    HW222535   4.001   5.656   2.378  2.1504  1.1205  0.3471
 7284SOL     OW22536   1.094   2.417   4.533 -0.1281  0.1469 -0.0763
 7284SOL    HW122537   1.011   2.464   4.537  0.3726  0.9835  0.8130
 7284SOL    HW222538   1.153   2.477   4.488 -0.5780 -1.4129 -3.0413
 7285SOL     OW22539   5.183   6.525   1.329  1.3319 -0.3634 -0.1445
 7285SOL    HW122540   5.104   6.543   1.380  1.6490  1.5791 -0.2700
 7285SOL    HW222541   5.247   6.494   1.393  0.5730 -1.7069 -0.0053
 7286SOL     OW22542   7.366   3.572   4.811  0.5115  0.3249 -0.4445
 7286SOL    HW122543   7.422   3.543   4.739  1.2507 -2.3556  1.0484
 7286SOL    HW222544   7.277   3.573   4.773  0.9191 -0.6951 -1.4953
 7287SOL     OW22545   7.591   3.810   7.421  0.0408 -0.2932  0.1386
 7287SOL    HW122546   7.675   3.856   7.416 -0.6876  0.9590 -2.3793
 7287SOL    HW222547   7.564   3.800   7.330 -1.4899 -2.7382  0.7747
 7288SOL     OW22548   0.101   3.347   2.273 -0.2996 -0.4851  0.2069
 7288SOL    HW122549   0.042   3.341   2.348 -0.7057 -0.3439 -0.0980
 7288SOL    HW222550   0.058   3.296   2.205 -1.7120  2.2160 -1.0804
 7289SOL     OW22551   4.166   5.132   1.062 -0.0380  0.7636 -0.2599
 7289SOL    HW122552   4.228   5.169   0.999  0.7134 -0.1864 -0.1135
 7289SOL    HW222553   4.163   5.197   1.133  0.8058  0.8317 -0.2683
 7290SOL     OW22554   4.650   2.979   7.656  0.4661  0.0076  0.2319
 7290SOL    HW122555   4.665   2.913   7.724  0.1078 -0.1591  0.1546
 7290SOL    HW222556   4.718   2.962   7.591 -0.2106 -0.9266 -0.2562
 7291SOL     OW22557   6.858   6.089   7.521  0.1764 -0.2424 -0.5976
 7291SOL    HW122558   6.796   6.035   7.472  0.7206 -0.5905 -0.9114
 7291SOL    HW222559   6.886   6.156   7.458  0.0538 -0.0314 -0.4292
 7292SOL     OW22560   1.163   2.114   3.150 -0.7225  0.2892 -0.4200
 7292SOL    HW122561   1.171   2.134   3.057 -0.8441  0.9919 -0.2853
 7292SOL    HW222562   1.077   2.149   3.174 -0.3830  0.7579  0.1164
 7293SOL     OW22563   1.536   3.728   5.016 -0.7325 -0.5654 -0.4619
 7293SOL    HW122564   1.501   3.700   4.932 -2.2326 -1.5668  0.4478
 7293SOL    HW222565   1.460   3.734   5.073 -0.2378  3.2708  0.0466
 7294SOL     OW22566   2.067   6.532   1.280  0.0809 -0.2129 -0.6944
 7294SOL    HW122567   2.022   6.610   1.248 -0.5404 -0.3446 -0.1808
 7294SOL    HW222568   2.059   6.469   1.209 -1.1129 -0.4433 -0.3760
 7295SOL     OW22569   0.891   1.694   3.874  0.2730  0.1554 -0.1037
 7295SOL    HW122570   0.881   1.624   3.808  0.1800 -0.8833  0.9828
 7295SOL    HW222571   0.895   1.774   3.822  0.6770 -0.6690 -1.4197
 7296SOL     OW22572   6.151   1.744   1.512 -0.0833  0.0133  0.2751
 7296SOL    HW122573   6.119   1.655   1.526 -0.3906  0.2738  1.2776
 7296SOL    HW222574   6.073   1.793   1.485 -0.1620  0.2342  0.8902
 7297SOL     OW22575   6.237   6.460   2.420 -0.3722 -0.0029  0.1593
 7297SOL    HW122576   6.198   6.422   2.341  0.9101  0.0091 -0.4960
 7297SOL    HW222577   6.285   6.536   2.389 -0.9520  0.7969  1.1478
 7298SOL     OW22578   5.709   3.172   4.331 -0.9639  0.3621 -0.1238
 7298SOL    HW122579   5.697   3.228   4.407 -0.9897  0.6990 -0.3735
 7298SOL    HW222580   5.679   3.085   4.359 -1.3075  0.5639  0.1375
 7299SOL     OW22581   7.198   5.646   4.973  0.0978  0.0095 -0.2747
 7299SOL    HW122582   7.115   5.611   4.940 -0.5790  1.1860  0.0912
 7299SOL    HW222583   7.258   5.639   4.899 -0.8182  0.6970 -1.1203
 7300SOL     OW22584   5.426   2.499   5.036  0.1186  0.2223 -0.5061
 7300SOL    HW122585   5.343   2.525   4.996  0.6416  0.3751 -1.5287
 7300SOL    HW222586   5.491   2.511   4.967  1.0166  0.2108  0.3101
 7301SOL     OW22587   3.621   6.530   6.958  0.4054  0.1103  0.7508
 7301SOL    HW122588   3.610   6.497   7.047  1.6117 -0.0719  0.8543
 7301SOL    HW222589   3.710   6.567   6.957  1.6512 -2.6035 -1.1536
 7302SOL     OW22590   3.098   1.249   4.213  0.4460 -0.0558 -0.0119
 7302SOL    HW122591   3.177   1.210   4.177  1.4378  0.7176  1.2251
 7302SOL    HW222592   3.105   1.235   4.307 -0.6449  0.4657  0.1689
 7303SOL     OW22593   1.149   1.986   5.257  0.0539 -0.1302 -0.4297
 7303SOL    HW122594   1.103   1.994   5.174  2.0053 -0.2581 -1.5783
 7303SOL    HW222595   1.139   2.071   5.299 -1.2229 -0.1711 -0.6143
 7304SOL     OW22596   4.393   6.649   3.657  0.2275 -0.3651 -0.0772
 7304SOL    HW122597   4.327   6.692   3.712  0.5111  0.6401 -0.4914
 7304SOL    HW222598   4.355   6.648   3.570  0.8846  0.5592 -0.3952
 7305SOL     OW22599   1.784   5.459   7.698  0.1339 -0.4028  0.2049
 7305SOL    HW122600   1.834   5.421   7.626  0.8355 -0.2379  0.6031
 7305SOL    HW222601   1.781   5.391   7.765 -0.3907 -0.5030  0.0809
 7306SOL     OW22602   0.715   2.292   3.941  0.2221  0.1622 -0.2210
 7306SOL    HW122603   0.695   2.212   3.989 -1.1103 -0.4281 -1.6639
 7306SOL    HW222604   0.650   2.355   3.971  0.3380  0.2471 -0.1498
 7307SOL     OW22605   1.702   0.163   1.071 -1.0067 -0.4397  0.2116
 7307SOL    HW122606   1.758   0.136   0.998 -2.3061 -0.4426 -0.8306
 7307SOL    HW222607   1.614   0.142   1.042 -1.5526 -0.5057  1.8450
 7308SOL     OW22608   4.323   6.349   4.674  0.0763  0.1338  0.1235
 7308SOL    HW122609   4.260   6.368   4.606 -0.5599 -2.1441 -0.0021
 7308SOL    HW222610   4.287   6.273   4.721  2.4543 -0.9987  0.3151
 7309SOL     OW22611   0.105   5.339   3.201  0.5010 -0.3534  0.3102
 7309SOL    HW122612   0.183   5.292   3.173  0.3625 -1.4032  1.5963
 7309SOL    HW222613   0.138   5.412   3.253  0.6754  0.3473 -0.7590
 7310SOL     OW22614   0.430   5.718   5.788  0.1910  0.7562  0.0024
 7310SOL    HW122615   0.463   5.659   5.856 -0.6944  2.0946  1.6520
 7310SOL    HW222616   0.405   5.659   5.716  0.8960 -0.7179  0.9082
 7311SOL     OW22617   0.194   7.086   7.675  0.7301 -0.2892 -0.1865
 7311SOL    HW122618   0.263   7.107   7.613  1.3704  0.3261  0.7030
 7311SOL    HW222619   0.219   7.001   7.712  0.4845 -0.5309 -0.5623
 7312SOL     OW22620   4.877   6.156   2.638 -0.8086 -0.4908 -0.1615
 7312SOL    HW122621   4.815   6.229   2.651 -1.2674 -0.9454  0.2309
 7312SOL    HW222622   4.956   6.198   2.604  0.0774  0.6635  2.9059
 7313SOL     OW22623   3.749   2.156   7.712  0.4222  0.1963 -0.5380
 7313SOL    HW122624   3.782   2.139   7.623  1.4925  0.3065 -0.1728
 7313SOL    HW222625   3.805   2.225   7.745 -0.2566  0.4571  0.0781
 7314SOL     OW22626   6.111   3.048   5.851  0.1815  0.1770  0.2189
 7314SOL    HW122627   6.061   2.985   5.799  0.3111 -1.2901  1.8039
 7314SOL    HW222628   6.058   3.128   5.848  0.0037  0.0413 -1.8106
 7315SOL     OW22629   0.356   1.749   1.275 -0.2339  0.1170  0.2908
 7315SOL    HW122630   0.294   1.677   1.268  0.7478 -0.6553 -0.9000
 7315SOL    HW222631   0.376   1.771   1.184  2.3831 -0.6881  0.5975
 7316SOL     OW22632   0.573   2.137   1.762 -0.3148  0.1210 -0.4823
 7316SOL    HW122633   0.591   2.098   1.848 -0.5030 -0.3994 -0.6754
 7316SOL    HW222634   0.495   2.091   1.731  0.0319 -0.0242 -1.1428
 7317SOL     OW22635   5.483   0.103   6.576 -0.2758 -0.1916  0.0452
 7317SOL    HW122636   5.433   0.095   6.658 -2.3599  1.0904 -1.0100
 7317SOL    HW222637   5.418   0.088   6.507  1.0599  0.4899 -1.4132
 7318SOL     OW22638   5.055   4.975   3.119 -0.6255 -0.5409 -0.1272
 7318SOL    HW122639   5.125   4.974   3.184 -1.7643 -0.0350  1.1547
 7318SOL    HW222640   5.078   4.905   3.057 -0.3093 -2.1332  1.7036
 7319SOL     OW22641   1.999   1.513   3.913 -0.7597  0.4334  0.0476
 7319SOL    HW122642   2.020   1.421   3.894  0.8758  0.6982  0.4341
 7319SOL    HW222643   1.996   1.554   3.827  0.7277  0.4402 -0.0289
 7320SOL     OW22644   2.808   3.493   5.568 -0.1408  0.3837 -0.1552
 7320SOL    HW122645   2.878   3.488   5.634 -0.9156 -2.7577  0.6037
 7320SOL    HW222646   2.852   3.481   5.484  0.6018  2.1272 -0.0402
 7321SOL     OW22647   3.214   5.062   5.778 -0.3451  0.4033  0.0752
 7321SOL    HW122648   3.237   5.057   5.871  1.0437  2.4134 -0.1024
 7321SOL    HW222649   3.119   5.048   5.776 -0.2196 -1.0390  1.6101
 7322SOL     OW22650   1.923   2.183   2.145 -0.1811  0.1375 -0.7931
 7322SOL    HW122651   1.970   2.100   2.152  0.5690  0.5083 -1.3714
 7322SOL    HW222652   1.841   2.160   2.101 -1.5408 -0.8726  1.9692
 7323SOL     OW22653   4.691   6.876   5.645  0.0021  0.2451  0.6030
 7323SOL    HW122654   4.704   6.787   5.675  1.5759  0.7585  1.5035
 7323SOL    HW222655   4.700   6.871   5.549  0.1101 -0.5417  0.6548
 7324SOL     OW22656   3.914   1.743   1.644  0.3109  0.3130  0.3722
 7324SOL    HW122657   3.826   1.706   1.649 -0.0148  0.9362 -0.4788
 7324SOL    HW222658   3.934   1.742   1.550  1.5576 -0.6058  0.6216
 7325SOL     OW22659   0.253   6.332   7.099 -0.5412  0.3680  0.2317
 7325SOL    HW122660   0.321   6.389   7.064  0.1275  0.0225  0.9356
 7325SOL    HW222661   0.174   6.387   7.102  0.1523  1.3533  1.1547
 7326SOL     OW22662   2.695   3.860   4.012 -0.0778  0.0202 -0.0979
 7326SOL    HW122663   2.761   3.794   3.994  0.7336  0.8620 -0.3242
 7326SOL    HW222664   2.693   3.914   3.933 -2.6525 -1.2717 -1.0051
 7327SOL     OW22665   5.444   0.532   5.187 -1.1376  0.3378  0.0042
 7327SOL    HW122666   5.403   0.455   5.147 -0.6698 -0.7828  1.5640
 7327SOL    HW222667   5.443   0.513   5.281  0.3665  1.5609  0.3048
 7328SOL     OW22668   6.042   0.124   3.606  0.7408  0.2572  0.1532
 7328SOL    HW122669   5.975   0.055   3.607  1.2574 -0.3396 -1.9942
 7328SOL    HW222670   6.000   0.198   3.564  1.4483 -0.2051 -1.4436
 7329SOL     OW22671   0.242   4.089   6.151  0.0178 -0.0767  0.3496
 7329SOL    HW122672   0.151   4.121   6.150 -0.1723 -0.5184 -1.9358
 7329SOL    HW222673   0.264   4.078   6.059  2.1454 -0.7603  0.8960
 7330SOL     OW22674   3.526   5.702   2.147 -0.8780 -0.2704  0.0233
 7330SOL    HW122675   3.463   5.632   2.167 -0.3473 -0.6664  0.3544
 7330SOL    HW222676   3.480   5.759   2.086 -1.1792 -1.1361 -0.5809
 7331SOL     OW22677   2.002   7.761   2.012  0.3106  0.4587 -0.1828
 7331SOL    HW122678   1.991   7.754   1.917 -0.3082  0.0230 -0.0888
 7331SOL    HW222679   2.074   7.823   2.023  2.9503 -2.2672 -1.0105
 7332SOL     OW22680   0.615   7.669   7.661  0.4116 -0.0767 -0.1595
 7332SOL    HW122681   0.671   7.673   7.739  1.2690  2.9833 -0.8093
 7332SOL    HW222682   0.526   7.673   7.697  0.5975 -2.2639  0.7448
 7333SOL     OW22683   1.466   6.500   1.856  0.3511 -0.2694 -0.3336
 7333SOL    HW122684   1.383   6.465   1.823 -1.1582  1.5981  1.2005
 7333SOL    HW222685   1.477   6.458   1.941  1.5419 -1.2429 -0.9411
 7334SOL     OW22686   2.332   1.455   0.031 -0.2874  0.2163  0.0211
 7334SOL    HW122687   2.337   1.364  -0.000  1.2478 -0.3067  1.6132
 7334SOL    HW222688   2.423   1.481   0.045 -0.7908  1.0771  2.0665
 7335SOL     OW22689   5.970   4.013   1.674  0.3561 -0.3665  0.3110
 7335SOL    HW122690   5.972   3.972   1.760  0.9275 -1.8661 -0.3997
 7335SOL    HW222691   5.899   3.968   1.627  0.0509  0.4311 -0.0288
 7336SOL     OW22692   6.886   2.243   1.999  0.4518 -0.0339 -0.2817
 7336SOL    HW122693   6.948   2.197   1.943 -0.4793 -1.5410 -0.1239
 7336SOL    HW222694   6.846   2.309   1.942  1.5051  0.3295 -0.6235
 7337SOL     OW22695   6.644   0.361   7.283  0.0565  0.0005  0.0407
 7337SOL    HW122696   6.604   0.312   7.354  0.0155  0.6006  0.4412
 7337SOL    HW222697   6.735   0.375   7.311  0.4337 -0.9547 -0.6534
 7338SOL     OW22698   1.517   2.968   5.053  0.2567  0.2015 -0.8188
 7338SOL    HW122699   1.424   2.946   5.044  0.6323 -0.9304 -2.3768
 7338SOL    HW222700   1.560   2.883   5.062  1.1686  0.7094 -0.3451
 7339SOL     OW22701   3.894   1.155   4.925 -0.1934  0.1137 -0.2733
 7339SOL    HW122702   3.893   1.247   4.950  1.6993 -0.0588  0.5725
 7339SOL    HW222703   3.985   1.128   4.935 -0.5769 -1.6865 -1.1684
 7340SOL     OW22704   3.068   6.849   0.937 -0.2373 -0.2281 -0.1165
 7340SOL    HW122705   3.066   6.906   1.013 -0.8664  2.5111 -2.0175
 7340SOL    HW222706   3.159   6.854   0.906 -0.2761 -0.3330 -0.2480
 7341SOL     OW22707   4.333   2.707   0.105 -0.1825 -0.2805 -0.8742
 7341SOL    HW122708   4.337   2.717   0.200  1.3693 -1.8374 -0.7139
 7341SOL    HW222709   4.372   2.621   0.088  0.9038  0.5375 -3.0063
 7342SOL     OW22710   3.708   4.258   6.403  0.6705  0.3177  0.1930
 7342SOL    HW122711   3.691   4.175   6.359 -1.1669  1.1261 -0.7606
 7342SOL    HW222712   3.682   4.241   6.494  0.4498 -0.1975  0.0431
 7343SOL     OW22713   0.154   2.611   2.558 -0.1898 -0.0588 -0.1747
 7343SOL    HW122714   0.237   2.615   2.605 -1.1354 -1.0605  1.7295
 7343SOL    HW222715   0.092   2.654   2.617 -1.2031 -0.2528 -1.0762
 7344SOL     OW22716   1.383   5.327   0.014 -0.4340  0.1903 -0.0239
 7344SOL    HW122717   1.435   5.400  -0.019  0.5487 -0.8438 -0.8514
 7344SOL    HW222718   1.413   5.315   0.104  0.4344 -0.0707 -0.3317
 7345SOL     OW22719   3.159   1.718   5.929  0.0483  0.1222  0.2678
 7345SOL    HW122720   3.237   1.663   5.928  0.9752  1.4002 -0.9516
 7345SOL    HW222721   3.186   1.799   5.970 -0.4534  0.8085 -0.7058
 7346SOL     OW22722   5.880   0.251   1.884 -0.3988 -0.2773 -0.0698
 7346SOL    HW122723   5.809   0.187   1.882  0.2743 -1.0737 -2.6694
 7346SOL    HW222724   5.938   0.224   1.812  1.4698  1.5338  0.6646
 7347SOL     OW22725   0.943   3.092   2.033 -0.0116 -0.2860  0.2563
 7347SOL    HW122726   0.945   3.042   2.115  2.1160  0.6272  0.8325
 7347SOL    HW222727   0.904   3.176   2.057  0.8551  0.0790  0.4150
 7348SOL     OW22728   4.481   2.855   0.825 -0.0809 -0.4488  0.4157
 7348SOL    HW122729   4.436   2.884   0.746  0.4226  0.3672  0.4127
 7348SOL    HW222730   4.447   2.768   0.842 -1.5965  0.1116  0.3797
 7349SOL     OW22731   6.594   2.617   3.889 -0.0136 -0.8735  0.7798
 7349SOL    HW122732   6.645   2.698   3.891  0.3037 -1.0544  0.1864
 7349SOL    HW222733   6.643   2.556   3.944  0.7366 -1.2296 -0.2592
 7350SOL     OW22734   1.617   6.599   1.635  0.3138  0.3410  0.9024
 7350SOL    HW122735   1.691   6.589   1.694 -0.4883  0.9257  2.0419
 7350SOL    HW222736   1.543   6.562   1.683 -0.5178  1.6014  0.6224
 7351SOL     OW22737   2.786   5.606   0.278  0.1810  0.2652  0.7654
 7351SOL    HW122738   2.711   5.662   0.256 -0.3629 -0.6609  0.2009
 7351SOL    HW222739   2.755   5.551   0.350 -0.3003 -1.3366 -0.6172
 7352SOL     OW22740   2.625   3.001   6.016  0.0777 -0.2776  0.0011
 7352SOL    HW122741   2.638   3.082   5.967 -0.3994 -0.6358 -0.7549
 7352SOL    HW222742   2.572   3.026   6.091 -1.1671 -0.0816 -0.9082
 7353SOL     OW22743   7.583   6.515   0.200 -0.2550 -0.0178 -0.2796
 7353SOL    HW122744   7.532   6.439   0.172  1.7794 -0.7779 -2.1537
 7353SOL    HW222745   7.666   6.508   0.153  0.9147  2.1401  1.2576
 7354SOL     OW22746   1.786   4.808   7.230  0.3886  0.7305  0.4247
 7354SOL    HW122747   1.863   4.752   7.238  1.2228  1.6332 -0.9494
 7354SOL    HW222748   1.712   4.748   7.242  1.2870 -0.2629  1.1492
 7355SOL     OW22749   0.563   5.460   0.345  0.4191  0.1645  0.4724
 7355SOL    HW122750   0.501   5.531   0.328 -0.5775 -0.4214  1.4840
 7355SOL    HW222751   0.644   5.488   0.302 -0.9644  0.1880 -2.3485
 7356SOL     OW22752   0.873   7.435   4.405  0.3471 -0.2946 -0.5103
 7356SOL    HW122753   0.901   7.522   4.376 -0.0680 -0.3613 -1.1081
 7356SOL    HW222754   0.890   7.378   4.330  3.6896 -1.4029  0.8799
 7357SOL     OW22755   6.557   0.971   6.638 -0.2813 -0.0128 -0.1561
 7357SOL    HW122756   6.527   1.012   6.557  2.2148  2.7790  0.1479
 7357SOL    HW222757   6.635   0.922   6.612 -1.2599 -1.8079  0.1131
 7358SOL     OW22758   4.875   5.949   5.195 -0.7415  0.3173  0.0651
 7358SOL    HW122759   4.936   5.885   5.158 -1.1180  0.4932 -0.9096
 7358SOL    HW222760   4.788   5.914   5.173 -0.9671  0.6419  0.4291
 7359SOL     OW22761   4.383   5.422   1.495 -0.2089 -0.0380  0.0826
 7359SOL    HW122762   4.311   5.459   1.444 -1.2954 -1.4233  0.5459
 7359SOL    HW222763   4.409   5.343   1.447  2.5005  1.5265 -1.2357
 7360SOL     OW22764   0.229   6.962   0.415  0.3167 -0.2896 -0.3555
 7360SOL    HW122765   0.280   6.993   0.339 -0.5338  2.8440  0.1726
 7360SOL    HW222766   0.151   6.923   0.376  0.1603  0.7573 -1.1511
 7361SOL     OW22767   1.313   5.246   2.073  0.8855 -0.6700  0.1944
 7361SOL    HW122768   1.382   5.267   2.010  0.5913  0.3462  0.1880
 7361SOL    HW222769   1.351   5.269   2.158  0.3274  0.6256  0.1313
 7362SOL     OW22770   4.805   7.158   7.574  0.6377  0.2176 -0.1084
 7362SOL    HW122771   4.802   7.217   7.499 -1.3220 -2.1389 -2.0286
 7362SOL    HW222772   4.830   7.073   7.538 -0.8217 -1.1201  1.8008
 7363SOL     OW22773   7.011   0.809   7.403  0.0595 -0.2571  0.3198
 7363SOL    HW122774   7.091   0.759   7.416 -0.0758 -1.3661 -2.4606
 7363SOL    HW222775   6.943   0.759   7.449  0.5353 -0.6299  0.6252
 7364SOL     OW22776   2.282   4.686   3.598  0.9315  0.0961 -0.5691
 7364SOL    HW122777   2.325   4.770   3.589 -0.5737  0.9118 -0.4648
 7364SOL    HW222778   2.193   4.707   3.625 -0.0051 -1.4402 -2.2406
 7365SOL     OW22779   2.647   2.167   2.276  0.1637 -0.8565  0.0313
 7365SOL    HW122780   2.603   2.208   2.201 -0.0107 -1.5543 -0.2506
 7365SOL    HW222781   2.734   2.145   2.244  0.1150 -1.0860  0.0550
 7366SOL     OW22782   1.951   1.894   3.135 -0.1741  0.1849  0.0082
 7366SOL    HW122783   1.949   1.813   3.186  0.1036  0.4122  0.3881
 7366SOL    HW222784   1.957   1.866   3.044 -2.5870 -0.2830 -0.0667
 7367SOL     OW22785   7.719   5.168   2.984 -0.4785 -0.1154  0.0428
 7367SOL    HW122786   7.773   5.229   3.035  0.1122 -0.3428 -0.3053
 7367SOL    HW222787   7.631   5.204   2.989 -0.3986 -0.0347  1.0829
 7368SOL     OW22788   1.954   1.992   4.766 -0.6061 -0.0386 -0.0727
 7368SOL    HW122789   1.888   2.053   4.799 -0.8375 -0.0671 -0.4858
 7368SOL    HW222790   1.956   1.922   4.832  1.0402  1.3164  1.4394
 7369SOL     OW22791   3.288   7.265   5.149 -0.6627 -0.2477  0.2288
 7369SOL    HW122792   3.375   7.279   5.187 -0.9925  2.3718  0.1526
 7369SOL    HW222793   3.275   7.170   5.156  1.3476 -0.4858  2.0878
 7370SOL     OW22794   1.885   4.446   5.133 -0.0586 -0.2683  0.5972
 7370SOL    HW122795   1.917   4.455   5.223 -0.8100  0.0658  0.8401
 7370SOL    HW222796   1.820   4.376   5.137 -1.2461  0.7967  0.6511
 7371SOL     OW22797   3.614   3.289   6.131  0.8833  0.5799  0.2838
 7371SOL    HW122798   3.592   3.371   6.176 -0.9502  0.3633 -0.1663
 7371SOL    HW222799   3.555   3.224   6.168  0.9383 -0.1048 -0.7849
 7372SOL     OW22800   7.090   7.533   2.075  0.2959  0.1324 -0.1943
 7372SOL    HW122801   7.019   7.594   2.054  2.0394  2.4731  0.2563
 7372SOL    HW222802   7.121   7.502   1.990  0.3202  1.0246 -0.5213
 7373SOL     OW22803   1.061   7.325   4.575 -0.2396  0.1224 -0.2924
 7373SOL    HW122804   1.020   7.358   4.494  1.5909 -0.2115 -1.4238
 7373SOL    HW222805   1.137   7.275   4.544  1.4033  1.2415  1.6798
 7374SOL     OW22806   5.678   2.094   4.924 -0.2799 -0.9779 -0.4984
 7374SOL    HW122807   5.713   2.139   4.848 -1.0139 -2.0691 -1.5224
 7374SOL    HW222808   5.736   2.019   4.938 -1.0409 -1.6810 -0.9948
 7375SOL     OW22809   1.503   6.291   6.572  0.0854 -0.1266 -0.2275
 7375SOL    HW122810   1.420   6.284   6.525 -0.0500  0.9998 -0.1787
 7375SOL    HW222811   1.570   6.284   6.504 -0.0316 -0.9449 -0.2777
 7376SOL     OW22812   6.859   7.728   3.918  0.0728 -0.0417 -0.3827
 7376SOL    HW122813   6.922   7.800   3.911  0.0733 -0.0319 -0.2863
 7376SOL    HW222814   6.892   7.675   3.992  0.2001 -0.2643 -0.5966
 7377SOL     OW22815   0.168   5.375   5.391 -0.4558  0.1410  0.5283
 7377SOL    HW122816   0.077   5.371   5.362 -0.3709 -2.0830  0.4344
 7377SOL    HW222817   0.220   5.368   5.311 -0.1678  1.2439  0.5962
 7378SOL     OW22818   6.560   2.656   3.413 -0.1382  0.2664  0.2863
 7378SOL    HW122819   6.574   2.631   3.504 -1.5621 -2.3717 -0.1367
 7378SOL    HW222820   6.610   2.591   3.362 -1.8892 -0.2614 -0.8383
 7379SOL     OW22821   5.707   4.448   6.199  0.2409 -0.2851  0.2263
 7379SOL    HW122822   5.686   4.535   6.232 -1.1955 -1.1485  1.7497
 7379SOL    HW222823   5.631   4.424   6.146  1.0248 -0.2799 -0.9259
 7380SOL     OW22824   3.190   2.368   6.200  0.3472 -0.0855 -0.3733
 7380SOL    HW122825   3.101   2.353   6.233  0.6034  0.7619  0.7711
 7380SOL    HW222826   3.205   2.296   6.139 -0.5996 -1.0648  0.4984
 7381SOL     OW22827   2.434   3.104   6.928 -0.2500 -0.0170  0.2012
 7381SOL    HW122828   2.512   3.066   6.887 -0.0434 -0.8238  1.3227
 7381SOL    HW222829   2.468   3.171   6.987 -0.4337 -0.1593  0.4671
 7382SOL     OW22830   4.858   5.925   0.844  0.0264 -0.1645 -0.3836
 7382SOL    HW122831   4.872   6.005   0.794  0.5103  0.1358  0.2182
 7382SOL    HW222832   4.853   5.856   0.778 -0.1280  0.3197 -0.8893
 7383SOL     OW22833   3.982   4.212   6.460 -0.3337 -0.0991 -0.5477
 7383SOL    HW122834   3.906   4.167   6.424  0.1505 -0.9083 -0.5940
 7383SOL    HW222835   4.057   4.168   6.419  0.2037 -0.3249  0.6253
 7384SOL     OW22836   3.428   0.232   0.752 -0.1695  0.1584 -0.1072
 7384SOL    HW122837   3.480   0.193   0.823 -0.3731 -0.3886 -0.2587
 7384SOL    HW222838   3.350   0.178   0.747 -0.1049  0.1283 -0.8275
 7385SOL     OW22839   1.208   4.131   3.635  0.1771  0.0783 -0.0690
 7385SOL    HW122840   1.136   4.071   3.655 -0.2762 -0.0328 -1.8684
 7385SOL    HW222841   1.285   4.074   3.626 -0.1797 -0.2313 -1.3980
 7386SOL     OW22842   6.504   1.577   2.881  0.0437  0.0416 -0.0103
 7386SOL    HW122843   6.593   1.547   2.898  0.5702  0.6820 -1.4574
 7386SOL    HW222844   6.504   1.599   2.788 -1.3463  1.0266  0.1985
 7387SOL     OW22845   1.724   6.261   2.779  0.4624  0.0412 -0.5578
 7387SOL    HW122846   1.791   6.308   2.829  0.2875 -0.0584 -0.2252
 7387SOL    HW222847   1.771   6.187   2.740  1.0428  1.1937 -2.1792
 7388SOL     OW22848   6.754   6.671   4.794 -0.6142 -0.2475  0.2973
 7388SOL    HW122849   6.809   6.600   4.826  0.5976 -0.4084 -1.9738
 7388SOL    HW222850   6.781   6.748   4.845  2.7222 -0.0253 -1.4989
 7389SOL     OW22851   1.922   0.402   7.373 -0.0594  0.2190  0.0326
 7389SOL    HW122852   1.973   0.364   7.302 -0.9505 -0.3305 -0.3291
 7389SOL    HW222853   1.838   0.426   7.333  0.2274  1.9977  0.3970
 7390SOL     OW22854   4.775   6.445   4.002 -0.3126  0.3995  0.3768
 7390SOL    HW122855   4.787   6.434   4.096 -0.2665 -0.5168  0.2704
 7390SOL    HW222856   4.753   6.358   3.970  3.0484 -0.0909 -0.9907
 7391SOL     OW22857   1.440   3.049   6.531 -0.0647 -0.0902 -0.5590
 7391SOL    HW122858   1.500   2.980   6.559 -0.7234  0.0979  1.5575
 7391SOL    HW222859   1.496   3.125   6.514  0.3920 -0.0233  1.0293
 7392SOL     OW22860   4.425   6.114   2.117 -0.6488  0.2289  0.4961
 7392SOL    HW122861   4.403   6.066   2.197 -0.7109 -1.9077 -0.7233
 7392SOL    HW222862   4.480   6.053   2.067 -0.9929  1.3161 -1.2851
 7393SOL     OW22863   0.707   0.390   3.401  0.1428 -0.2290 -0.1127
 7393SOL    HW122864   0.687   0.384   3.495 -1.5462  0.8609 -0.3660
 7393SOL    HW222865   0.744   0.478   3.390  1.0406 -0.6270 -0.3700
 7394SOL     OW22866   2.551   7.327   1.578 -0.8050  0.4716 -0.1700
 7394SOL    HW122867   2.541   7.357   1.668 -1.2796 -0.1778 -0.0014
 7394SOL    HW222868   2.632   7.369   1.548 -0.5599  0.5708  0.6064
 7395SOL     OW22869   0.066   7.422   2.048  0.0801 -0.6734  0.1851
 7395SOL    HW122870  -0.004   7.465   2.098 -0.6028 -0.1988 -1.1495
 7395SOL    HW222871   0.147   7.453   2.089 -0.4638 -1.1284  1.6718
 7396SOL     OW22872   7.555   2.557   6.661 -0.5391 -0.1807 -0.3215
 7396SOL    HW122873   7.469   2.535   6.696 -0.5633  0.5038  0.0640
 7396SOL    HW222874   7.612   2.564   6.737 -0.5518  1.1263 -0.4042
 7397SOL     OW22875   7.118   0.869   2.179  0.3643 -0.0901 -0.5394
 7397SOL    HW122876   7.197   0.851   2.127  0.0040 -1.6604 -0.6003
 7397SOL    HW222877   7.077   0.943   2.135  1.6004  0.5171 -0.7305
 7398SOL     OW22878   6.323   2.828   4.535 -0.7246 -0.0645  0.5481
 7398SOL    HW122879   6.289   2.743   4.561  0.6815 -0.2538  1.9440
 7398SOL    HW222880   6.374   2.811   4.456 -0.9943 -0.4068  0.4510
 7399SOL     OW22881   4.648   7.676   3.177 -0.6931  0.6380  0.7988
 7399SOL    HW122882   4.587   7.625   3.231 -1.5746 -1.2875 -1.7851
 7399SOL    HW222883   4.592   7.734   3.126  0.0071  1.5375  1.0328
 7400SOL     OW22884   1.994   1.794   7.506 -0.2203 -0.3761 -0.3945
 7400SOL    HW122885   2.056   1.724   7.491 -1.0249 -0.9241 -1.2887
 7400SOL    HW222886   1.912   1.750   7.527 -0.6936  0.2872 -0.7921
 7401SOL     OW22887   5.537   2.909   3.010  0.7548 -0.2315 -0.6897
 7401SOL    HW122888   5.585   2.961   3.074 -2.9262  0.3894  1.8652
 7401SOL    HW222889   5.563   2.819   3.028  1.3671  0.1201  0.2683
 7402SOL     OW22890   7.405   5.429   3.917 -0.2477  0.1515 -0.0544
 7402SOL    HW122891   7.330   5.404   3.971  0.6366 -2.8256  0.0152
 7402SOL    HW222892   7.478   5.381   3.954  0.8779 -0.1259 -2.4285
 7403SOL     OW22893   0.664   4.468   3.727  0.0025  0.4972  0.1898
 7403SOL    HW122894   0.647   4.442   3.818  0.9563  0.6199  0.4137
 7403SOL    HW222895   0.759   4.485   3.724 -0.3056  2.3574 -0.3514
 7404SOL     OW22896   3.074   2.657   4.038  0.4572 -0.3155 -0.0038
 7404SOL    HW122897   3.107   2.575   4.001  1.9344  0.3628 -0.2542
 7404SOL    HW222898   3.122   2.725   3.992 -1.2278  0.7434 -0.2627
 7405SOL     OW22899   2.687   5.863   6.307 -0.6592 -0.0756 -0.0309
 7405SOL    HW122900   2.745   5.801   6.351  1.1993  1.4252 -0.2816
 7405SOL    HW222901   2.659   5.923   6.376 -0.7551  0.0704 -0.1957
 7406SOL     OW22902   7.627   0.562   1.140  0.6876 -0.1297 -0.3139
 7406SOL    HW122903   7.605   0.498   1.072  0.3442  0.5010 -0.8040
 7406SOL    HW222904   7.554   0.557   1.201  0.5206 -0.0044 -0.5013
 7407SOL     OW22905   4.431   1.482   4.912  0.3306 -0.4150 -0.1632
 7407SOL    HW122906   4.427   1.539   4.835 -0.7858  0.5716  0.5759
 7407SOL    HW222907   4.340   1.454   4.925  0.1245  0.9321  1.8254
 7408SOL     OW22908   2.732   1.057   3.886  0.2900 -0.0108  0.7040
 7408SOL    HW122909   2.797   1.127   3.877  0.6527 -0.3103  0.9661
 7408SOL    HW222910   2.711   1.031   3.797  1.1814 -0.5044  0.6302
 7409SOL     OW22911   6.656   7.389   4.286 -0.1358 -0.4824 -0.0420
 7409SOL    HW122912   6.640   7.480   4.264  0.6985  0.0040  1.2771
 7409SOL    HW222913   6.749   7.375   4.266 -0.3131 -1.1130 -0.4538
 7410SOL     OW22914   3.740   1.604   4.324 -0.7496  0.0424 -0.4941
 7410SOL    HW122915   3.745   1.617   4.419 -2.0877  1.3838 -0.5709
 7410SOL    HW222916   3.787   1.678   4.287  1.5350 -1.5204 -0.9283
 7411SOL     OW22917   2.268   6.783   6.029 -0.2359 -0.4752 -0.4352
 7411SOL    HW122918   2.265   6.717   5.960 -1.0989 -1.0420  0.1240
 7411SOL    HW222919   2.214   6.747   6.099  0.4608  0.1755  0.4667
 7412SOL     OW22920   5.935   6.692   2.061  0.2363 -0.0179 -0.0571
 7412SOL    HW122921   5.964   6.738   2.139 -2.1458  3.8044 -1.1642
 7412SOL    HW222922   5.846   6.664   2.081 -0.5021  1.2511 -1.4338
 7413SOL     OW22923   4.963   3.249   2.038 -0.1733  0.0887  0.2662
 7413SOL    HW122924   5.056   3.239   2.020 -0.3173 -0.1998 -0.3663
 7413SOL    HW222925   4.928   3.160   2.036 -0.8571  0.3379 -1.8850
 7414SOL     OW22926   7.385   1.397   5.623 -0.0218 -0.2207  0.2837
 7414SOL    HW122927   7.394   1.303   5.606  1.4126 -0.4789  2.0942
 7414SOL    HW222928   7.292   1.415   5.611 -0.5615 -2.1762  1.1969
 7415SOL     OW22929   3.059   6.636   6.789  0.0721 -0.2284 -0.1431
 7415SOL    HW122930   3.048   6.632   6.694  0.0130  0.5675 -0.1813
 7415SOL    HW222931   3.153   6.636   6.803  0.0924  0.2819 -0.2468
 7416SOL     OW22932   0.939   7.057   1.156 -0.3706  0.2886 -0.3083
 7416SOL    HW122933   0.861   7.107   1.131 -0.2504  0.0381 -1.2289
 7416SOL    HW222934   0.908   6.996   1.222 -0.6360  1.1865  0.4259
 7417SOL     OW22935   3.400   7.310   0.957  0.0714  0.2210 -0.0424
 7417SOL    HW122936   3.331   7.368   0.991 -0.8929  0.8993 -2.8710
 7417SOL    HW222937   3.366   7.280   0.873  2.5297 -0.8363 -0.7308
 7418SOL     OW22938   7.335   3.337   0.072  0.3239 -0.1229  0.1529
 7418SOL    HW122939   7.294   3.255   0.044  0.5270  0.4389 -2.0170
 7418SOL    HW222940   7.408   3.349   0.011  0.7183  1.3175  0.8691
 7419SOL     OW22941   3.093   7.600   6.285 -0.1763 -0.4753 -0.0305
 7419SOL    HW122942   3.032   7.565   6.350 -1.5331 -2.5679 -2.2454
 7419SOL    HW222943   3.052   7.681   6.254  0.3660  0.4081  1.4749
 7420SOL     OW22944   1.487   2.416   1.173  0.1201  0.0708  0.0057
 7420SOL    HW122945   1.531   2.439   1.255  0.4599 -0.7238  0.0597
 7420SOL    HW222946   1.400   2.387   1.200 -0.7485  2.3416 -0.1638
 7421SOL     OW22947   1.051   0.578   0.144  0.6020  0.4904  0.6327
 7421SOL    HW122948   0.998   0.605   0.219 -0.7944 -0.4084  0.0236
 7421SOL    HW222949   1.085   0.660   0.108 -0.0783  1.0754  1.2813
 7422SOL     OW22950   3.688   4.813   0.127  0.4437  0.5332 -0.3504
 7422SOL    HW122951   3.734   4.896   0.113 -0.1171  0.6557 -1.6164
 7422SOL    HW222952   3.601   4.839   0.158  0.1696  0.4453 -1.0253
 7423SOL     OW22953   2.498   1.681   4.599  0.7533 -0.0882 -0.2805
 7423SOL    HW122954   2.579   1.632   4.586 -0.0794 -2.4367  2.3612
 7423SOL    HW222955   2.436   1.616   4.632 -1.5875  2.0620 -0.1536
 7424SOL     OW22956   7.062   2.499   5.563  0.3110  0.0127  0.3702
 7424SOL    HW122957   7.066   2.565   5.493  1.4260  1.2123  1.4964
 7424SOL    HW222958   7.070   2.416   5.517 -0.2632  0.6879 -1.0332
 7425SOL     OW22959   4.122   6.332   7.588 -0.2005  0.1714 -0.1067
 7425SOL    HW122960   4.052   6.396   7.573 -0.2444  0.4557  1.2108
 7425SOL    HW222961   4.099   6.259   7.531 -1.5781  0.2601  0.2931
 7426SOL     OW22962   4.158   2.237   3.529 -0.3090  0.3071 -0.0654
 7426SOL    HW122963   4.094   2.208   3.465  0.6163  0.3783 -1.0493
 7426SOL    HW222964   4.188   2.156   3.571  0.3444  0.0735 -0.9569
 7427SOL     OW22965   0.950   3.797   2.808  0.6216  0.1544  0.1459
 7427SOL    HW122966   0.925   3.715   2.851  4.1732 -0.2419  1.8082
 7427SOL    HW222967   0.905   3.865   2.858 -0.4004 -0.6263  0.3187
 7428SOL     OW22968   5.977   7.029   6.393  0.4994  0.1070  1.0069
 7428SOL    HW122969   5.920   7.105   6.383 -0.7067 -0.9815 -1.4569
 7428SOL    HW222970   6.064   7.065   6.409 -0.3280  1.9018  1.7762
 7429SOL     OW22971   6.038   6.799   2.299  0.2901 -0.8174  0.4835
 7429SOL    HW122972   6.065   6.887   2.274 -0.8402 -0.6589 -0.2329
 7429SOL    HW222973   6.100   6.774   2.367  0.0908  0.8921  1.3587
 7430SOL     OW22974   4.166   2.229   6.297 -0.3945  0.2850 -0.4512
 7430SOL    HW122975   4.073   2.210   6.307  0.0466 -2.1057 -0.1827
 7430SOL    HW222976   4.208   2.143   6.296  1.7199  1.2387 -1.7262
 7431SOL     OW22977   7.322   0.229   2.452  0.0594 -0.2547 -0.2888
 7431SOL    HW122978   7.315   0.263   2.542  0.6812 -0.4354 -0.1669
 7431SOL    HW222979   7.266   0.287   2.400 -0.5905 -0.3637  0.2722
 7432SOL     OW22980   6.738   1.448   5.577 -1.1480  0.1895 -0.7404
 7432SOL    HW122981   6.793   1.391   5.523 -2.9395 -0.3960 -2.0625
 7432SOL    HW222982   6.751   1.535   5.539 -0.5911  0.1782 -0.5799
 7433SOL     OW22983   2.285   7.637   7.124  0.0482  0.1817 -0.0768
 7433SOL    HW122984   2.264   7.580   7.198 -1.0229 -0.1464 -0.6164
 7433SOL    HW222985   2.283   7.579   7.048 -1.1350  0.9297 -0.6472
 7434SOL     OW22986   7.306   7.740   5.955  0.3652 -0.0692  0.3908
 7434SOL    HW122987   7.307   7.666   6.015  0.7468 -0.2985  0.1034
 7434SOL    HW222988   7.224   7.731   5.907 -0.2220  0.4314  1.2593
 7435SOL     OW22989   2.192   3.932   5.135 -0.6080 -0.3517  0.4803
 7435SOL    HW122990   2.129   3.991   5.094 -1.2225 -1.3722 -0.1019
 7435SOL    HW222991   2.267   3.931   5.076 -0.3967  0.1987  0.7324
 7436SOL     OW22992   7.163   3.947   5.845  0.0787  0.3178 -0.1274
 7436SOL    HW122993   7.102   3.890   5.893 -1.3314  1.5244 -0.4281
 7436SOL    HW222994   7.201   3.890   5.778 -0.5963 -0.5006  0.1607
 7437SOL     OW22995   1.071   6.194   0.482  0.4671 -0.1098 -0.7868
 7437SOL    HW122996   1.075   6.207   0.577  2.0874 -0.9577 -0.7087
 7437SOL    HW222997   1.099   6.278   0.445 -1.1536  0.5678 -0.5806
 7438SOL     OW22998   3.987   4.121   5.322  0.4340  0.3395 -0.4412
 7438SOL    HW122999   4.071   4.118   5.367 -0.0665  1.1332  0.5974
 7438SOL    HW223000   3.964   4.214   5.320 -0.0098  0.2222 -1.5124
 7439SOL     OW23001   6.807   5.953   2.661 -0.7791  0.3523  0.0811
 7439SOL    HW123002   6.881   6.010   2.683  0.2363 -0.6378 -0.6314
 7439SOL    HW223003   6.799   5.893   2.735 -0.9044  0.4973  0.1845
 7440SOL     OW23004   6.346   1.576   7.666  0.1942  0.0104 -0.2219
 7440SOL    HW123005   6.299   1.642   7.718 -0.7245 -2.4488  2.3668
 7440SOL    HW223006   6.280   1.542   7.606  0.3188  0.5550 -0.6734
 7441SOL     OW23007   5.338   6.928   5.228  0.1084 -0.1627 -1.1409
 7441SOL    HW123008   5.265   6.878   5.265  0.6446  0.6711  1.2032
 7441SOL    HW223009   5.304   7.017   5.219  1.0361  0.4340  0.8104
 7442SOL     OW23010   2.378   4.540   5.729 -0.1871 -0.1552 -0.1808
 7442SOL    HW123011   2.404   4.617   5.781  1.4351 -0.5291 -0.3620
 7442SOL    HW223012   2.335   4.482   5.792  2.2278 -0.8466  0.9757
 7443SOL     OW23013   3.122   4.245   6.027 -0.4634  0.2547  0.3337
 7443SOL    HW123014   3.123   4.264   6.120  0.2581  0.7186  0.2364
 7443SOL    HW223015   3.084   4.158   6.021 -1.6302  0.6923  0.9652
 7444SOL     OW23016   4.709   6.331   5.128  0.0434 -0.3866 -0.3811
 7444SOL    HW123017   4.628   6.285   5.104  0.1649 -0.6227 -0.3310
 7444SOL    HW223018   4.690   6.368   5.215 -0.7562  1.3091 -1.2367
 7445SOL     OW23019   5.214   1.333   6.949  0.2444  0.3897  0.7987
 7445SOL    HW123020   5.307   1.347   6.967  0.2088  0.5151  0.8912
 7445SOL    HW223021   5.189   1.260   7.005  0.2409  0.4853  0.9234
 7446SOL     OW23022   3.740   1.031   4.094  0.1352 -0.1075  0.0658
 7446SOL    HW123023   3.771   0.965   4.156  0.8944 -1.5029 -1.7096
 7446SOL    HW223024   3.721   0.982   4.014 -1.1170  1.5771 -0.7358
 7447SOL     OW23025   3.798   7.389   0.090 -0.7629  0.4513  0.0329
 7447SOL    HW123026   3.813   7.387  -0.005  2.3396  0.5657  0.4008
 7447SOL    HW223027   3.858   7.457   0.121 -0.7069 -0.5198  2.2077
 7448SOL     OW23028   6.281   4.087   6.543  0.0335 -0.5711  0.3804
 7448SOL    HW123029   6.237   4.044   6.617  1.9543 -3.5062 -0.0166
 7448SOL    HW223030   6.359   4.127   6.581 -0.5215  0.5760  0.3584
 7449SOL     OW23031   4.658   2.309   6.034  0.1361  0.3467 -0.1576
 7449SOL    HW123032   4.711   2.364   5.976  0.2666 -2.2318 -2.7269
 7449SOL    HW223033   4.568   2.329   6.009  0.0811  0.8249  0.3879
 7450SOL     OW23034   0.043   6.787   5.794 -0.1984  0.2534 -0.0374
 7450SOL    HW123035   0.101   6.860   5.815  0.8111  0.0769 -2.0083
 7450SOL    HW223036  -0.027   6.827   5.742 -0.4917  0.0419  0.1892
 7451SOL     OW23037   0.741   2.840   7.239  0.4627 -0.5832  0.1533
 7451SOL    HW123038   0.689   2.795   7.305 -3.1057  0.3939 -1.7383
 7451SOL    HW223039   0.784   2.911   7.287 -1.0478 -0.6162  1.6382
 7452SOL     OW23040   1.847   0.261   3.639 -0.2614  0.4470  0.1536
 7452SOL    HW123041   1.791   0.220   3.705 -2.5828  2.3768 -0.4683
 7452SOL    HW223042   1.892   0.331   3.686 -1.1659  1.1980 -0.0851
 7453SOL     OW23043   1.762   0.112   6.925  0.2258 -0.0362 -0.1494
 7453SOL    HW123044   1.700   0.090   6.855  1.4298 -1.1299 -0.9114
 7453SOL    HW223045   1.707   0.140   6.998 -1.1879 -1.2416 -0.7102
 7454SOL     OW23046   6.031   3.260   6.272 -0.0810  0.0842  0.3770
 7454SOL    HW123047   5.978   3.241   6.195  1.3180 -1.2223 -0.3302
 7454SOL    HW223048   5.973   3.247   6.347 -0.8126 -1.0579 -0.3726
 7455SOL     OW23049   7.225   0.682   7.440  0.0715  0.6320 -0.4165
 7455SOL    HW123050   7.295   0.738   7.406 -0.4955  2.1710  0.8026
 7455SOL    HW223051   7.243   0.677   7.534 -0.7563  0.0142 -0.2847
 7456SOL     OW23052   0.979   1.034   5.955 -0.9894 -0.3629  0.1711
 7456SOL    HW123053   1.064   0.991   5.940 -1.0814 -0.5033  0.0493
 7456SOL    HW223054   0.995   1.126   5.935 -0.3627 -0.0303  1.9761
 7457SOL     OW23055   6.453   1.283   2.656 -0.0835  0.5025  0.2967
 7457SOL    HW123056   6.359   1.274   2.672  0.0828  1.1799  1.7981
 7457SOL    HW223057   6.493   1.275   2.742  1.2364  0.4658 -0.2914
 7458SOL     OW23058   7.029   1.424   5.084 -0.1221  0.8067 -0.5320
 7458SOL    HW123059   7.006   1.516   5.097  1.1429  1.5903 -3.1287
 7458SOL    HW223060   7.110   1.427   5.032  0.3467 -1.7947 -0.0802
 7459SOL     OW23061   6.773   4.081   0.238  0.1986  0.4156  0.2900
 7459SOL    HW123062   6.707   4.126   0.291  1.9803  1.7528  1.4881
 7459SOL    HW223063   6.742   3.991   0.232  0.1441  0.0404  4.1373
 7460SOL     OW23064   7.411   7.026   2.817  0.0546 -0.4351 -0.1162
 7460SOL    HW123065   7.434   7.024   2.910 -0.1012  0.5182 -0.0527
 7460SOL    HW223066   7.478   7.081   2.777 -0.3399 -0.1952 -0.4442
 7461SOL     OW23067   0.846   5.623   2.075 -0.2808 -0.1108  0.2322
 7461SOL    HW123068   0.815   5.532   2.074  0.4448 -0.4244  2.3025
 7461SOL    HW223069   0.783   5.670   2.020 -1.0559 -1.7282 -0.3310
 7462SOL     OW23070   4.022   3.317   1.400  0.1680  0.1343 -0.3392
 7462SOL    HW123071   3.998   3.250   1.336 -0.6452 -1.0170  1.1007
 7462SOL    HW223072   4.010   3.400   1.354 -1.6814 -0.6071 -1.2795
 7463SOL     OW23073   1.945   6.573   5.557 -0.5453  0.8731 -0.9511
 7463SOL    HW123074   2.025   6.595   5.511 -0.0682 -0.3962 -0.7590
 7463SOL    HW223075   1.964   6.591   5.649  0.3718 -1.5670 -0.5817
 7464SOL     OW23076   0.630   0.070   3.437 -0.4605 -0.1433 -0.5216
 7464SOL    HW123077   0.653   0.139   3.499 -0.2433 -1.4510  0.9013
 7464SOL    HW223078   0.584   0.004   3.489 -0.1994 -1.3388 -1.7257
 7465SOL     OW23079   3.438   3.852   5.612 -0.0543  0.0897  0.9056
 7465SOL    HW123080   3.404   3.940   5.624  0.1435  0.4147 -0.6195
 7465SOL    HW223081   3.413   3.829   5.522  2.5969 -0.1286  0.1281
 7466SOL     OW23082   2.746   4.956   2.229  0.3913  0.2555 -0.2831
 7466SOL    HW123083   2.775   4.906   2.152  1.0747  0.6175 -0.2655
 7466SOL    HW223084   2.737   4.890   2.298  1.1301  0.1272 -0.3025
 7467SOL     OW23085   3.792   2.461   7.528  0.1210 -0.3191 -0.4175
 7467SOL    HW123086   3.802   2.551   7.559  1.9719 -0.0645 -1.5694
 7467SOL    HW223087   3.841   2.408   7.591  0.6053 -0.2844 -0.7632
 7468SOL     OW23088   4.907   1.114   4.558  0.1158  0.0643  0.0404
 7468SOL    HW123089   4.852   1.051   4.604 -0.5400  1.7621  1.7175
 7468SOL    HW223090   4.857   1.135   4.479 -0.1020 -0.7992 -0.0602
 7469SOL     OW23091   0.486   6.175   6.370  0.0922 -0.6456 -0.9575
 7469SOL    HW123092   0.573   6.183   6.329  0.3636 -1.3830 -0.5409
 7469SOL    HW223093   0.446   6.261   6.357  1.4259  0.1810  0.0638
 7470SOL     OW23094   6.730   6.440   7.556 -0.6763 -0.3264 -0.1039
 7470SOL    HW123095   6.774   6.515   7.517 -0.2146 -0.9695 -0.8504
 7470SOL    HW223096   6.705   6.469   7.644 -1.2358  0.9545 -0.6757
 7471SOL     OW23097   4.559   5.921   1.966  0.3179 -0.0553  0.5275
 7471SOL    HW123098   4.603   5.893   1.886  2.6680 -0.7807  1.9806
 7471SOL    HW223099   4.507   5.845   1.993  0.7275 -0.3446  0.5002
 7472SOL     OW23100   6.680   1.875   3.814 -0.1104  0.0741 -0.4723
 7472SOL    HW123101   6.679   1.938   3.742 -0.4037 -0.6566 -1.1240
 7472SOL    HW223102   6.597   1.828   3.806  0.4233 -0.8918 -0.4557
 7473SOL     OW23103   2.929   3.230   4.500  0.1311  0.4432 -0.1719
 7473SOL    HW123104   2.988   3.158   4.478  1.1029  0.7491  1.2779
 7473SOL    HW223105   2.902   3.212   4.590  1.7771  2.7250  0.8948
 7474SOL     OW23106   3.310   3.831   7.132 -0.1189 -0.1893  0.2137
 7474SOL    HW123107   3.386   3.795   7.085 -0.7232  0.1356 -1.0635
 7474SOL    HW223108   3.272   3.756   7.177  1.1943 -0.2823  1.2423
 7475SOL     OW23109   0.857   1.163   2.175 -0.4455  0.6514  0.4976
 7475SOL    HW123110   0.905   1.245   2.181 -1.2950  1.1069  1.2084
 7475SOL    HW223111   0.770   1.188   2.143  0.0678 -0.2824 -1.8296
 7476SOL     OW23112   2.617   4.245   4.996  0.4758  0.4795  0.0887
 7476SOL    HW123113   2.669   4.241   5.077  1.2197 -1.0421 -0.4141
 7476SOL    HW223114   2.611   4.338   4.976  1.2339  0.8216  1.2991
 7477SOL     OW23115   3.035   0.820   6.644 -0.0635  0.0419 -0.0105
 7477SOL    HW123116   2.958   0.771   6.672 -1.4362  2.3994  0.6828
 7477SOL    HW223117   3.101   0.802   6.712 -1.2792  0.8258  1.4492
 7478SOL     OW23118   7.466   3.967   0.427  0.5551 -0.4950 -0.0053
 7478SOL    HW123119   7.436   3.936   0.512  0.5567 -1.0762 -0.2089
 7478SOL    HW223120   7.561   3.972   0.435  0.5308 -0.2380  0.1267
 7479SOL     OW23121   6.461   6.011   2.430  0.1848  0.0969 -0.0018
 7479SOL    HW123122   6.374   6.016   2.388 -0.4312 -0.7270  1.1317
 7479SOL    HW223123   6.497   6.100   2.420 -0.1454  0.0761 -1.7842
 7480SOL     OW23124   2.445   7.474   6.967 -0.3698  0.3169 -0.2751
 7480SOL    HW123125   2.536   7.467   6.996  0.1117  2.8860 -0.9971
 7480SOL    HW223126   2.413   7.383   6.969  1.7938 -0.4994  1.1965
 7481SOL     OW23127   5.061   4.224   6.591  0.1998  0.3128 -0.0393
 7481SOL    HW123128   5.052   4.303   6.645  1.7286 -0.1162  0.9059
 7481SOL    HW223129   4.999   4.162   6.630  1.4812 -0.0884  1.4911
 7482SOL     OW23130   4.607   0.125   7.588 -0.3743  0.3095 -0.3761
 7482SOL    HW123131   4.652   0.046   7.620 -1.1264 -0.4120 -1.0364
 7482SOL    HW223132   4.677   0.188   7.573  0.1897 -0.0197  0.7215
 7483SOL     OW23133   2.695   4.422   0.996  0.7380 -0.4665 -0.3835
 7483SOL    HW123134   2.679   4.335   0.959 -0.4297 -1.2377  1.7244
 7483SOL    HW223135   2.703   4.406   1.090  0.2327  1.7486  0.0865
 7484SOL     OW23136   0.162   3.646   2.785  0.2542  0.4224  0.4941
 7484SOL    HW123137   0.103   3.702   2.734  1.9201  0.8677 -1.0521
 7484SOL    HW223138   0.243   3.696   2.791  0.8077 -0.5761  1.7201
 7485SOL     OW23139   3.754   7.488   4.250 -0.3024 -0.2389 -0.1278
 7485SOL    HW123140   3.849   7.476   4.261 -0.2183 -0.3136 -0.8830
 7485SOL    HW223141   3.728   7.420   4.189 -1.0154 -0.7967  0.7749
 7486SOL     OW23142   6.859   6.240   6.828  0.5718  0.0415 -0.0844
 7486SOL    HW123143   6.852   6.285   6.912  0.8841 -0.6136  0.3052
 7486SOL    HW223144   6.815   6.156   6.842  0.0056  0.2141 -0.7921
 7487SOL     OW23145   3.472   4.781   2.138  0.3239 -0.1684 -0.1275
 7487SOL    HW123146   3.499   4.861   2.092  2.2989 -2.3766 -3.1569
 7487SOL    HW223147   3.377   4.788   2.143  0.4403  2.5597  0.2052
 7488SOL     OW23148   2.142   5.989   2.114  0.0131  0.4698 -0.1083
 7488SOL    HW123149   2.179   6.066   2.158 -0.7766  0.6053  0.3365
 7488SOL    HW223150   2.210   5.962   2.052  0.5782  1.1124  0.2165
 7489SOL     OW23151   3.919   2.488   0.842 -0.2503 -0.4189 -0.5069
 7489SOL    HW123152   3.881   2.480   0.930 -0.1448  0.3196 -0.3817
 7489SOL    HW223153   4.013   2.497   0.858 -0.3165  0.6009 -0.6299
 7490SOL     OW23154   1.862   2.485   4.955  0.0197 -0.2653 -0.6327
 7490SOL    HW123155   1.927   2.544   4.918 -1.0903  2.0476  0.8997
 7490SOL    HW223156   1.786   2.494   4.898  0.3489 -1.4885 -1.3051
 7491SOL     OW23157   4.041   3.810   7.700  0.5967  0.2039 -0.3893
 7491SOL    HW123158   4.023   3.787   7.791 -1.2123  1.0572 -0.4860
 7491SOL    HW223159   3.990   3.748   7.649 -0.0043  0.9742 -0.7507
 7492SOL     OW23160   1.579   2.151   1.087 -0.2204 -0.0196 -0.4309
 7492SOL    HW123161   1.592   2.105   1.170  2.5525 -0.1127 -0.8322
 7492SOL    HW223162   1.577   2.243   1.111 -0.6330 -0.1023 -0.1385
 7493SOL     OW23163   6.202   5.077   7.775  0.3988 -0.0557 -0.5707
 7493SOL    HW123164   6.172   5.161   7.811 -1.0437 -0.5156 -0.6466
 7493SOL    HW223165   6.242   5.101   7.691 -3.3385  0.2689 -2.4334
 7494SOL     OW23166   2.686   3.212   4.292  0.1695 -0.4228 -0.3926
 7494SOL    HW123167   2.747   3.232   4.364  1.6824 -2.8434 -0.8869
 7494SOL    HW223168   2.604   3.191   4.336 -0.0441  1.7529  0.3622
 7495SOL     OW23169   6.592   7.694   7.015 -0.2726 -0.1853 -0.4173
 7495SOL    HW123170   6.642   7.681   6.935  1.4595 -0.7862  0.6931
 7495SOL    HW223171   6.571   7.605   7.045  0.4910 -0.0395  0.5983
 7496SOL     OW23172   2.055   0.056   4.992 -0.1961  0.0953 -0.2190
 7496SOL    HW123173   1.988   0.068   4.924 -1.1481  0.4140  0.7462
 7496SOL    HW223174   2.061   0.141   5.035 -0.3650 -0.3621  0.7555
 7497SOL     OW23175   0.448   6.525   2.275 -0.6507  0.0566 -0.1124
 7497SOL    HW123176   0.500   6.504   2.352 -1.8687 -2.0606  0.1868
 7497SOL    HW223177   0.509   6.516   2.202  0.4288  1.7710  0.5156
 7498SOL     OW23178   0.558   1.802   2.960  0.4648 -0.0303 -0.0686
 7498SOL    HW123179   0.548   1.706   2.961  1.7198 -0.1649  0.1908
 7498SOL    HW223180   0.564   1.826   3.052  0.7981  0.2349 -0.1616
 7499SOL     OW23181   0.481   4.153   0.978 -0.2691  0.4811  0.5278
 7499SOL    HW123182   0.516   4.099   0.907 -1.2098  0.3117  0.1869
 7499SOL    HW223183   0.406   4.104   1.011 -2.2697  2.3809 -0.9701
 7500SOL     OW23184   5.855   0.480   5.037 -0.4357 -0.0841  0.3132
 7500SOL    HW123185   5.798   0.442   4.971  0.1572  0.6674 -0.6479
 7500SOL    HW223186   5.936   0.430   5.032 -0.8285 -0.8678  1.3812
 7501SOL     OW23187   0.861   6.828   5.898  0.3616 -0.2496 -0.1702
 7501SOL    HW123188   0.892   6.774   5.969 -1.9269  0.3270  1.3813
 7501SOL    HW223189   0.922   6.902   5.895  0.1970 -0.0002  1.6068
 7502SOL     OW23190   4.257   5.620   0.708  0.1294 -0.2938 -0.3934
 7502SOL    HW123191   4.178   5.672   0.699  0.4586  0.5015  1.0438
 7502SOL    HW223192   4.320   5.661   0.648  0.9462  2.1805  1.9457
 7503SOL     OW23193   4.388   0.283   7.591 -0.2261  0.2451  0.1648
 7503SOL    HW123194   4.388   0.316   7.501  2.3666  2.0286  0.7101
 7503SOL    HW223195   4.451   0.211   7.590  0.3059  0.7017  0.6876
 7504SOL     OW23196   2.738   5.880   1.602  0.1649  0.1293  0.8009
 7504SOL    HW123197   2.680   5.923   1.540  1.6051  1.7880  0.5225
 7504SOL    HW223198   2.803   5.836   1.548 -0.3207 -1.0058  1.1195
 7505SOL     OW23199   3.001   0.491   4.780  0.0845 -0.2515 -0.2478
 7505SOL    HW123200   2.906   0.478   4.771  0.1380 -0.4225 -0.5646
 7505SOL    HW223201   3.028   0.527   4.696 -0.0083  1.6623  0.4918
 7506SOL     OW23202   6.886   2.730   4.314  0.5305  0.2817  0.3582
 7506SOL    HW123203   6.972   2.739   4.271  0.6204  0.0702  0.4925
 7506SOL    HW223204   6.896   2.776   4.397  1.2519 -1.6791  1.4203
 7507SOL     OW23205   6.124   5.150   4.291  0.4133 -0.1638  0.1932
 7507SOL    HW123206   6.067   5.111   4.358 -0.2686 -0.2757 -0.4320
 7507SOL    HW223207   6.203   5.174   4.338 -1.2581  2.7556  1.7695
 7508SOL     OW23208   2.390   1.456   7.336  0.0707  0.1555 -0.2880
 7508SOL    HW123209   2.312   1.461   7.391  0.5469 -0.2233  0.4272
 7508SOL    HW223210   2.359   1.414   7.255 -0.3631 -0.4715  0.1906
 7509SOL     OW23211   4.599   5.818   6.107  0.1242 -0.1583 -0.5402
 7509SOL    HW123212   4.616   5.912   6.109 -0.0754 -0.1160  1.6491
 7509SOL    HW223213   4.580   5.795   6.198 -1.1651 -2.0814 -1.2294
 7510SOL     OW23214   0.640   6.997   1.599 -0.6068  0.5135  0.3777
 7510SOL    HW123215   0.606   7.024   1.684  1.0259  0.0208  1.2166
 7510SOL    HW223216   0.606   6.909   1.586 -0.2585  0.3088  0.8588
 7511SOL     OW23217   2.170   1.606   6.493  0.4271 -0.2325  0.3606
 7511SOL    HW123218   2.189   1.698   6.512 -0.0575 -0.2097  0.7548
 7511SOL    HW223219   2.094   1.609   6.435  0.5409 -0.3801  0.2027
 7512SOL     OW23220   5.419   0.957   0.496 -0.0265 -0.1605  0.1561
 7512SOL    HW123221   5.477   0.909   0.436 -0.2074  1.1030 -1.0885
 7512SOL    HW223222   5.352   0.995   0.439 -0.7277  0.3544  1.2887
 7513SOL     OW23223   6.155   0.466   6.642 -0.0640 -0.9484 -0.3680
 7513SOL    HW123224   6.124   0.439   6.728  0.3981 -0.7417 -0.1335
 7513SOL    HW223225   6.250   0.456   6.646  0.2233  1.2593 -0.0542
 7514SOL     OW23226   2.176   2.801   7.687 -0.3216  0.0991 -0.1157
 7514SOL    HW123227   2.086   2.824   7.663 -0.0853  0.4454 -0.6749
 7514SOL    HW223228   2.190   2.714   7.650 -0.5461 -0.1098  0.2851
 7515SOL     OW23229   4.128   0.045   6.680  1.2129 -0.8759 -0.1886
 7515SOL    HW123230   4.197  -0.017   6.658  2.4299  0.8950 -1.7288
 7515SOL    HW223231   4.047  -0.005   6.673  2.1128 -2.1960 -1.6811
 7516SOL     OW23232   4.269   3.540   0.901 -0.1040 -0.3125  0.1302
 7516SOL    HW123233   4.304   3.529   0.812 -0.0426  2.0451 -0.1953
 7516SOL    HW223234   4.292   3.629   0.925 -0.5955 -0.7348  2.3413
 7517SOL     OW23235   4.686   5.309   0.980 -0.6569 -0.1100 -0.4086
 7517SOL    HW123236   4.737   5.236   0.946 -0.1353 -0.1654  0.4501
 7517SOL    HW223237   4.686   5.296   1.075 -1.0828  0.6626 -0.2910
 7518SOL     OW23238   3.455   1.999   3.352  0.5388 -0.4113  0.0199
 7518SOL    HW123239   3.536   2.035   3.388 -0.1698  0.0595  1.2064
 7518SOL    HW223240   3.390   2.016   3.420 -0.9145  0.6444 -1.5765
 7519SOL     OW23241   2.917   5.036   5.784 -0.4614  0.2527  0.1727
 7519SOL    HW123242   2.881   5.091   5.714 -2.5962 -0.9418  0.2569
 7519SOL    HW223243   2.890   5.078   5.865 -0.2622  0.2055  0.2668
 7520SOL     OW23244   5.711   2.930   5.118 -0.3044 -0.2837  0.6223
 7520SOL    HW123245   5.673   3.002   5.168 -1.0755 -1.0905  1.2356
 7520SOL    HW223246   5.676   2.851   5.160  1.1343 -1.0331  0.4480
 7521SOL     OW23247   6.469   6.694   7.166 -0.1789 -0.1496 -0.6403
 7521SOL    HW123248   6.503   6.622   7.113  1.1090  0.5702 -0.8204
 7521SOL    HW223249   6.425   6.751   7.102  0.6423  0.2892 -0.8249
 7522SOL     OW23250   2.932   3.726   2.669 -0.7778 -0.5204 -0.3511
 7522SOL    HW123251   2.878   3.782   2.614  0.9318  1.3518 -0.2451
 7522SOL    HW223252   3.022   3.739   2.637 -0.1789 -2.4104  0.3762
 7523SOL     OW23253   4.496   0.471   6.182  0.4031 -0.0230  0.5604
 7523SOL    HW123254   4.460   0.526   6.252  0.3761 -1.0514  1.3798
 7523SOL    HW223255   4.591   0.477   6.194  0.4984  1.4826 -0.6600
 7524SOL     OW23256   3.774   5.071   3.483 -0.5295  0.2640  0.1109
 7524SOL    HW123257   3.858   5.090   3.441  0.3610 -3.6825 -0.2582
 7524SOL    HW223258   3.712   5.066   3.410  0.2045 -2.4691 -0.4675
 7525SOL     OW23259   1.859   3.492   0.294  0.0205  0.0573 -0.1833
 7525SOL    HW123260   1.794   3.444   0.345 -1.2471  1.6590 -0.1946
 7525SOL    HW223261   1.842   3.465   0.203  0.7794 -1.0999  0.0100
 7526SOL     OW23262   3.078   2.455   4.521  0.2071  0.3389 -0.2933
 7526SOL    HW123263   3.016   2.518   4.484 -0.9578 -0.3192  0.4772
 7526SOL    HW223264   3.028   2.409   4.588  1.0334 -1.3964 -0.8158
 7527SOL     OW23265   4.000   0.337   6.615 -0.2561  0.0306  0.0215
 7527SOL    HW123266   4.024   0.271   6.680 -0.6074  0.0595  0.1824
 7527SOL    HW223267   3.967   0.411   6.666 -0.8862 -0.0880 -0.1974
 7528SOL     OW23268   2.823   1.309   1.123  0.1037 -0.3415  0.1944
 7528SOL    HW123269   2.875   1.237   1.087 -0.7268 -0.5630 -0.5995
 7528SOL    HW223270   2.783   1.350   1.046  1.1671  1.4731  0.5395
 7529SOL     OW23271   6.634   1.432   1.117 -0.1543  0.0023  0.0795
 7529SOL    HW123272   6.629   1.525   1.141 -0.2678  0.0661 -0.1894
 7529SOL    HW223273   6.560   1.392   1.161 -0.0363  0.0174  0.2937
 7530SOL     OW23274   7.777   6.891   7.593  0.2975 -0.2028  0.2535
 7530SOL    HW123275   7.857   6.940   7.611 -1.0047  2.5536 -0.7487
 7530SOL    HW223276   7.722   6.906   7.671 -0.0865 -0.0928 -0.0317
 7531SOL     OW23277   4.568   4.640   7.526  0.5879 -0.1736 -0.1601
 7531SOL    HW123278   4.570   4.724   7.479 -1.1728 -0.7890 -1.4719
 7531SOL    HW223279   4.479   4.636   7.562  0.5990 -1.5141 -0.2489
 7532SOL     OW23280   4.590   1.196   2.310  0.0549 -0.6631 -0.1913
 7532SOL    HW123281   4.499   1.220   2.328  0.4094 -0.0871  0.9227
 7532SOL    HW223282   4.609   1.125   2.372  0.7021 -0.0114  0.3725
 7533SOL     OW23283   5.723   2.034   5.501  0.8075  0.4110  0.3954
 7533SOL    HW123284   5.665   1.975   5.549  0.3004  2.1264  2.0456
 7533SOL    HW223285   5.666   2.080   5.440  0.9719  0.0969  0.0004
 7534SOL     OW23286   7.434   5.172   3.457  0.2161 -0.0953 -0.3845
 7534SOL    HW123287   7.522   5.188   3.422  1.0021  0.1714  1.6229
 7534SOL    HW223288   7.410   5.254   3.500 -0.8799 -0.2993 -0.5795
 7535SOL     OW23289   7.543   4.386   2.159 -0.4670  0.4362  0.0855
 7535SOL    HW123290   7.564   4.480   2.156  2.0834 -0.0781 -0.9499
 7535SOL    HW223291   7.627   4.344   2.178 -1.3922 -1.7009 -0.3278
 7536SOL     OW23292   4.044   0.504   7.029 -0.1888 -0.5035 -0.0076
 7536SOL    HW123293   4.038   0.599   7.039 -2.1263 -0.6068  0.1644
 7536SOL    HW223294   4.127   0.481   7.070  0.5545  1.1663 -0.4956
 7537SOL     OW23295   3.342   7.420   6.762 -0.0849 -0.1286 -0.0351
 7537SOL    HW123296   3.305   7.505   6.739 -0.7206 -0.2291  0.6025
 7537SOL    HW223297   3.433   7.425   6.731  0.1028  1.0446  0.6511
 7538SOL     OW23298   5.580   4.682   1.115 -0.1422 -0.1991  0.8016
 7538SOL    HW123299   5.499   4.733   1.118  0.2267  0.4225  0.3170
 7538SOL    HW223300   5.647   4.742   1.147 -0.1121 -1.2377  2.8686
 7539SOL     OW23301   2.353   5.965   6.316 -0.3338 -0.1715  0.3141
 7539SOL    HW123302   2.365   6.043   6.370  0.2589 -0.2664  0.3362
 7539SOL    HW223303   2.440   5.949   6.279 -0.4087 -0.9098  0.4342
 7540SOL     OW23304   4.611   6.949   7.244 -0.4939  0.5011 -0.4789
 7540SOL    HW123305   4.689   6.948   7.188  1.3401 -2.4661  1.7958
 7540SOL    HW223306   4.641   6.988   7.326 -2.4375  2.5151 -0.6650
 7541SOL     OW23307   6.872   3.424   7.374  0.4703 -0.2411 -0.0555
 7541SOL    HW123308   6.803   3.456   7.317  0.2149  0.9234  0.8772
 7541SOL    HW223309   6.914   3.354   7.324 -1.6524 -1.3017 -0.4706
 7542SOL     OW23310   0.201   2.258   5.391  0.1305  0.3931 -0.6043
 7542SOL    HW123311   0.223   2.217   5.475 -5.1502  2.1341  2.0440
 7542SOL    HW223312   0.263   2.330   5.382  2.3214 -1.2435  0.4611
 7543SOL     OW23313   6.771   2.858   4.982 -0.1913 -0.4820  0.2926
 7543SOL    HW123314   6.772   2.764   4.997 -2.0479 -0.3537  1.5821
 7543SOL    HW223315   6.754   2.896   5.069  0.7218  1.0588 -0.1643
 7544SOL     OW23316   3.911   2.581   1.406  0.1968  0.6509 -0.6588
 7544SOL    HW123317   3.900   2.502   1.458  0.9959  0.0527 -1.3621
 7544SOL    HW223318   3.994   2.619   1.436 -0.1026  1.1438 -0.4344
 7545SOL     OW23319   5.171   7.697   1.707 -0.4558  0.2568 -0.0843
 7545SOL    HW123320   5.099   7.732   1.655  0.0274  1.0672 -0.2316
 7545SOL    HW223321   5.244   7.691   1.646 -0.6981 -1.7323 -0.2406
 7546SOL     OW23322   2.675   4.237   1.781  0.3608  0.0113  0.5602
 7546SOL    HW123323   2.598   4.287   1.809  0.5709  1.2058 -0.8899
 7546SOL    HW223324   2.661   4.150   1.819  0.0373  1.1283  3.2450
 7547SOL     OW23325   5.804   6.489   2.603  0.0006 -0.0092 -0.8144
 7547SOL    HW123326   5.895   6.519   2.602  0.6412 -1.6647  0.5201
 7547SOL    HW223327   5.782   6.484   2.696 -0.6610 -1.7814 -1.0253
 7548SOL     OW23328   0.317   0.993   6.466  0.4125  0.2514 -0.0648
 7548SOL    HW123329   0.386   1.054   6.491  1.0837  0.1607 -1.5839
 7548SOL    HW223330   0.264   1.040   6.403 -1.5476  0.6514  1.7729
 7549SOL     OW23331   6.694   5.264   3.155  0.1287  0.0874 -0.4660
 7549SOL    HW123332   6.751   5.244   3.081 -0.7033 -0.6250 -0.9314
 7549SOL    HW223333   6.642   5.339   3.126 -1.2708 -1.1289 -1.2289
 7550SOL     OW23334   4.277   2.194   5.369 -0.0344  0.1484  0.0582
 7550SOL    HW123335   4.210   2.218   5.305  0.1538 -0.9783 -0.5836
 7550SOL    HW223336   4.311   2.110   5.338  0.2308 -0.3084  1.5111
 7551SOL     OW23337   3.938   2.425   7.778  0.3518 -0.0222  0.2802
 7551SOL    HW123338   3.884   2.502   7.800 -0.7634 -0.5373 -0.5795
 7551SOL    HW223339   3.981   2.402   7.860 -1.7547 -0.3653  1.3545
 7552SOL     OW23340   7.292   7.686   7.505  0.1402  0.6120 -0.5384
 7552SOL    HW123341   7.300   7.592   7.519  1.0881  0.7064 -0.3647
 7552SOL    HW223342   7.293   7.696   7.410  2.3773  0.5912 -0.5662
 7553SOL     OW23343   6.219   6.098   0.116 -0.1271  0.0070 -0.3344
 7553SOL    HW123344   6.301   6.099   0.166 -0.6906 -0.3863  0.6136
 7553SOL    HW223345   6.247   6.095   0.024  0.9251 -0.5104 -0.0115
 7554SOL     OW23346   0.784   7.130   2.084  0.1413  0.2154  0.2360
 7554SOL    HW123347   0.797   7.061   2.018 -0.3688 -0.8106  1.1697
 7554SOL    HW223348   0.826   7.095   2.163 -1.6729  0.1722  1.2233
 7555SOL     OW23349   3.156   3.199   2.066  0.2907 -0.0658  0.0295
 7555SOL    HW123350   3.185   3.108   2.068  0.9740  0.1557  0.6400
 7555SOL    HW223351   3.170   3.231   2.155 -3.2217 -0.3381  0.8233
 7556SOL     OW23352   1.329   7.391   7.278 -0.8133  0.6584 -0.0719
 7556SOL    HW123353   1.363   7.406   7.190 -0.2213 -0.6834 -0.0963
 7556SOL    HW223354   1.261   7.457   7.289 -1.0445  0.7175 -1.6249
 7557SOL     OW23355   3.653   0.560   2.561 -0.2503 -0.0361  0.8923
 7557SOL    HW123356   3.687   0.647   2.541 -0.4475  0.1506  1.3428
 7557SOL    HW223357   3.676   0.546   2.653 -0.9405 -0.1043  1.0663
 7558SOL     OW23358   3.175   6.656   2.680  0.5225  0.2574  0.1706
 7558SOL    HW123359   3.229   6.626   2.607 -0.2267 -1.5497  0.3111
 7558SOL    HW223360   3.164   6.750   2.665  1.2054  0.1038 -1.4724
 7559SOL     OW23361   6.803   3.094   5.453 -0.0610 -0.3436  0.4377
 7559SOL    HW123362   6.757   3.159   5.400  0.4671  0.0639  0.4588
 7559SOL    HW223363   6.769   3.106   5.541  0.0601 -0.0640  0.4481
 7560SOL     OW23364   2.966   6.424   1.236 -0.5050 -0.2016  0.3305
 7560SOL    HW123365   2.963   6.520   1.230  0.3829 -0.0325  1.8814
 7560SOL    HW223366   2.923   6.404   1.320  2.2851 -0.8455  1.7218
 7561SOL     OW23367   3.307   1.586   6.646  0.6974  0.6476  0.5260
 7561SOL    HW123368   3.311   1.678   6.622 -1.5399  0.8093  0.5245
 7561SOL    HW223369   3.366   1.542   6.585  0.4172  1.8842 -0.6839
 7562SOL     OW23370   1.593   4.343   3.744  0.2860 -0.5305 -0.4303
 7562SOL    HW123371   1.615   4.419   3.798  1.5556 -1.7822  0.9357
 7562SOL    HW223372   1.574   4.274   3.808  0.9230 -1.8363 -1.6065
 7563SOL     OW23373   4.361   7.713   7.465 -0.6779  0.1982 -0.2691
 7563SOL    HW123374   4.285   7.658   7.449  0.7319 -1.7958 -0.5111
 7563SOL    HW223375   4.366   7.719   7.561  0.7454 -2.6333 -0.0568
 7564SOL     OW23376   0.109   2.618   1.952 -0.3730  1.0549 -0.2244
 7564SOL    HW123377   0.085   2.526   1.947  2.1446  0.2729  0.3335
 7564SOL    HW223378   0.068   2.658   1.876 -1.8215 -0.4383 -0.2665
 7565SOL     OW23379   7.630   6.502   1.440  0.1911  0.2940  0.0917
 7565SOL    HW123380   7.642   6.530   1.350 -0.5054  0.2197 -0.0250
 7565SOL    HW223381   7.612   6.408   1.434 -1.4266  0.5744  0.1746
 7566SOL     OW23382   2.548   6.771   4.499  0.5417 -0.1662 -0.0015
 7566SOL    HW123383   2.614   6.703   4.507  0.8694  0.0853 -0.5572
 7566SOL    HW223384   2.465   6.724   4.492  0.6674 -0.4820  0.5822
 7567SOL     OW23385   5.612   4.369   4.094 -0.3384  0.1452 -0.0052
 7567SOL    HW123386   5.583   4.419   4.170 -0.3362  0.0593  0.0522
 7567SOL    HW223387   5.559   4.402   4.022 -0.6158 -0.0426  0.1064
 7568SOL     OW23388   4.858   4.935   1.462  0.5747 -0.1997 -0.1662
 7568SOL    HW123389   4.839   5.009   1.405  1.4932 -1.1793 -1.7987
 7568SOL    HW223390   4.952   4.921   1.453  0.7821 -0.2953  1.7377
 7569SOL     OW23391   1.893   1.390   0.606  0.2968  0.1317 -0.2709
 7569SOL    HW123392   1.848   1.325   0.660  0.4107 -1.5638 -2.1142
 7569SOL    HW223393   1.896   1.469   0.661  0.1407 -1.3885  2.0408
 7570SOL     OW23394   7.290   3.471   3.524 -0.3690 -0.2851 -0.1524
 7570SOL    HW123395   7.283   3.480   3.619  1.4592 -1.7852  0.1806
 7570SOL    HW223396   7.219   3.411   3.501  0.8686 -2.2010  0.7339
 7571SOL     OW23397   1.047   0.266   0.840  0.0777 -0.0539 -0.2600
 7571SOL    HW123398   1.087   0.203   0.780 -1.4905  0.4545 -1.9274
 7571SOL    HW223399   0.955   0.240   0.845  0.2342 -0.3741  2.3952
 7572SOL     OW23400   5.764   4.968   5.522  0.6384  0.2694 -0.3164
 7572SOL    HW123401   5.699   5.008   5.580  0.6067  0.2043 -0.3066
 7572SOL    HW223402   5.728   4.882   5.501  0.9764  0.0193  0.1203
 7573SOL     OW23403   2.808   1.879   0.268 -0.3474 -0.2581 -0.1044
 7573SOL    HW123404   2.877   1.877   0.202  0.4843  1.0010  0.6824
 7573SOL    HW223405   2.733   1.836   0.226  1.0524 -2.1681 -0.7576
 7574SOL     OW23406   1.857   7.083   3.872  0.3686 -0.6305  0.1856
 7574SOL    HW123407   1.887   7.002   3.831 -1.3541 -0.4078 -1.6419
 7574SOL    HW223408   1.826   7.056   3.958 -0.2659 -1.9396 -0.4253
 7575SOL     OW23409   1.786   0.872   6.774  0.5828 -0.9529  0.2647
 7575SOL    HW123410   1.750   0.872   6.685  0.5247 -1.2136  0.2864
 7575SOL    HW223411   1.796   0.964   6.796  3.0372 -0.8044 -1.0257
 7576SOL     OW23412   6.915   7.333   4.616  0.3953  0.1975  0.5466
 7576SOL    HW123413   6.842   7.332   4.677 -0.4568 -0.0769 -0.4397
 7576SOL    HW223414   6.884   7.281   4.542  1.1131  1.1159 -0.4274
 7577SOL     OW23415   6.346   2.340   2.929 -0.4382  0.3890 -0.3697
 7577SOL    HW123416   6.372   2.323   3.019 -0.2687  1.1286 -0.2675
 7577SOL    HW223417   6.363   2.434   2.917 -1.9016  0.6449 -0.6833
 7578SOL     OW23418   3.693   6.996   1.609  0.1534  0.5454 -1.1753
 7578SOL    HW123419   3.702   6.916   1.662  0.6971  0.1300 -1.8681
 7578SOL    HW223420   3.782   7.030   1.602 -0.3464  2.5840  1.1107
 7579SOL     OW23421   6.684   3.552   6.840 -0.0120  0.1815 -0.0294
 7579SOL    HW123422   6.716   3.523   6.755 -0.2620  1.3157 -0.5253
 7579SOL    HW223423   6.657   3.643   6.826 -1.1186  0.0366  0.9728
 7580SOL     OW23424   4.049   0.509   1.221  0.4883 -0.3525  0.0077
 7580SOL    HW123425   3.995   0.539   1.294 -1.0961 -2.5310 -0.1509
 7580SOL    HW223426   3.986   0.475   1.157  1.9015  0.3533 -1.8452
 7581SOL     OW23427   6.603   6.905   0.893 -0.2498 -0.0968  0.2513
 7581SOL    HW123428   6.543   6.831   0.888 -0.9871  0.5259 -0.5814
 7581SOL    HW223429   6.594   6.948   0.808  0.5696  0.6275  0.5246
 7582SOL     OW23430   2.136   4.181   0.076 -0.3160 -0.1434  0.0525
 7582SOL    HW123431   2.177   4.168   0.162  0.0962  0.9950  0.0346
 7582SOL    HW223432   2.044   4.158   0.091 -0.1728 -0.3292  0.6947
 7583SOL     OW23433   4.525   3.630   2.681 -0.8286 -0.3782  0.8660
 7583SOL    HW123434   4.548   3.553   2.629 -0.7975  0.3258 -0.2106
 7583SOL    HW223435   4.454   3.672   2.631  0.5449  1.3997  0.3000
 7584SOL     OW23436   3.547   6.444   3.163 -0.1669 -0.1851  0.2770
 7584SOL    HW123437   3.611   6.394   3.214  0.4132 -0.8599 -1.0872
 7584SOL    HW223438   3.594   6.470   3.084 -1.3005  0.1121 -0.3177
 7585SOL     OW23439   2.757   1.168   0.571  0.2165 -0.0518 -0.1394
 7585SOL    HW123440   2.743   1.228   0.497  1.2195 -0.0539 -0.3547
 7585SOL    HW223441   2.671   1.133   0.590 -0.7810  2.8711  1.2359
 7586SOL     OW23442   1.190   0.063   1.174  0.1624 -0.4953 -0.1000
 7586SOL    HW123443   1.177   0.155   1.196  0.0663 -0.8592  1.5193
 7586SOL    HW223444   1.110   0.037   1.129  0.0607  0.1233 -0.2856
 7587SOL     OW23445   7.271   1.356   4.966 -0.2007 -0.0622  0.4993
 7587SOL    HW123446   7.267   1.269   5.008 -0.1791  0.5305  1.7692
 7587SOL    HW223447   7.362   1.385   4.980  0.7195 -1.0602 -2.5602
 7588SOL     OW23448   4.167   6.317   6.430 -0.1555 -0.1219 -1.5062
 7588SOL    HW123449   4.089   6.292   6.478  0.7990 -1.1843 -0.4450
 7588SOL    HW223450   4.198   6.397   6.474  0.2544 -0.6266 -0.8641
 7589SOL     OW23451   0.125   2.258   1.285 -0.3683  0.0817 -0.0709
 7589SOL    HW123452   0.120   2.247   1.380 -0.0102 -0.4013 -0.1064
 7589SOL    HW223453   0.091   2.346   1.270  0.3711  0.4926  0.5893
 7590SOL     OW23454   7.727   0.637   3.007  0.2889  0.2581  0.2085
 7590SOL    HW123455   7.755   0.669   2.921  0.7052  1.0154  0.6128
 7590SOL    HW223456   7.743   0.543   3.005  0.4601  0.2994 -0.4847
 7591SOL     OW23457   4.394   4.955   3.479 -0.4770 -0.2578 -0.1778
 7591SOL    HW123458   4.472   5.010   3.468 -0.2643 -0.7892 -1.5224
 7591SOL    HW223459   4.403   4.887   3.413  0.2110 -3.1210  2.6083
 7592SOL     OW23460   6.026   3.240   1.969 -0.1937 -0.0690  0.4619
 7592SOL    HW123461   5.932   3.251   1.978  0.0037  1.8503  0.5807
 7592SOL    HW223462   6.044   3.153   2.005 -1.7884 -0.0684  1.3345
 7593SOL     OW23463   6.891   7.457   6.161  0.2059  0.1277  0.0264
 7593SOL    HW123464   6.896   7.455   6.065 -0.4647  0.2268 -0.0192
 7593SOL    HW223465   6.797   7.453   6.179  0.3571 -0.5060  0.6995
 7594SOL     OW23466   6.749   5.994   5.329  0.3524 -0.6410 -0.7946
 7594SOL    HW123467   6.820   6.050   5.298 -0.7411  0.5016 -1.3609
 7594SOL    HW223468   6.685   5.995   5.258 -0.8925 -0.3982  0.2846
 7595SOL     OW23469   5.991   4.785   6.217 -0.1295 -0.8872  0.1441
 7595SOL    HW123470   6.027   4.715   6.162  0.1071 -0.1072 -0.7174
 7595SOL    HW223471   5.981   4.859   6.158 -3.6873 -1.1667  0.1627
 7596SOL     OW23472   6.092   1.548   7.208  1.1120  0.6273 -0.2818
 7596SOL    HW123473   6.129   1.515   7.290 -0.2477 -1.2860 -0.3736
 7596SOL    HW223474   6.025   1.484   7.184  0.8007  1.6473 -2.3972
 7597SOL     OW23475   3.770   4.732   6.402 -0.1837  0.0643  0.0747
 7597SOL    HW123476   3.690   4.764   6.361  0.4135  0.6073 -0.6860
 7597SOL    HW223477   3.777   4.641   6.372 -1.5742 -0.6727  1.7798
 7598SOL     OW23478   1.252   1.264   7.002 -0.2711 -0.0629  0.2781
 7598SOL    HW123479   1.309   1.304   7.067 -1.4581  0.8471  0.7986
 7598SOL    HW223480   1.232   1.178   7.037 -0.6113  0.2843  0.9521
 7599SOL     OW23481   6.477   6.479   0.586 -0.5067  0.9060 -0.7822
 7599SOL    HW123482   6.489   6.384   0.583  0.4666  0.9762  0.2397
 7599SOL    HW223483   6.554   6.512   0.632 -2.3185  1.8826  1.8312
 7600SOL     OW23484   6.500   0.168   4.450 -0.3197  0.0294 -0.4715
 7600SOL    HW123485   6.595   0.154   4.446 -0.3396  0.1445 -1.5925
 7600SOL    HW223486   6.478   0.208   4.366 -1.4477 -0.4987 -0.4422
 7601SOL     OW23487   3.716   5.703   1.244 -0.0555 -0.6075 -0.1668
 7601SOL    HW123488   3.724   5.687   1.150  1.4447  1.8388 -0.5615
 7601SOL    HW223489   3.630   5.742   1.256  0.2480  0.2791 -0.7772
 7602SOL     OW23490   4.347   1.107   0.610 -0.4723 -0.2946  0.3765
 7602SOL    HW123491   4.387   1.034   0.563 -2.0514 -0.8229 -0.2228
 7602SOL    HW223492   4.294   1.065   0.678 -2.1091  0.2052 -0.5404
 7603SOL     OW23493   5.437   3.522   6.147 -0.2445 -0.3285  0.1812
 7603SOL    HW123494   5.408   3.571   6.070 -1.1761 -0.8786  0.1704
 7603SOL    HW223495   5.462   3.436   6.112 -1.3284 -0.8207  0.5603
 7604SOL     OW23496   6.928   3.239   1.507 -0.0465 -0.1135 -0.0446
 7604SOL    HW123497   6.877   3.225   1.427  1.2763 -2.8604 -0.5556
 7604SOL    HW223498   6.937   3.151   1.544  3.8859  0.2111  0.2133
 7605SOL     OW23499   2.536   6.432   2.355  0.2870  0.3795 -0.1736
 7605SOL    HW123500   2.538   6.353   2.301 -0.0554  0.5664 -0.4631
 7605SOL    HW223501   2.619   6.431   2.402  0.8800  0.5445 -1.1914
 7606SOL     OW23502   3.262   1.282   0.991 -0.0129  0.0148 -0.1992
 7606SOL    HW123503   3.307   1.214   0.941 -1.8145 -2.3292  1.1493
 7606SOL    HW223504   3.313   1.362   0.974  4.3180 -2.2197  0.7353
 7607SOL     OW23505   5.811   4.747   6.406  0.1403 -0.7668  0.1562
 7607SOL    HW123506   5.886   4.749   6.346 -0.4950 -0.8886 -0.6769
 7607SOL    HW223507   5.784   4.839   6.414 -0.9048 -0.9020 -1.2688
 7608SOL     OW23508   1.124   3.813   0.062 -0.2614 -0.0197  0.1524
 7608SOL    HW123509   1.137   3.766  -0.020  0.2368  0.8802 -0.2950
 7608SOL    HW223510   1.169   3.760   0.128  0.1483 -0.2609 -0.3203
 7609SOL     OW23511   4.459   6.543   0.084 -0.2772  0.1597  0.3121
 7609SOL    HW123512   4.431   6.634   0.092  0.4056  0.3309  0.8139
 7609SOL    HW223513   4.524   6.545   0.013 -1.0892 -0.1369 -0.4548
 7610SOL     OW23514   5.604   7.522   3.474  0.1140  0.4351 -0.2709
 7610SOL    HW123515   5.661   7.449   3.499  1.4153  1.8314  1.1172
 7610SOL    HW223516   5.517   7.497   3.504  0.6576 -0.3063  0.7457
 7611SOL     OW23517   0.251   5.063   6.985 -0.6902 -0.0287 -0.1100
 7611SOL    HW123518   0.213   5.115   7.056 -1.4202 -0.7262  0.0203
 7611SOL    HW223519   0.270   5.126   6.916 -1.9361  0.3572 -0.1089
 7612SOL     OW23520   2.495   5.967   2.843 -0.0028 -0.0643  0.2961
 7612SOL    HW123521   2.501   6.059   2.871  1.8216  0.6517 -2.0563
 7612SOL    HW223522   2.451   5.923   2.915 -0.4239  2.5404  1.7830
 7613SOL     OW23523   2.657   3.394   7.550  0.7168  0.0659 -0.2491
 7613SOL    HW123524   2.567   3.370   7.575 -0.0276  0.2644 -2.4906
 7613SOL    HW223525   2.703   3.311   7.543 -0.4283 -0.4602 -2.8712
 7614SOL     OW23526   1.190   3.887   7.463 -0.4774  0.1237  0.2629
 7614SOL    HW123527   1.162   3.972   7.498 -1.2889 -0.0769  0.1097
 7614SOL    HW223528   1.278   3.904   7.429 -0.3956  0.7588  0.7654
 7615SOL     OW23529   1.262   7.057   4.698 -0.0768  0.0906 -0.3043
 7615SOL    HW123530   1.304   6.974   4.720 -1.3293 -0.5697 -0.3181
 7615SOL    HW223531   1.261   7.107   4.780  0.4079 -0.0225 -0.2277
 7616SOL     OW23532   3.467   6.946   1.389  0.1332 -0.1165  0.2507
 7616SOL    HW123533   3.546   6.994   1.415 -0.1900  1.1469 -0.9540
 7616SOL    HW223534   3.447   6.889   1.464  1.5290  0.3724  1.0262
 7617SOL     OW23535   1.476   7.143   6.854  0.4698  0.1735  0.1169
 7617SOL    HW123536   1.556   7.190   6.829 -0.6645  1.7316 -0.8671
 7617SOL    HW223537   1.478   7.063   6.802  0.6897  0.9230 -1.0886
 7618SOL     OW23538   7.430   5.096   5.701 -0.0272  0.2023 -0.7345
 7618SOL    HW123539   7.385   5.013   5.712 -2.3045  1.6629  2.1015
 7618SOL    HW223540   7.521   5.072   5.683 -0.5934 -2.8559  0.0378
 7619SOL     OW23541   2.443   6.086   5.442  0.1207 -0.2538  0.0561
 7619SOL    HW123542   2.383   6.121   5.377 -0.3580 -0.2925  0.4705
 7619SOL    HW223543   2.480   6.007   5.402 -2.4777 -2.0796  0.9397
 7620SOL     OW23544   5.145   3.925   3.410  0.2375  0.1160  0.1956
 7620SOL    HW123545   5.170   3.939   3.319 -2.6724  1.2975 -0.5579
 7620SOL    HW223546   5.154   3.830   3.423 -0.8077 -0.3384 -1.9110
 7621SOL     OW23547   7.028   0.061   7.529 -0.4643  0.5952  0.1762
 7621SOL    HW123548   7.121   0.044   7.542 -0.4123  0.4266 -0.3797
 7621SOL    HW223549   6.987  -0.026   7.533 -0.4321  0.5159 -0.8082
 7622SOL     OW23550   7.686   2.167   0.622 -0.1468  0.3764 -0.0946
 7622SOL    HW123551   7.713   2.107   0.553 -1.3527  0.8281 -0.9823
 7622SOL    HW223552   7.697   2.117   0.703 -2.2630 -1.4987 -0.8972
 7623SOL     OW23553   0.376   2.822   4.612  0.2507  0.5560 -0.0990
 7623SOL    HW123554   0.344   2.829   4.702  1.7109  2.0302  0.3549
 7623SOL    HW223555   0.447   2.887   4.607 -0.1259  0.8656 -2.4458
 7624SOL     OW23556   7.001   0.444   1.189 -0.2883  0.2009  0.1966
 7624SOL    HW123557   6.940   0.378   1.223 -1.4331  1.5942  0.9709
 7624SOL    HW223558   7.048   0.399   1.119  0.8333 -2.2311  2.3560
 7625SOL     OW23559   4.320   7.143   6.810 -0.3545  0.4473  0.4278
 7625SOL    HW123560   4.372   7.071   6.774  0.3153  0.5944  1.0794
 7625SOL    HW223561   4.307   7.119   6.902 -0.9839  0.6795  0.4040
 7626SOL     OW23562   2.809   7.035   7.307  0.4549  0.5110  0.2473
 7626SOL    HW123563   2.817   7.003   7.217  2.9976 -2.3051  1.2784
 7626SOL    HW223564   2.900   7.049   7.335 -0.3159  2.1924  2.1111
 7627SOL     OW23565   0.821   7.578   0.471  0.1279 -0.0343  0.1496
 7627SOL    HW123566   0.837   7.646   0.405  0.3171  0.0558  0.2852
 7627SOL    HW223567   0.731   7.592   0.499  0.4981  0.8651  0.9668
 7628SOL     OW23568   4.075   3.463   2.980 -0.2019  0.1385  0.0366
 7628SOL    HW123569   4.038   3.406   2.912 -0.8767  1.2062 -0.5186
 7628SOL    HW223570   4.160   3.424   2.999  0.0635 -0.1132 -1.5198
 7629SOL     OW23571   2.172   1.917   3.538  0.1611 -0.3765 -0.4192
 7629SOL    HW123572   2.108   1.888   3.474 -1.1221 -0.4087  0.8196
 7629SOL    HW223573   2.165   2.013   3.537  0.6469 -0.3422 -0.8167
 7630SOL     OW23574   3.569   5.197   1.735 -0.0373 -0.2220  0.2895
 7630SOL    HW123575   3.639   5.159   1.788  0.5777  1.6664  0.9128
 7630SOL    HW223576   3.614   5.260   1.678 -0.9596 -0.6696 -0.9666
 7631SOL     OW23577   6.870   6.589   7.346  0.1145 -0.3692  0.2990
 7631SOL    HW123578   6.940   6.654   7.357 -1.2466  1.0472  0.8462
 7631SOL    HW223579   6.916   6.505   7.349  1.8796  0.5212 -0.0135
 7632SOL     OW23580   1.350   6.445   1.323 -0.0164  0.5071  0.2994
 7632SOL    HW123581   1.331   6.494   1.243  0.5298 -0.5102 -0.4661
 7632SOL    HW223582   1.442   6.419   1.314 -0.3928 -0.9492  0.5325
 7633SOL     OW23583   3.457   2.667   6.165  0.1633 -0.3830 -0.0319
 7633SOL    HW123584   3.468   2.672   6.260  0.4622 -0.7881 -0.0451
 7633SOL    HW223585   3.543   2.641   6.132  0.0799 -0.1729 -0.4199
 7634SOL     OW23586   0.051   4.517   6.170  0.5419 -0.5351 -0.1945
 7634SOL    HW123587   0.024   4.558   6.089 -0.1539  0.5389  0.5643
 7634SOL    HW223588   0.119   4.574   6.205 -0.0992 -0.2506  0.6315
 7635SOL     OW23589   1.713   4.555   3.562 -0.6264 -0.2471  0.1786
 7635SOL    HW123590   1.703   4.478   3.618  2.7567 -0.6149  0.4750
 7635SOL    HW223591   1.790   4.536   3.509  0.3249  2.9193  0.2377
 7636SOL     OW23592   4.886   7.078   4.346  0.0219 -0.1179 -0.1185
 7636SOL    HW123593   4.834   6.998   4.357  0.2812 -0.0474  1.8584
 7636SOL    HW223594   4.834   7.147   4.387  0.7427  0.3356  0.0564
 7637SOL     OW23595   6.327   7.753   6.558 -0.1592  0.0489  0.1765
 7637SOL    HW123596   6.326   7.756   6.463 -2.7986  0.1872  0.1341
 7637SOL    HW223597   6.371   7.671   6.579 -1.1556 -0.8818 -1.2211
 7638SOL     OW23598   1.715   4.487   2.089  0.2979  0.5964  0.2930
 7638SOL    HW123599   1.633   4.527   2.118 -1.1754 -1.3128 -1.0376
 7638SOL    HW223600   1.689   4.407   2.044  3.0048 -1.4186  1.9243
 7639SOL     OW23601   5.019   3.040   6.541  0.0730 -0.4892 -0.1194
 7639SOL    HW123602   4.965   3.078   6.610 -0.3449 -1.6141  0.1948
 7639SOL    HW223603   4.959   2.986   6.490  0.4892 -0.1100 -1.0413
 7640SOL     OW23604   0.236   3.579   2.474 -0.4256 -0.2646 -0.3785
 7640SOL    HW123605   0.216   3.509   2.536  1.1960 -0.2748  0.1988
 7640SOL    HW223606   0.225   3.539   2.388 -1.0009 -0.7691 -0.0721
 7641SOL     OW23607   3.710   0.858   5.494 -0.1445  0.1695 -0.0398
 7641SOL    HW123608   3.728   0.797   5.566 -0.6231  0.3526  0.2401
 7641SOL    HW223609   3.717   0.945   5.534 -0.1380  0.2795 -0.2806
 7642SOL     OW23610   7.527   5.688   2.679 -0.3142 -0.2015  0.1630
 7642SOL    HW123611   7.607   5.721   2.637 -0.9238  0.6528 -0.3668
 7642SOL    HW223612   7.522   5.734   2.762 -1.3266  1.3430 -0.7097
 7643SOL     OW23613   3.201   6.471   2.256 -0.1093 -0.2810 -0.0574
 7643SOL    HW123614   3.235   6.477   2.167 -1.6002 -1.1786 -0.7283
 7643SOL    HW223615   3.166   6.383   2.263 -0.5020 -0.0474  1.2497
 7644SOL     OW23616   7.221   6.212   7.321 -0.2488  0.6863  0.0047
 7644SOL    HW123617   7.253   6.157   7.249  2.1857  2.4391 -0.3547
 7644SOL    HW223618   7.280   6.193   7.394 -0.7241  1.2755  0.5530
 7645SOL     OW23619   6.609   0.590   0.739 -0.6482  0.1183  0.1539
 7645SOL    HW123620   6.529   0.539   0.727 -0.3029 -0.4936  0.4245
 7645SOL    HW223621   6.624   0.631   0.654  0.0485 -1.6671 -0.6408
 7646SOL     OW23622   6.962   6.256   7.347 -0.1400 -0.3127 -0.7217
 7646SOL    HW123623   6.948   6.266   7.253  0.6202 -0.6699 -0.8803
 7646SOL    HW223624   7.057   6.244   7.356 -0.1062  0.4889  0.1609
 7647SOL     OW23625   0.720   5.024   5.730 -0.0179 -0.4716 -0.1656
 7647SOL    HW123626   0.738   4.994   5.820  0.3030 -2.9032 -0.9721
 7647SOL    HW223627   0.800   5.006   5.682  0.9264  3.4880 -0.4658
 7648SOL     OW23628   5.306   1.543   7.742  0.1769 -0.0127  0.4680
 7648SOL    HW123629   5.369   1.531   7.814  0.0283 -0.0416  0.5919
 7648SOL    HW223630   5.359   1.581   7.671  0.2086  0.5545  0.7848
 7649SOL     OW23631   1.996   0.962   2.203 -0.1737 -0.0573  0.0386
 7649SOL    HW123632   2.085   0.929   2.197 -0.4737 -1.2302  1.5034
 7649SOL    HW223633   1.955   0.938   2.120  0.8696  0.5539 -0.6717
 7650SOL     OW23634   5.826   4.158   7.419  0.1943 -0.1685 -0.4055
 7650SOL    HW123635   5.858   4.246   7.397 -1.9923  0.6334 -0.6900
 7650SOL    HW223636   5.741   4.153   7.376  0.5246 -2.6896 -0.8684
 7651SOL     OW23637   6.101   4.070   4.921 -0.6152 -0.6829 -0.1078
 7651SOL    HW123638   6.183   4.093   4.966  0.1012 -0.9820 -1.2208
 7651SOL    HW223639   6.067   4.154   4.890 -1.4692 -0.3811  1.5019
 7652SOL     OW23640   2.181   0.772   3.851  0.4687 -0.7323  0.2946
 7652SOL    HW123641   2.086   0.780   3.855  0.4559  0.6155 -1.4144
 7652SOL    HW223642   2.209   0.774   3.943 -1.0295  0.8691  0.7874
 7653SOL     OW23643   2.579   3.162   3.504 -0.8319  0.7267 -0.2153
 7653SOL    HW123644   2.660   3.153   3.452 -0.1621  2.4439  0.4560
 7653SOL    HW223645   2.530   3.082   3.485  0.6556  0.0043 -1.2833
 7654SOL     OW23646   4.478   5.440   2.839 -0.0877 -1.0151 -0.8440
 7654SOL    HW123647   4.539   5.370   2.817 -1.4738 -2.2298 -0.9316
 7654SOL    HW223648   4.485   5.501   2.766  1.6721 -0.6481 -0.4199
 7655SOL     OW23649   5.917   1.295   5.733  0.1753 -0.2892 -0.1702
 7655SOL    HW123650   5.881   1.356   5.797  1.6058  0.0631  0.3461
 7655SOL    HW223651   5.863   1.217   5.740 -0.6251  0.3007  0.3859
 7656SOL     OW23652   3.259   0.054   7.700 -0.0663  0.5253 -0.6593
 7656SOL    HW123653   3.340   0.045   7.650  0.2829  4.5775 -1.1464
 7656SOL    HW223654   3.289   0.075   7.789 -0.6383 -0.0572 -0.3234
 7657SOL     OW23655   5.817   1.437   5.930  0.4227  0.1561 -0.5386
 7657SOL    HW123656   5.727   1.430   5.960  0.4994 -1.4084 -0.5851
 7657SOL    HW223657   5.870   1.433   6.010  0.4484  2.9235 -0.3265
 7658SOL     OW23658   3.639   1.106   0.750  0.1977 -0.1396  0.1740
 7658SOL    HW123659   3.672   1.073   0.666  0.5992  0.6307  0.0203
 7658SOL    HW223660   3.662   1.037   0.813 -0.1729 -0.7597 -0.3477
 7659SOL     OW23661   0.256   0.971   2.344  0.0718  0.5278  0.3754
 7659SOL    HW123662   0.206   1.049   2.323  1.7989  1.5302 -0.2488
 7659SOL    HW223663   0.340   1.004   2.377  1.1179 -1.0258 -0.5656
 7660SOL     OW23664   4.418   6.012   4.591 -0.2179 -0.1143 -0.3803
 7660SOL    HW123665   4.498   6.018   4.642  1.0477  0.1698 -2.3074
 7660SOL    HW223666   4.348   6.010   4.656  1.3941 -2.4780  1.4532
 7661SOL     OW23667   5.606   4.136   4.605  0.6833  0.0028 -0.2176
 7661SOL    HW123668   5.659   4.196   4.553 -2.4457  1.8486 -1.5758
 7661SOL    HW223669   5.563   4.079   4.541 -0.9726  0.3416  0.5315
 7662SOL     OW23670   4.999   0.948   5.913  0.0426  0.5691 -0.0263
 7662SOL    HW123671   4.966   0.981   5.997 -2.0966  0.0044 -0.5857
 7662SOL    HW223672   4.921   0.938   5.859  1.2906  0.1350 -1.8300
 7663SOL     OW23673   3.306   4.803   2.919 -0.1189  0.1165 -0.5424
 7663SOL    HW123674   3.396   4.818   2.948 -0.1127  0.0825 -0.5428
 7663SOL    HW223675   3.281   4.883   2.874 -1.2457  1.4512  2.2553
 7664SOL     OW23676   5.690   1.986   2.759 -0.4849 -0.0923 -0.0413
 7664SOL    HW123677   5.664   2.078   2.752 -1.5315 -0.2798  1.0506
 7664SOL    HW223678   5.749   1.973   2.686 -0.9670  1.2366 -0.7114
 7665SOL     OW23679   2.377   1.948   4.587 -0.6312 -0.8353  0.4455
 7665SOL    HW123680   2.445   2.014   4.580 -1.3882  0.0390  1.1268
 7665SOL    HW223681   2.425   1.866   4.603  0.2514 -0.2014  1.1481
 7666SOL     OW23682   1.891   6.741   5.047 -0.9775  0.2386 -0.0657
 7666SOL    HW123683   1.947   6.664   5.038 -1.5108 -0.0311 -1.2822
 7666SOL    HW223684   1.948   6.807   5.086 -0.2703 -0.5188  0.2106
 7667SOL     OW23685   1.600   5.200   5.411 -1.1083 -0.2421 -0.0128
 7667SOL    HW123686   1.654   5.124   5.390 -2.3074 -1.1775  0.1933
 7667SOL    HW223687   1.661   5.262   5.453  0.7105  0.5120 -3.4364
 7668SOL     OW23688   7.038   2.878   0.999 -0.3293  0.2105 -0.0294
 7668SOL    HW123689   7.020   2.784   0.994  1.3771 -0.2991  1.9938
 7668SOL    HW223690   7.056   2.904   0.909  0.3840 -1.7044 -0.4856
 7669SOL     OW23691   5.001   0.039   7.353  0.2645 -0.5882 -0.2178
 7669SOL    HW123692   5.039   0.072   7.435 -0.6628  0.7039 -0.2818
 7669SOL    HW223693   4.965  -0.046   7.376  1.3697 -0.9264  0.3352
 7670SOL     OW23694   6.013   0.162   0.681  0.3157 -0.1193  0.1983
 7670SOL    HW123695   6.108   0.168   0.687  0.5642 -2.0118 -1.0890
 7670SOL    HW223696   5.986   0.246   0.643  1.4629  0.3543  0.3845
 7671SOL     OW23697   1.060   3.154   7.558 -0.5199  0.1311  0.1341
 7671SOL    HW123698   1.100   3.081   7.605 -1.5708 -0.9216 -0.5554
 7671SOL    HW223699   1.101   3.153   7.472 -1.6018 -0.6024 -0.3851
 7672SOL     OW23700   4.761   0.195   4.307  0.0244  0.1463  0.1444
 7672SOL    HW123701   4.694   0.206   4.375 -0.7996 -2.2642 -0.1941
 7672SOL    HW223702   4.844   0.193   4.355 -0.2535  1.4104  0.7321
 7673SOL     OW23703   2.588   5.696   2.994  0.1193 -0.4601  0.0449
 7673SOL    HW123704   2.620   5.774   2.948 -1.4644  0.2477  0.1064
 7673SOL    HW223705   2.668   5.650   3.020  1.0864  0.9864 -0.2369
 7674SOL     OW23706   5.980   0.569   5.775  0.3497  0.7686 -0.3208
 7674SOL    HW123707   5.947   0.537   5.859 -0.5678  1.4968 -0.3865
 7674SOL    HW223708   6.066   0.528   5.766  1.0221  1.6601  1.5615
 7675SOL     OW23709   3.897   5.374   5.368  0.4171  0.4920  0.0868
 7675SOL    HW123710   3.937   5.298   5.409  1.1164  0.2472 -1.0206
 7675SOL    HW223711   3.966   5.413   5.315  0.4807  2.6920  1.6285
 7676SOL     OW23712   5.093   0.055   6.831  0.7492  0.1393  0.5650
 7676SOL    HW123713   5.034   0.105   6.888  0.6193 -0.4407  0.9530
 7676SOL    HW223714   5.129  -0.013   6.888  0.3632 -0.6611 -0.1169
 7677SOL     OW23715   0.049   5.406   0.802 -0.4047  0.3350 -0.3349
 7677SOL    HW123716  -0.021   5.463   0.833  0.9577  1.8737  0.0936
 7677SOL    HW223717   0.051   5.418   0.707  0.2533  1.5186 -0.1916
 7678SOL     OW23718   0.673   3.994   2.070  0.3029 -0.1359 -0.3328
 7678SOL    HW123719   0.704   4.078   2.037 -1.9392  0.4133 -1.2645
 7678SOL    HW223720   0.638   4.013   2.157  0.4460 -0.2538 -0.2492
 7679SOL     OW23721   5.222   6.872   1.650  0.2167 -0.0326 -0.6829
 7679SOL    HW123722   5.162   6.813   1.605 -1.5933  1.8012 -0.8252
 7679SOL    HW223723   5.178   6.892   1.733  0.2717  1.8524 -1.0582
 7680SOL     OW23724   2.000   3.648   2.099  0.0040 -0.2046 -0.0657
 7680SOL    HW123725   1.958   3.563   2.104 -1.2193  0.3223 -0.9048
 7680SOL    HW223726   2.078   3.640   2.154 -1.1198 -1.2502  1.4324
 7681SOL     OW23727   7.550   2.885   6.821 -0.3625 -0.6947 -0.0795
 7681SOL    HW123728   7.561   2.818   6.888  0.4630  1.2741  1.9008
 7681SOL    HW223729   7.603   2.959   6.852 -1.7350  1.1250 -1.7899
 7682SOL     OW23730   4.289   2.976   0.644  0.4990 -0.7355  0.2402
 7682SOL    HW123731   4.287   2.967   0.548  0.4659 -3.2362  0.4089
 7682SOL    HW223732   4.197   2.979   0.669  0.4561  2.6455  0.0930
 7683SOL     OW23733   1.402   3.287   2.072 -0.3224  0.4328  0.2049
 7683SOL    HW123734   1.420   3.206   2.025 -0.3875  0.7408 -0.3541
 7683SOL    HW223735   1.458   3.283   2.149 -0.1109 -0.0088  0.0292
 7684SOL     OW23736   1.264   3.485   3.811 -0.0541  0.0294  0.2104
 7684SOL    HW123737   1.307   3.416   3.761  1.7041  1.6078 -0.5703
 7684SOL    HW223738   1.191   3.512   3.756 -0.5682 -0.9387  0.3814
 7685SOL     OW23739   3.869   5.538   2.004 -0.8820 -0.2906  0.2148
 7685SOL    HW123740   3.909   5.500   1.926  0.3468  0.8843  0.2195
 7685SOL    HW223741   3.859   5.631   1.983 -0.7210  0.0119  1.3782
 7686SOL     OW23742   6.543   1.226   4.194  0.2125  0.1984 -0.6097
 7686SOL    HW123743   6.507   1.143   4.163  1.1091 -0.8801  1.0969
 7686SOL    HW223744   6.486   1.253   4.266 -0.2901  1.2863 -1.3817
 7687SOL     OW23745   1.053   1.336   4.956  0.1745 -0.0027  0.4154
 7687SOL    HW123746   1.128   1.279   4.940 -0.6697 -0.9129 -0.4456
 7687SOL    HW223747   1.077   1.419   4.914  0.3148 -0.5997 -0.7504
 7688SOL     OW23748   7.723   1.066   3.139  0.2240 -0.6659  0.3437
 7688SOL    HW123749   7.759   1.058   3.051 -0.3074 -0.5305  0.1070
 7688SOL    HW223750   7.629   1.055   3.127  0.0752  0.0286  0.7987
 7689SOL     OW23751   4.773   6.429   6.281 -0.3451  0.4296  0.1034
 7689SOL    HW123752   4.754   6.463   6.194 -0.0639 -0.2179 -0.2174
 7689SOL    HW223753   4.694   6.380   6.305 -0.7270  1.2345  0.5423
 7690SOL     OW23754   1.567   6.856   3.619 -0.2860  0.1039  0.2700
 7690SOL    HW123755   1.543   6.948   3.623  0.9923  0.4377  0.8963
 7690SOL    HW223756   1.549   6.823   3.707 -1.7155 -0.5318 -0.2271
 7691SOL     OW23757   4.857   0.538   1.942 -0.2607  0.0947 -0.0884
 7691SOL    HW123758   4.933   0.486   1.916  0.0143 -0.0442  0.9600
 7691SOL    HW223759   4.882   0.578   2.025 -0.7476  1.3127 -0.5013
 7692SOL     OW23760   3.660   1.782   7.251 -0.2954 -0.7801 -0.0673
 7692SOL    HW123761   3.602   1.708   7.230 -2.3796 -0.2039  2.9745
 7692SOL    HW223762   3.619   1.856   7.206  0.6976 -1.0780 -1.5332
 7693SOL     OW23763   3.013   5.705   2.551  0.6112  0.0914 -0.4951
 7693SOL    HW123764   2.977   5.636   2.495  0.3653  0.7443 -1.1586
 7693SOL    HW223765   3.107   5.685   2.557  0.4166 -0.7123 -0.0693
 7694SOL     OW23766   0.600   2.618   4.655  0.0011 -0.4268  0.6485
 7694SOL    HW123767   0.581   2.711   4.663 -1.5702 -0.7554  1.0985
 7694SOL    HW223768   0.514   2.576   4.649  0.6879 -1.7903 -0.2760
 7695SOL     OW23769   6.235   2.051   3.510  0.3699  0.4353 -0.4016
 7695SOL    HW123770   6.231   2.133   3.558 -3.5905  0.3846 -0.3293
 7695SOL    HW223771   6.285   1.992   3.567  2.0354  2.3266  0.1967
 7696SOL     OW23772   1.183   0.843   0.070 -0.1608  0.0215 -0.0810
 7696SOL    HW123773   1.148   0.932   0.065 -2.7142 -0.8316  0.9201
 7696SOL    HW223774   1.255   0.849   0.133 -0.6798  1.2579  0.4299
 7697SOL     OW23775   3.616   5.150   2.788 -0.3228  0.3376  0.4656
 7697SOL    HW123776   3.680   5.197   2.735  1.5187 -2.3245  0.0851
 7697SOL    HW223777   3.554   5.116   2.724 -1.3726  1.7590  0.6894
 7698SOL     OW23778   5.140   2.028   4.590 -0.3375  0.1596 -0.6337
 7698SOL    HW123779   5.182   2.112   4.604  1.3927 -0.7114 -0.3400
 7698SOL    HW223780   5.129   2.021   4.495  0.5126  0.2585 -0.7413
 7699SOL     OW23781   1.452   4.573   3.029  0.0862 -0.3510 -0.4575
 7699SOL    HW123782   1.544   4.550   3.043  0.3658  0.7126 -0.4647
 7699SOL    HW223783   1.406   4.489   3.032  1.2921 -1.1666 -2.5934
 7700SOL     OW23784   4.430   3.204   6.396 -0.2237 -0.1180 -0.4149
 7700SOL    HW123785   4.363   3.162   6.342  0.1143  0.2878 -1.1562
 7700SOL    HW223786   4.429   3.296   6.370 -0.1193  0.1106  0.3380
 7701SOL     OW23787   0.420   3.778   4.892 -0.1383  0.1500  0.4599
 7701SOL    HW123788   0.410   3.791   4.798 -0.7387  0.4585  0.5599
 7701SOL    HW223789   0.348   3.719   4.916  1.7876 -2.4592  0.2400
 7702SOL     OW23790   5.421   5.266   4.331  0.4306  0.2799  0.1113
 7702SOL    HW123791   5.495   5.323   4.354  0.5499 -0.6968  2.4183
 7702SOL    HW223792   5.374   5.253   4.413  0.9722 -3.7348 -0.0202
 7703SOL     OW23793   4.756   1.750   3.527 -0.1065 -0.0790  0.5555
 7703SOL    HW123794   4.777   1.690   3.598 -1.7040 -1.6901 -0.2418
 7703SOL    HW223795   4.661   1.764   3.535  0.0338  1.4117 -0.0065
 7704SOL     OW23796   1.644   3.121   0.573  1.0398 -0.0479  0.3486
 7704SOL    HW123797   1.732   3.088   0.592  1.1825 -1.3394 -2.0455
 7704SOL    HW223798   1.585   3.052   0.602  1.0797 -0.6572 -0.9142
 7705SOL     OW23799   7.468   4.265   2.471 -0.2903 -0.1452  0.2163
 7705SOL    HW123800   7.542   4.318   2.442 -0.4051 -0.5255 -0.7999
 7705SOL    HW223801   7.490   4.176   2.443 -1.1169 -0.2647 -0.0780
 7706SOL     OW23802   1.691   1.709   2.830  0.2715  0.4138  0.1271
 7706SOL    HW123803   1.756   1.762   2.784  1.1362  0.7774  1.6771
 7706SOL    HW223804   1.735   1.626   2.847 -0.4169 -0.1180 -0.6210
 7707SOL     OW23805   5.242   2.301   3.429 -0.1118  0.3852  0.3003
 7707SOL    HW123806   5.238   2.277   3.522 -2.2108  0.5648  0.2996
 7707SOL    HW223807   5.315   2.364   3.424  0.2195  0.1621  1.7606
 7708SOL     OW23808   0.767   1.914   1.148  0.4014 -0.5050 -0.4243
 7708SOL    HW123809   0.795   1.969   1.222 -1.5542 -1.3949  1.0757
 7708SOL    HW223810   0.720   1.975   1.091  0.0387 -0.2016  0.1777
 7709SOL     OW23811   1.611   6.764   2.542  0.3351 -0.0161 -0.1846
 7709SOL    HW123812   1.700   6.730   2.536  0.4736  0.1390  0.7772
 7709SOL    HW223813   1.618   6.839   2.601 -0.4385 -0.0645 -0.0166
 7710SOL     OW23814   3.747   3.483   1.452 -0.1761  0.3496 -0.0583
 7710SOL    HW123815   3.787   3.405   1.413 -1.5468 -0.5106  0.1749
 7710SOL    HW223816   3.767   3.477   1.545 -0.3410  0.2177 -0.0292
 7711SOL     OW23817   2.347   5.107   4.431  0.2276 -0.3069 -0.0291
 7711SOL    HW123818   2.298   5.187   4.448  1.6591  0.5757  0.1829
 7711SOL    HW223819   2.422   5.135   4.379  1.8157 -1.1289  1.6664
 7712SOL     OW23820   4.393   5.786   5.911  0.3665 -0.3321 -0.1137
 7712SOL    HW123821   4.445   5.796   5.990  0.9033  0.7874 -0.5826
 7712SOL    HW223822   4.452   5.743   5.848 -0.0802 -1.2832  0.1016
 7713SOL     OW23823   7.420   4.482   0.297  0.0706  0.5672  0.3165
 7713SOL    HW123824   7.449   4.446   0.381 -0.2186 -2.6307 -0.8222
 7713SOL    HW223825   7.328   4.458   0.291 -0.2997  2.0365 -0.3461
 7714SOL     OW23826   2.173   3.328   5.547 -0.1644  0.4653 -0.2707
 7714SOL    HW123827   2.122   3.409   5.549 -2.7745 -1.0648 -0.2441
 7714SOL    HW223828   2.188   3.311   5.454 -1.0598  0.1618 -0.3672
 7715SOL     OW23829   0.670   7.632   4.792  0.5614 -0.7424  0.3096
 7715SOL    HW123830   0.670   7.694   4.719 -2.0848 -1.0955 -0.0881
 7715SOL    HW223831   0.746   7.576   4.776  1.3635  0.6032 -0.8720
 7716SOL     OW23832   0.891   3.316   6.847 -0.2247 -0.1210  0.0108
 7716SOL    HW123833   0.896   3.301   6.941 -2.2757 -0.6807  0.0709
 7716SOL    HW223834   0.911   3.409   6.836  0.9668 -0.2527  0.8690
 7717SOL     OW23835   4.622   1.639   3.030 -0.2978  0.3743 -0.6829
 7717SOL    HW123836   4.693   1.655   3.092 -0.1407 -0.0592 -0.7474
 7717SOL    HW223837   4.565   1.716   3.038  0.4301  0.9585 -0.9839
 7718SOL     OW23838   6.344   6.403   5.960 -0.2082  0.0848 -0.0761
 7718SOL    HW123839   6.396   6.348   6.019 -0.6708  1.2790  1.5069
 7718SOL    HW223840   6.395   6.405   5.879  1.7842  0.4721  1.1135
 7719SOL     OW23841   1.698   5.274   7.358 -0.7602  0.0027 -0.3916
 7719SOL    HW123842   1.737   5.280   7.271 -1.9855 -0.4209 -1.0010
 7719SOL    HW223843   1.656   5.188   7.360 -2.0095  0.5932  0.0447
 7720SOL     OW23844   6.848   6.974   4.775 -0.0966 -0.5991  0.0121
 7720SOL    HW123845   6.834   6.942   4.864  0.8416 -1.4688 -0.1342
 7720SOL    HW223846   6.764   7.012   4.750 -0.6375 -1.1274  0.9506
 7721SOL     OW23847   0.017   6.783   4.967  0.2378  0.2318 -0.1245
 7721SOL    HW123848   0.003   6.726   4.891  0.0606 -0.8838  0.7097
 7721SOL    HW223849   0.109   6.768   4.990  0.0492 -0.1076  0.4064
 7722SOL     OW23850   5.842   6.720   5.072  0.2300 -0.0903  0.0480
 7722SOL    HW123851   5.834   6.697   4.980  0.3909  1.6711 -0.4367
 7722SOL    HW223852   5.763   6.771   5.091  1.1239  1.2307  0.3382
 7723SOL     OW23853   0.119   3.292   6.483  0.2973  0.6255 -0.5394
 7723SOL    HW123854   0.055   3.267   6.418  0.4762 -0.2351 -0.3891
 7723SOL    HW223855   0.131   3.386   6.470 -0.7518  0.7383 -0.7718
 7724SOL     OW23856   4.655   2.653   2.399 -0.7118  0.0059  0.5026
 7724SOL    HW123857   4.662   2.700   2.316 -0.7946 -0.4694  0.2225
 7724SOL    HW223858   4.573   2.683   2.437 -0.5603  0.3983  0.5246
 7725SOL     OW23859   2.358   2.148   1.691  0.2808  0.2645  0.0720
 7725SOL    HW123860   2.358   2.228   1.638  1.5539  0.0710 -0.2551
 7725SOL    HW223861   2.310   2.085   1.638  0.3256  0.4645 -0.2110
 7726SOL     OW23862   7.306   4.111   5.483 -0.7220 -0.0407 -0.5270
 7726SOL    HW123863   7.339   4.145   5.566 -0.7508  1.0320 -0.9244
 7726SOL    HW223864   7.305   4.188   5.425 -0.3801 -0.8291 -1.6127
 7727SOL     OW23865   0.015   5.177   0.074  0.2770  0.8025  0.0518
 7727SOL    HW123866  -0.041   5.113   0.116  0.4068  1.7162  1.7194
 7727SOL    HW223867  -0.036   5.209   0.000 -0.0852 -0.6400 -0.3518
 7728SOL     OW23868   4.585   3.528   2.974  0.1123  0.3033  0.4760
 7728SOL    HW123869   4.640   3.450   2.975  0.5401  0.5832 -0.3521
 7728SOL    HW223870   4.527   3.518   3.049  1.1527 -0.0943  1.2444
 7729SOL     OW23871   6.014   1.320   1.611 -0.5664  0.2825  0.7347
 7729SOL    HW123872   6.078   1.338   1.680  1.0857 -1.4110 -0.2643
 7729SOL    HW223873   6.019   1.225   1.598 -1.0947  0.5028 -1.4323
 7730SOL     OW23874   3.179   1.163   1.689  0.5441 -0.2506 -0.0369
 7730SOL    HW123875   3.121   1.202   1.623 -0.0558 -1.8533 -0.5007
 7730SOL    HW223876   3.129   1.170   1.771 -0.3162 -1.5335 -0.4167
 7731SOL     OW23877   4.056   7.249   3.652 -0.1086 -0.0681  0.0652
 7731SOL    HW123878   4.113   7.293   3.715  0.1254 -0.4574  0.1354
 7731SOL    HW223879   4.110   7.177   3.618 -0.7601 -0.8173  0.5802
 7732SOL     OW23880   6.462   6.749   1.650 -0.7390  0.3952 -0.0565
 7732SOL    HW123881   6.440   6.657   1.634 -0.4195  0.7096 -2.7638
 7732SOL    HW223882   6.556   6.754   1.636 -1.1782  1.6501 -3.4322
 7733SOL     OW23883   4.534   7.470   6.742  0.1592  0.3499  0.2367
 7733SOL    HW123884   4.442   7.450   6.755  0.2630  0.1807  0.7530
 7733SOL    HW223885   4.548   7.551   6.790  0.4416 -0.0215  0.8000
 7734SOL     OW23886   1.902   6.662   4.690 -0.2880  0.8410  0.1065
 7734SOL    HW123887   1.936   6.691   4.775 -0.4279  1.4984 -0.0596
 7734SOL    HW223888   1.941   6.575   4.678 -0.1467  0.7994  0.7722
 7735SOL     OW23889   4.769   6.829   4.364 -0.4179 -0.0441 -0.6927
 7735SOL    HW123890   4.777   6.831   4.460  0.6509  0.7605 -0.7744
 7735SOL    HW223891   4.685   6.872   4.346 -0.1120  0.8083 -0.1533
 7736SOL     OW23892   6.902   5.467   0.354  0.2002  0.1982  0.6163
 7736SOL    HW123893   6.884   5.456   0.260 -0.0539 -0.8064  0.7758
 7736SOL    HW223894   6.896   5.561   0.368 -1.5585  0.2103 -0.0131
 7737SOL     OW23895   7.619   3.091   1.514 -0.0412  0.6268 -0.6409
 7737SOL    HW123896   7.607   3.151   1.440  0.8618 -0.3310 -1.6088
 7737SOL    HW223897   7.654   3.011   1.474 -0.0490 -0.1100  0.7677
 7738SOL     OW23898   5.948   5.437   6.040 -0.9495  0.0087 -0.4373
 7738SOL    HW123899   5.903   5.492   5.975  1.2247  0.1825 -1.9190
 7738SOL    HW223900   6.041   5.457   6.027 -0.2516 -2.2644  0.6253
 7739SOL     OW23901   7.734   0.863   2.173  0.0509  0.7362 -0.4688
 7739SOL    HW123902   7.643   0.835   2.186  0.0414 -0.6958 -3.0229
 7739SOL    HW223903   7.786   0.794   2.214  0.0298  1.5000  0.8956
 7740SOL     OW23904   0.410   6.683   6.086  0.0405  0.3319 -0.0553
 7740SOL    HW123905   0.323   6.720   6.101 -0.6293 -0.8337 -0.7835
 7740SOL    HW223906   0.443   6.730   6.010 -0.7908 -0.4834 -0.9613
 7741SOL     OW23907   3.954   3.579   2.119 -0.4652 -0.2912 -0.5976
 7741SOL    HW123908   3.863   3.610   2.123 -0.9061 -1.6420  0.8880
 7741SOL    HW223909   3.948   3.496   2.071  0.1206 -0.0180 -1.1575
 7742SOL     OW23910   3.906   2.719   7.571  0.2387  0.4315 -0.2100
 7742SOL    HW123911   3.998   2.742   7.584 -0.0501  1.2750  0.3735
 7742SOL    HW223912   3.884   2.758   7.486  0.9043 -1.3323 -1.2463
 7743SOL     OW23913   0.824   4.196   3.272 -0.1538  0.2645 -0.2489
 7743SOL    HW123914   0.899   4.237   3.229  1.6020 -1.6440  0.8428
 7743SOL    HW223915   0.826   4.231   3.362  0.9045 -1.4928  0.4694
 7744SOL     OW23916   4.961   3.448   4.723 -0.4670  0.4372  0.6115
 7744SOL    HW123917   4.882   3.429   4.774  0.9083  0.0831  2.7096
 7744SOL    HW223918   5.009   3.365   4.721 -0.7665  0.2400 -1.9307
 7745SOL     OW23919   0.406   3.323   3.157 -0.0728 -0.9547  0.1908
 7745SOL    HW123920   0.413   3.255   3.224 -0.2537 -1.0999  0.0651
 7745SOL    HW223921   0.335   3.379   3.188  0.6765 -0.2979  0.7523
 7746SOL     OW23922   4.164   1.328   5.885  0.4468  0.2848  0.1937
 7746SOL    HW123923   4.204   1.241   5.889 -0.2400 -0.0865 -0.7935
 7746SOL    HW223924   4.120   1.338   5.970  1.2403  0.0293  0.6448
 7747SOL     OW23925   4.249   2.486   4.829  0.3402 -0.6055  0.2558
 7747SOL    HW123926   4.254   2.574   4.791 -0.2990 -1.0094 -0.8056
 7747SOL    HW223927   4.299   2.493   4.911 -1.3321  1.2777  1.2197
 7748SOL     OW23928   3.718   2.804   4.315  0.7169  0.4364 -0.2347
 7748SOL    HW123929   3.636   2.803   4.365  0.0621  1.9573 -1.2434
 7748SOL    HW223930   3.753   2.715   4.327 -0.2334  0.2484  1.5567
 7749SOL     OW23931   1.930   1.864   6.063  0.4522 -0.4075 -0.2567
 7749SOL    HW123932   1.863   1.799   6.040 -0.8951  1.2186 -1.1183
 7749SOL    HW223933   1.904   1.895   6.150  0.5818 -0.3708 -0.2311
 7750SOL     OW23934   4.412   6.815   4.947  0.4230 -0.0691  0.6835
 7750SOL    HW123935   4.352   6.752   4.989  0.9075  0.3859  2.1103
 7750SOL    HW223936   4.420   6.784   4.857 -0.6046 -1.1297  0.9332
 7751SOL     OW23937   1.751   0.395   4.090  0.0494 -0.4753 -0.1980
 7751SOL    HW123938   1.741   0.308   4.128 -5.7326  0.0389  0.3677
 7751SOL    HW223939   1.716   0.387   4.001 -2.1242  1.4184  0.3983
 7752SOL     OW23940   1.116   4.649   7.538  0.0965 -0.4959 -0.4210
 7752SOL    HW123941   1.099   4.741   7.516  0.4113 -0.0188  1.1879
 7752SOL    HW223942   1.033   4.617   7.573 -0.2567 -1.0999 -1.7429
 7753SOL     OW23943   3.947   2.489   3.338  0.0185 -0.1106  0.5840
 7753SOL    HW123944   3.891   2.565   3.323 -0.2919 -0.6968 -1.6890
 7753SOL    HW223945   4.031   2.513   3.298  0.1916 -0.6411  0.6246
 7754SOL     OW23946   0.875   4.574   5.392 -0.3475  0.3297  0.1687
 7754SOL    HW123947   0.939   4.541   5.328 -1.5278  1.5435 -1.7417
 7754SOL    HW223948   0.819   4.499   5.410 -0.5395  0.1805 -0.9501
 7755SOL     OW23949   6.368   2.890   1.984  0.1786  0.3834 -0.0604
 7755SOL    HW123950   6.395   2.814   1.933 -0.6537 -0.0227  0.0854
 7755SOL    HW223951   6.278   2.871   2.010  0.5339  0.6160  1.4747
 7756SOL     OW23952   3.715   4.868   2.630 -0.2922 -0.0137 -0.1104
 7756SOL    HW123953   3.781   4.937   2.633 -0.5213  0.2127 -0.2025
 7756SOL    HW223954   3.694   4.858   2.537  0.0725 -0.5348 -0.1438
 7757SOL     OW23955   3.764   6.661   0.417  0.0104 -0.2431 -0.5865
 7757SOL    HW123956   3.676   6.629   0.397 -0.8354  1.3336  0.3696
 7757SOL    HW223957   3.822   6.587   0.399 -1.5733 -1.5144 -0.6569
 7758SOL     OW23958   3.210   3.518   2.707  0.3548  0.0700 -0.6944
 7758SOL    HW123959   3.266   3.455   2.753 -0.4939 -0.6030 -0.5534
 7758SOL    HW223960   3.201   3.591   2.769  1.7258  0.5653 -1.0477
 7759SOL     OW23961   2.387   4.496   2.100 -0.7328 -0.0777  0.3920
 7759SOL    HW123962   2.436   4.458   2.172  0.7237 -2.0322 -1.5043
 7759SOL    HW223963   2.450   4.551   2.054 -1.1643 -0.2046 -0.3664
 7760SOL     OW23964   0.580   1.618   0.784  0.1546 -0.1815 -0.2750
 7760SOL    HW123965   0.668   1.585   0.765  0.2312 -0.0956 -0.0674
 7760SOL    HW223966   0.532   1.606   0.702  0.4175 -0.0420 -0.4507
 7761SOL     OW23967   1.616   2.139   0.581 -0.4932 -0.1778 -0.3069
 7761SOL    HW123968   1.670   2.144   0.503 -0.5046 -0.6730 -0.3516
 7761SOL    HW223969   1.665   2.082   0.641  0.6794  2.0587  1.0017
 7762SOL     OW23970   4.793   4.661   3.098 -0.3079 -0.2140 -0.3026
 7762SOL    HW123971   4.856   4.588   3.093  0.3789  0.1361  2.0183
 7762SOL    HW223972   4.808   4.699   3.184 -2.6315  0.9169 -0.3350
 7763SOL     OW23973   1.176   3.897   3.338 -0.5023 -0.2892 -0.0013
 7763SOL    HW123974   1.146   3.987   3.325 -1.4293 -0.7654 -1.3513
 7763SOL    HW223975   1.271   3.903   3.333 -0.5923  0.4712 -1.1212
 7764SOL     OW23976   5.963   7.401   4.634 -0.3607 -0.6023  0.4513
 7764SOL    HW123977   5.952   7.344   4.558  0.5473 -0.8445  0.4963
 7764SOL    HW223978   6.005   7.346   4.700 -0.3274 -0.1401  0.8260
 7765SOL     OW23979   0.453   1.516   4.973  0.0724 -0.1074  0.3255
 7765SOL    HW123980   0.471   1.605   5.003  1.8926  0.1853 -1.4209
 7765SOL    HW223981   0.362   1.518   4.944 -0.7600  0.4080  2.7266
 7766SOL     OW23982   7.551   1.072   2.889  0.1682 -0.0141  0.2382
 7766SOL    HW123983   7.527   1.028   2.971 -0.4883 -0.0711  0.0227
 7766SOL    HW223984   7.481   1.136   2.876  2.0235  2.5027  1.5581
 7767SOL     OW23985   6.069   2.280   3.589 -0.2804 -0.1588 -0.5968
 7767SOL    HW123986   6.114   2.314   3.666  0.5700 -1.0322 -0.6927
 7767SOL    HW223987   5.982   2.256   3.621  0.0609 -0.4920  0.0947
 7768SOL     OW23988   4.423   6.400   2.656  0.2195 -0.3490  0.6472
 7768SOL    HW123989   4.511   6.419   2.624  1.4395 -2.1075  2.7081
 7768SOL    HW223990   4.385   6.344   2.587  0.5722  0.6255 -0.3757
 7769SOL     OW23991   2.603   6.006   4.081  0.3456  0.1004  0.3826
 7769SOL    HW123992   2.560   6.051   4.154  0.0377 -2.5643  1.9995
 7769SOL    HW223993   2.549   5.928   4.065  0.4056  0.5932 -2.7883
 7770SOL     OW23994   1.342   4.392   1.429 -0.2387 -0.4008  0.9422
 7770SOL    HW123995   1.310   4.437   1.507 -0.1433  1.4245 -0.0293
 7770SOL    HW223996   1.311   4.445   1.356  0.2877 -1.6758 -0.2547
 7771SOL     OW23997   1.405   5.835   2.165 -0.0866 -0.0836  0.0686
 7771SOL    HW123998   1.466   5.895   2.123  0.6116  0.2622  1.5001
 7771SOL    HW223999   1.456   5.796   2.237  0.2962 -4.2339 -2.1473
 7772SOL     OW24000   4.028   0.030   4.706 -0.0927 -0.0200  0.3591
 7772SOL    HW124001   4.083   0.093   4.752 -0.4157  0.2690  0.3514
 7772SOL    HW224002   3.957   0.082   4.669  0.9520  0.0136 -1.7737
 7773SOL     OW24003   7.658   6.003   1.631 -0.4678 -0.1209  0.2926
 7773SOL    HW124004   7.638   6.093   1.606 -1.5659 -0.4257  0.0295
 7773SOL    HW224005   7.753   5.995   1.616 -0.4596  0.8109 -0.2472
 7774SOL     OW24006   3.060   3.376   5.384 -0.0624 -0.1612  0.4472
 7774SOL    HW124007   3.060   3.460   5.338 -2.1545 -0.6644 -0.5568
 7774SOL    HW224008   3.136   3.381   5.442  2.0641  0.9575 -2.2106
 7775SOL     OW24009   2.506   2.056   2.928  0.1634 -0.3692 -0.0472
 7775SOL    HW124010   2.487   2.020   2.841  1.6991 -0.8424 -0.2299
 7775SOL    HW224011   2.545   1.983   2.976  2.0646  0.6149  0.0330
 7776SOL     OW24012   2.241   2.083   3.010 -0.0770  0.3554  0.6775
 7776SOL    HW124013   2.251   2.075   3.105  0.5516 -1.2612  0.5114
 7776SOL    HW224014   2.331   2.081   2.976 -0.3481 -0.5391 -0.0219
 7777SOL     OW24015   5.836   3.233   4.985 -0.3925  0.2692  0.4020
 7777SOL    HW124016   5.799   3.239   4.896 -1.9610 -0.1923  0.9882
 7777SOL    HW224017   5.892   3.156   4.983  0.4441  0.8725 -0.4642
 7778SOL     OW24018   6.838   0.160   3.613  0.1762  0.6330 -0.0617
 7778SOL    HW124019   6.876   0.173   3.699  0.9055 -1.0763 -0.0908
 7778SOL    HW224020   6.907   0.116   3.563  0.2544  2.6944 -1.9395
 7779SOL     OW24021   0.381   5.280   4.025 -0.4286  0.5742  1.0143
 7779SOL    HW124022   0.335   5.361   4.003 -0.3378  0.4820  0.4652
 7779SOL    HW224023   0.461   5.282   3.973 -1.5215 -0.9671 -0.8715
 7780SOL     OW24024   6.829   5.679   1.095  0.5374  0.1159 -0.0231
 7780SOL    HW124025   6.905   5.664   1.039  0.2717  0.3534 -0.4500
 7780SOL    HW224026   6.855   5.750   1.153  0.8925 -0.2805  0.3095
 7781SOL     OW24027   0.186   4.923   4.083 -0.1093  0.6807  0.1535
 7781SOL    HW124028   0.213   5.001   4.132 -0.6392  0.5145  0.7288
 7781SOL    HW224029   0.214   4.940   3.993  0.5039  1.1804  0.4273
 7782SOL     OW24030   2.677   3.836   0.737  0.3069 -0.4856  0.5215
 7782SOL    HW124031   2.657   3.774   0.666 -1.8948 -1.1296  1.6162
 7782SOL    HW224032   2.753   3.798   0.781  1.1762 -0.5205 -0.9260
 7783SOL     OW24033   6.108   4.328   2.579  0.4250 -0.1937  0.4402
 7783SOL    HW124034   6.093   4.407   2.630  1.6848  0.0871  0.4038
 7783SOL    HW224035   6.075   4.350   2.491 -1.6910 -0.6627  1.0548
 7784SOL     OW24036   7.221   4.711   0.907  0.1505  0.4373  0.3457
 7784SOL    HW124037   7.226   4.620   0.876  0.6372  0.1994  1.1073
 7784SOL    HW224038   7.196   4.761   0.829  1.5384 -0.1230 -0.5004
 7785SOL     OW24039   5.802   2.094   4.591 -0.2629 -0.1147 -0.5279
 7785SOL    HW124040   5.839   2.171   4.636 -0.3296 -0.6117  0.3943
 7785SOL    HW224041   5.844   2.019   4.634  0.2534 -0.5877 -1.8292
 7786SOL     OW24042   0.909   6.017   6.240 -0.8538  0.0196 -0.1588
 7786SOL    HW124043   0.994   5.997   6.278 -1.3596  2.4300  2.6711
 7786SOL    HW224044   0.922   6.012   6.146  2.2444 -0.2571  0.2068
 7787SOL     OW24045   2.761   1.812   6.361 -0.0064 -0.0029  0.0436
 7787SOL    HW124046   2.702   1.883   6.336 -0.1576 -0.0831  0.1671
 7787SOL    HW224047   2.847   1.840   6.331 -0.2136 -0.1886 -0.7359
 7788SOL     OW24048   0.660   6.138   2.219  0.0308  0.8887 -0.3448
 7788SOL    HW124049   0.680   6.115   2.310 -1.4874  3.5474  0.7473
 7788SOL    HW224050   0.738   6.110   2.170  1.1983  0.0435  1.8568
 7789SOL     OW24051   3.410   2.601   7.716  0.4254 -0.6511 -0.5594
 7789SOL    HW124052   3.441   2.595   7.807 -0.8932 -1.0415 -0.1231
 7789SOL    HW224053   3.346   2.531   7.708 -0.8014  0.5188 -1.2542
 7790SOL     OW24054   2.183   6.196   2.818 -0.0746 -0.2808  0.1797
 7790SOL    HW124055   2.220   6.256   2.883  0.3728  0.4205 -0.7026
 7790SOL    HW224056   2.259   6.161   2.772 -0.4474  1.5890 -2.0281
 7791SOL     OW24057   4.789   2.482   5.241 -0.1421 -0.5497  0.7834
 7791SOL    HW124058   4.827   2.445   5.321 -0.0328  1.2879  1.6362
 7791SOL    HW224059   4.785   2.577   5.258 -1.9862 -0.3207 -0.5942
 7792SOL     OW24060   3.266   0.484   3.432 -0.3095  0.2136 -0.8877
 7792SOL    HW124061   3.298   0.470   3.521  0.6881  0.6617 -1.1541
 7792SOL    HW224062   3.238   0.576   3.431 -0.1519  0.2611 -1.0766
 7793SOL     OW24063   7.580   1.257   3.384 -0.2056  0.3053  0.3695
 7793SOL    HW124064   7.529   1.179   3.407 -0.0629  0.1284  0.1036
 7793SOL    HW224065   7.544   1.284   3.299  0.2846  0.0510  0.0749
 7794SOL     OW24066   0.936   5.566   7.045  0.1106  0.3005 -0.4891
 7794SOL    HW124067   0.976   5.539   6.962  0.5673 -0.2936 -0.0876
 7794SOL    HW224068   1.006   5.557   7.109 -0.9676 -2.0469  0.4803
 7795SOL     OW24069   2.887   0.546   7.034  0.3639  0.5565 -0.7606
 7795SOL    HW124070   2.934   0.488   7.093 -0.4049  1.3717  0.6980
 7795SOL    HW224071   2.922   0.633   7.052 -0.5742  0.9529 -0.7763
 7796SOL     OW24072   2.227   0.807   7.251  0.1430 -0.2985  0.2511
 7796SOL    HW124073   2.152   0.767   7.207  1.2016 -0.2675 -1.6488
 7796SOL    HW224074   2.187   0.864   7.317 -1.4414 -1.9663  0.8188
 7797SOL     OW24075   0.270   1.447   4.156 -0.0819 -0.6739 -0.0015
 7797SOL    HW124076   0.239   1.358   4.168  0.9940 -1.2558 -1.2468
 7797SOL    HW224077   0.307   1.448   4.068 -1.1537  1.3457 -0.4869
 7798SOL     OW24078   3.891   6.679   3.797 -0.1960  0.5500  0.0291
 7798SOL    HW124079   3.825   6.654   3.862  0.1356  1.5864  0.8032
 7798SOL    HW224080   3.867   6.769   3.773 -0.4166  0.1190 -1.4307
 7799SOL     OW24081   4.708   4.747   7.082 -0.0584 -0.3075 -0.1876
 7799SOL    HW124082   4.685   4.770   6.992 -1.2176  0.8556  0.3559
 7799SOL    HW224083   4.650   4.673   7.104  0.7002 -1.0315 -0.6014
 7800SOL     OW24084   0.647   2.582   3.240  0.0426  0.0979 -0.1704
 7800SOL    HW124085   0.645   2.618   3.328 -0.5132 -0.0770 -0.1074
 7800SOL    HW224086   0.601   2.647   3.186  2.3182  1.3036 -0.7647
 7801SOL     OW24087   0.311   0.035   6.750  0.2725  0.3979  0.0914
 7801SOL    HW124088   0.353   0.079   6.676 -1.3696 -1.1263 -1.8421
 7801SOL    HW224089   0.250  -0.027   6.711 -2.3749  1.0795  2.6925
 7802SOL     OW24090   1.255   5.125   5.326  0.6928  0.2846 -0.0132
 7802SOL    HW124091   1.325   5.125   5.261  0.8725 -0.7987  0.1670
 7802SOL    HW224092   1.188   5.066   5.290  0.8468 -0.4239  0.8234
 7803SOL     OW24093   5.015   4.452   5.733 -0.0110 -0.8834  0.3864
 7803SOL    HW124094   4.945   4.391   5.710 -0.9941  0.8098 -1.4048
 7803SOL    HW224095   4.974   4.513   5.795 -0.0548 -0.1205 -0.3665
 7804SOL     OW24096   5.905   0.107   3.281  0.3303 -0.4590  0.2581
 7804SOL    HW124097   5.843   0.037   3.300 -0.4768  0.5763  1.6126
 7804SOL    HW224098   5.890   0.172   3.349  0.2791  1.5620 -1.5649
 7805SOL     OW24099   0.723   4.183   5.079 -0.0853 -0.0234 -0.1953
 7805SOL    HW124100   0.766   4.184   5.164  2.7393 -1.7678 -1.4315
 7805SOL    HW224101   0.652   4.120   5.089 -0.6721  0.8300  1.2045
 7806SOL     OW24102   3.530   7.074   4.987 -0.0924  0.5018  0.1480
 7806SOL    HW124103   3.602   7.131   4.960 -1.0089  1.2137 -0.9105
 7806SOL    HW224104   3.513   7.099   5.078 -0.0235  1.4413 -0.0821
 7807SOL     OW24105   2.889   1.926   2.629 -0.1054 -0.0383 -0.3556
 7807SOL    HW124106   2.941   1.855   2.665 -0.3134 -0.2592 -0.4874
 7807SOL    HW224107   2.854   1.972   2.706 -0.4179 -0.4102 -0.2711
 7808SOL     OW24108   6.931   6.640   2.115 -0.2546 -0.2086  0.4129
 7808SOL    HW124109   6.915   6.567   2.175 -0.0595 -2.8464 -2.4514
 7808SOL    HW224110   7.026   6.640   2.103 -0.3342 -0.0955 -0.2646
 7809SOL     OW24111   6.467   3.230   2.465  0.3790  0.4359 -0.4897
 7809SOL    HW124112   6.380   3.269   2.460  0.7084  1.0776 -1.6245
 7809SOL    HW224113   6.481   3.191   2.378  1.2401  0.4010 -0.3458
 7810SOL     OW24114   7.353   6.811   7.425  0.1672  0.4402 -0.5023
 7810SOL    HW124115   7.428   6.851   7.381 -0.2229  0.4949 -1.1318
 7810SOL    HW224116   7.374   6.816   7.518 -0.2841  3.0378 -0.4658
 7811SOL     OW24117   1.234   7.025   1.884  0.2539 -0.0389 -0.4771
 7811SOL    HW124118   1.328   7.029   1.868  0.0504 -0.2085 -1.8369
 7811SOL    HW224119   1.223   6.952   1.945  1.0695  0.5439  0.3980
 7812SOL     OW24120   0.808   7.372   5.377 -0.4924 -1.3051  0.0402
 7812SOL    HW124121   0.725   7.349   5.418  0.1615 -0.8555  1.6885
 7812SOL    HW224122   0.857   7.417   5.446  1.3201 -1.9978 -0.7351
 7813SOL     OW24123   3.792   6.970   6.823 -0.2198  0.2288  0.1261
 7813SOL    HW124124   3.884   6.993   6.809 -0.3467  0.9956  0.5191
 7813SOL    HW224125   3.784   6.960   6.918  0.0646 -2.4763 -0.0569
 7814SOL     OW24126   5.930   3.219   1.503  0.2506 -0.3651  0.2259
 7814SOL    HW124127   6.002   3.233   1.565 -0.5223  0.3667  0.9819
 7814SOL    HW224128   5.944   3.130   1.471  2.5578  0.3846 -1.0608
 7815SOL     OW24129   1.683   5.299   4.396  0.1277 -0.1418 -0.5488
 7815SOL    HW124130   1.778   5.290   4.408 -0.1071 -2.8181 -0.2971
 7815SOL    HW224131   1.666   5.260   4.311 -0.9619 -1.4527  0.2372
 7816SOL     OW24132   3.833   0.450   2.038  0.0350  0.1962  0.4477
 7816SOL    HW124133   3.787   0.492   1.965  0.4817  2.0412  1.1698
 7816SOL    HW224134   3.870   0.370   2.000 -1.1221  0.2626 -0.9148
 7817SOL     OW24135   5.617   0.483   7.211  0.2006 -0.0459 -0.0207
 7817SOL    HW124136   5.641   0.426   7.138  1.1549  0.6904 -0.3059
 7817SOL    HW224137   5.535   0.446   7.244 -0.2212 -0.4369 -1.4174
 7818SOL     OW24138   7.379   6.148   2.264 -0.3149 -0.3446  0.2807
 7818SOL    HW124139   7.288   6.168   2.288 -0.4672 -0.8288  0.1235
 7818SOL    HW224140   7.399   6.069   2.313 -0.1508 -0.5332 -0.0915
 7819SOL     OW24141   7.629   5.358   0.582 -0.1126  0.8170  0.7516
 7819SOL    HW124142   7.571   5.421   0.625  0.1308  0.7254  1.2320
 7819SOL    HW224143   7.652   5.398   0.499  0.3028  1.5200  1.1887
 7820SOL     OW24144   3.611   6.010   0.247 -0.3942  0.3270  0.1306
 7820SOL    HW124145   3.641   6.019   0.337  0.7455  0.3391 -0.2287
 7820SOL    HW224146   3.684   5.967   0.202 -0.8934  0.4398 -0.8048
 7821SOL     OW24147   6.415   0.706   5.116  0.0393 -0.6210  0.6391
 7821SOL    HW124148   6.493   0.735   5.067 -0.3867 -1.1814 -0.4047
 7821SOL    HW224149   6.351   0.685   5.048 -1.2272  0.3458  1.4995
 7822SOL     OW24150   0.584   0.496   6.001 -0.0319  0.2159  0.1795
 7822SOL    HW124151   0.596   0.417   5.949 -0.7932  0.9294 -1.1300
 7822SOL    HW224152   0.663   0.547   5.985 -1.6094  1.9370 -3.0984
 7823SOL     OW24153   3.629   6.321   4.315  0.4958 -0.4693 -0.1797
 7823SOL    HW124154   3.684   6.321   4.394 -0.0552  1.4024  0.2472
 7823SOL    HW224155   3.692   6.329   4.243  0.8617  0.3320  0.2211
 7824SOL     OW24156   0.704   3.867   5.501 -0.3240  0.0362 -0.5794
 7824SOL    HW124157   0.770   3.810   5.541 -0.3382 -1.1150 -2.1043
 7824SOL    HW224158   0.630   3.862   5.560  0.1451 -0.5086 -0.0170
 7825SOL     OW24159   5.240   2.262   4.685 -0.1799  0.2856  0.0275
 7825SOL    HW124160   5.283   2.209   4.752  2.1058  2.7669  0.7170
 7825SOL    HW224161   5.168   2.304   4.731  1.1364  1.6630  0.9354
 7826SOL     OW24162   2.806   6.452   1.498 -0.4643 -0.4737  0.3129
 7826SOL    HW124163   2.782   6.544   1.509  0.8582 -0.0214 -0.3533
 7826SOL    HW224164   2.729   6.412   1.459 -1.0611  0.3532  0.6196
 7827SOL     OW24165   7.714   2.105   0.884 -0.3962  0.0844  1.2985
 7827SOL    HW124166   7.725   2.010   0.884 -1.0653 -0.0061  2.4043
 7827SOL    HW224167   7.698   2.128   0.975  0.1110  1.3146  1.1031
 7828SOL     OW24168   4.562   1.593   6.810  0.2035  0.2603  0.4676
 7828SOL    HW124169   4.651   1.619   6.783 -0.0675 -0.6201 -1.4431
 7828SOL    HW224170   4.515   1.581   6.728 -1.0580 -1.4531  1.3898
 7829SOL     OW24171   4.845   4.751   6.452 -0.3005  0.2031  0.2777
 7829SOL    HW124172   4.912   4.685   6.439  0.8908  1.6045 -1.2291
 7829SOL    HW224173   4.767   4.716   6.408  0.2843 -0.2326 -0.4326
 7830SOL     OW24174   6.256   4.027   3.256 -0.0183  0.2047 -0.0803
 7830SOL    HW124175   6.292   4.115   3.266 -0.7497  0.4248  0.7508
 7830SOL    HW224176   6.326   3.969   3.284 -0.5034  0.6604  2.3312
 7831SOL     OW24177   5.257   4.368   6.200 -0.6137  0.3189  0.0895
 7831SOL    HW124178   5.186   4.355   6.138 -0.1397 -3.0442  0.0658
 7831SOL    HW224179   5.235   4.310   6.274  1.5322  0.0035  0.5422
 7832SOL     OW24180   1.382   3.905   0.917 -0.3566 -0.3046  0.3575
 7832SOL    HW124181   1.449   3.922   0.984  2.5724 -0.8481 -2.2100
 7832SOL    HW224182   1.363   3.991   0.880 -2.4746  0.0905  2.1963
 7833SOL     OW24183   4.923   7.347   2.564 -0.5729  0.1312 -0.0822
 7833SOL    HW124184   4.967   7.423   2.525 -1.1338  0.1064 -0.7829
 7833SOL    HW224185   4.918   7.368   2.658  0.5431  0.3178 -0.0499
 7834SOL     OW24186   2.718   7.376   7.043  0.5300  0.0481  0.4619
 7834SOL    HW124187   2.708   7.301   6.984  0.5101  1.2919 -1.1844
 7834SOL    HW224188   2.812   7.389   7.052  0.5299  0.1998  0.2464
 7835SOL     OW24189   7.644   6.239   2.494 -0.0761 -0.4948  0.9214
 7835SOL    HW124190   7.608   6.177   2.431  0.5948  0.2898 -0.2905
 7835SOL    HW224191   7.569   6.269   2.545 -1.4718  1.9775 -2.2751
 7836SOL     OW24192   2.314   2.721   0.806 -0.4933  0.4586  0.4573
 7836SOL    HW124193   2.337   2.708   0.715 -0.1648  0.5640  0.5240
 7836SOL    HW224194   2.253   2.650   0.826 -1.4060  1.0577 -0.1440
 7837SOL     OW24195   4.485   4.554   5.054  0.2207  0.3007  0.7168
 7837SOL    HW124196   4.508   4.464   5.029 -0.1592  0.0927  1.1026
 7837SOL    HW224197   4.545   4.609   5.002 -0.1078 -0.1358 -0.1471
 7838SOL     OW24198   5.928   6.219   6.709 -0.5135  0.1973 -0.2913
 7838SOL    HW124199   5.927   6.267   6.626  0.0898  1.8697  0.6231
 7838SOL    HW224200   5.861   6.262   6.762 -0.3996 -0.3928  0.3430
 7839SOL     OW24201   6.214   4.765   3.290 -0.5789 -0.3725 -0.2175
 7839SOL    HW124202   6.235   4.815   3.369 -0.4987 -1.7036  0.6510
 7839SOL    HW224203   6.225   4.673   3.317 -2.1008 -0.9154 -1.3254
 7840SOL     OW24204   3.062   3.113   6.865  0.4128  0.0275  0.9332
 7840SOL    HW124205   3.053   3.164   6.784 -0.2448  1.1583  1.6813
 7840SOL    HW224206   3.156   3.102   6.875  0.4909 -2.6831 -1.4670
 7841SOL     OW24207   5.528   7.452   1.072  0.2112  0.1113  0.3277
 7841SOL    HW124208   5.557   7.364   1.050  0.5922  0.2592  0.2273
 7841SOL    HW224209   5.546   7.504   0.994  0.5970  0.4133  0.6065
 7842SOL     OW24210   1.925   4.555   6.651 -0.2884 -0.0106  0.0816
 7842SOL    HW124211   1.984   4.528   6.721 -0.4924  2.3448  1.2533
 7842SOL    HW224212   1.839   4.562   6.694 -0.5497  0.8188 -0.5539
 7843SOL     OW24213   0.344   2.851   5.637 -0.2148  0.1336  0.1556
 7843SOL    HW124214   0.269   2.818   5.587 -0.0817 -1.1026  0.7215
 7843SOL    HW224215   0.343   2.799   5.717  1.1934  0.1798  0.2220
 7844SOL     OW24216   3.821   5.242   6.272 -0.0025 -0.5580 -0.0015
 7844SOL    HW124217   3.904   5.289   6.279  0.0489 -0.7877  1.0052
 7844SOL    HW224218   3.828   5.192   6.191  0.4888  0.1021 -0.3720
 7845SOL     OW24219   3.465   5.785   4.497  0.1573 -0.7555 -0.2829
 7845SOL    HW124220   3.480   5.694   4.469 -0.3342 -1.2566  1.0188
 7845SOL    HW224221   3.380   5.808   4.459 -0.9113 -1.7208  1.3918
 7846SOL     OW24222   3.941   2.536   2.934  0.1763 -0.0848 -0.1305
 7846SOL    HW124223   3.994   2.616   2.932 -0.9835  0.7531 -3.0204
 7846SOL    HW224224   4.005   2.465   2.923  0.9129  0.8977 -3.6294
 7847SOL     OW24225   2.356   3.274   4.156 -0.3679  0.9577  0.0045
 7847SOL    HW124226   2.289   3.257   4.222  0.5830 -0.5081  0.6397
 7847SOL    HW224227   2.366   3.370   4.157 -0.7662  1.0092  1.6075
 7848SOL     OW24228   4.647   1.760   5.440  0.2761  0.0629  0.1324
 7848SOL    HW124229   4.658   1.838   5.386 -0.5665 -0.0567 -0.2389
 7848SOL    HW224230   4.607   1.792   5.521  1.5649  0.2460  0.7095
 7849SOL     OW24231   6.253   6.975   2.403 -0.6972 -0.4025 -0.1047
 7849SOL    HW124232   6.301   7.054   2.380  1.1432 -1.8691 -1.6906
 7849SOL    HW224233   6.203   6.999   2.481  0.6345  1.9844  0.1158
 7850SOL     OW24234   3.322   7.654   4.530 -0.2747  0.3396  0.1828
 7850SOL    HW124235   3.269   7.723   4.568  0.0783 -0.2721  1.8550
 7850SOL    HW224236   3.307   7.662   4.435 -3.0510  0.4058  0.5399
 7851SOL     OW24237   4.882   4.730   5.267 -0.5470  0.3326 -0.1004
 7851SOL    HW124238   4.967   4.684   5.260  0.7227  2.3469  1.1323
 7851SOL    HW224239   4.874   4.777   5.184  0.4984  1.5919  0.4741
 7852SOL     OW24240   6.070   0.983   3.324  0.2745 -0.5121  0.1770
 7852SOL    HW124241   6.136   1.050   3.304 -1.7679  2.9617  3.5628
 7852SOL    HW224242   5.987   1.022   3.296 -0.8533 -2.6235  0.3505
 7853SOL     OW24243   2.481   1.372   7.010  0.2247  0.1276  0.3044
 7853SOL    HW124244   2.546   1.442   7.017 -1.3911  1.7106  0.2957
 7853SOL    HW224245   2.517   1.300   7.062  0.8322  1.8659  2.4397
 7854SOL     OW24246   5.033   4.512   7.629 -0.6078  0.2039  0.2338
 7854SOL    HW124247   5.021   4.481   7.539 -3.1374  1.7920 -0.0667
 7854SOL    HW224248   5.100   4.454   7.665  0.3412 -0.6343 -2.5739
 7855SOL     OW24249   4.682   1.893   1.004  0.0557 -0.4933  0.4328
 7855SOL    HW124250   4.606   1.909   0.948 -0.1944 -0.0400  0.8952
 7855SOL    HW224251   4.718   1.810   0.972 -0.4981 -0.5992  0.0635
 7856SOL     OW24252   5.885   3.894   5.196  0.1003 -0.2173 -0.5076
 7856SOL    HW124253   5.827   3.906   5.272 -0.3990  1.3564 -1.1066
 7856SOL    HW224254   5.968   3.932   5.223  0.4685 -1.2395 -0.1451
 7857SOL     OW24255   0.761   2.488   5.626  0.1370 -0.4102 -0.2434
 7857SOL    HW124256   0.781   2.579   5.648  3.1983 -0.7322 -1.2093
 7857SOL    HW224257   0.739   2.491   5.532 -0.5047 -0.5993 -0.1061
 7858SOL     OW24258   5.582   4.913   1.660  0.6049  0.1215 -0.3262
 7858SOL    HW124259   5.665   4.885   1.697  0.9997  0.0265 -1.2490
 7858SOL    HW224260   5.551   4.837   1.610 -2.1264 -1.4547  3.2605
 7859SOL     OW24261   5.496   4.202   6.267 -0.4903  0.0184 -0.2916
 7859SOL    HW124262   5.530   4.252   6.341 -0.7456 -2.1628  1.4069
 7859SOL    HW224263   5.408   4.236   6.253 -0.2294  0.8437  0.0121
 7860SOL     OW24264   1.064   5.349   6.603  0.2007  0.4395  0.7131
 7860SOL    HW124265   1.119   5.417   6.641  0.1350 -0.0189  1.6361
 7860SOL    HW224266   0.991   5.340   6.664  0.4679 -0.8120  0.8743
 7861SOL     OW24267   7.686   3.514   6.251 -0.2747  0.4167 -0.1522
 7861SOL    HW124268   7.759   3.557   6.207  1.3858 -0.7196  1.3292
 7861SOL    HW224269   7.709   3.421   6.250 -0.3806  0.2668  2.5204
 7862SOL     OW24270   6.707   3.509   7.164 -0.5834  0.8392 -0.0601
 7862SOL    HW124271   6.655   3.428   7.165  1.1100 -0.2990 -0.3499
 7862SOL    HW224272   6.688   3.548   7.079 -0.5146  0.1185 -0.4135
 7863SOL     OW24273   2.712   4.417   4.568 -0.6946  0.2114  0.2631
 7863SOL    HW124274   2.798   4.400   4.608 -0.6877  0.6883  0.4691
 7863SOL    HW224275   2.714   4.370   4.485  0.0500  0.7923 -0.0666
 7864SOL     OW24276   3.459   2.559   4.870  0.1638 -0.4125 -0.5181
 7864SOL    HW124277   3.546   2.580   4.836  1.9430 -1.3215  3.0262
 7864SOL    HW224278   3.437   2.632   4.926 -1.1725 -0.4556 -0.9490
 7865SOL     OW24279   4.370   7.605   0.508 -0.3084  0.3522 -0.3675
 7865SOL    HW124280   4.300   7.669   0.521 -2.2447 -1.3778 -1.7355
 7865SOL    HW224281   4.369   7.552   0.588  0.5430  1.2643  0.2797
 7866SOL     OW24282   6.243   3.813   5.793 -0.2672  0.4600  0.6815
 7866SOL    HW124283   6.149   3.802   5.804 -0.2438 -0.5571  0.0291
 7866SOL    HW224284   6.282   3.780   5.874 -0.3612 -1.6871 -0.0929
 7867SOL     OW24285   0.953   7.045   4.262  0.4416  0.3292  0.2796
 7867SOL    HW124286   0.979   7.020   4.350  0.0282 -0.9323  0.0678
 7867SOL    HW224287   0.916   6.965   4.224  1.5740  0.5317 -1.3949
 7868SOL     OW24288   6.722   6.753   3.104 -0.4438  0.0466 -0.4269
 7868SOL    HW124289   6.766   6.674   3.071 -0.9839 -0.4793  0.0958
 7868SOL    HW224290   6.775   6.826   3.070 -0.1042 -0.5284 -1.1547
 7869SOL     OW24291   6.635   7.756   5.826 -0.3478  0.5037 -0.2625
 7869SOL    HW124292   6.560   7.701   5.848 -0.8596  2.1787  2.6264
 7869SOL    HW224293   6.602   7.845   5.830  1.4869  1.2398 -0.3399
 7870SOL     OW24294   6.198   0.153   7.019 -0.6590 -0.0234  0.1049
 7870SOL    HW124295   6.265   0.209   7.059 -0.9177  0.7650 -0.5366
 7870SOL    HW224296   6.118   0.173   7.067 -0.3676 -1.2760  1.1514
 7871SOL     OW24297   0.877   7.312   2.410  0.2896  0.4394 -0.2833
 7871SOL    HW124298   0.862   7.271   2.495 -1.1114 -0.1400 -0.7816
 7871SOL    HW224299   0.944   7.258   2.368  1.0250  0.7590  0.4431
 7872SOL     OW24300   1.084   0.696   3.528 -0.2614  0.0142 -0.1342
 7872SOL    HW124301   1.177   0.705   3.504 -0.3048 -1.2901 -0.9116
 7872SOL    HW224302   1.086   0.661   3.617  0.0107 -0.6075 -0.3787
 7873SOL     OW24303   2.358   4.605   2.453 -0.3754  0.3368  0.3444
 7873SOL    HW124304   2.422   4.660   2.408 -1.2716  1.5379  0.4664
 7873SOL    HW224305   2.357   4.639   2.542 -1.7584  0.9004  0.1361
 7874SOL     OW24306   2.192   2.446   4.560  0.3526 -0.1697  0.6667
 7874SOL    HW124307   2.177   2.369   4.505  2.1946 -0.1516  0.0546
 7874SOL    HW224308   2.114   2.500   4.547  0.1122 -0.8202 -0.8278
 7875SOL     OW24309   4.518   4.810   4.062  0.3553 -0.3111  0.0718
 7875SOL    HW124310   4.554   4.774   4.143 -1.3640 -0.4115  0.8316
 7875SOL    HW224311   4.484   4.735   4.015 -0.0287 -0.0805 -0.0215
 7876SOL     OW24312   4.041   3.862   5.565 -0.6861 -0.1689  0.4585
 7876SOL    HW124313   4.053   3.774   5.529  1.8486  0.9327 -1.8069
 7876SOL    HW224314   3.978   3.904   5.506  0.3822  0.4000 -0.3092
 7877SOL     OW24315   1.907   5.097   7.589 -0.5356  0.5315 -0.2803
 7877SOL    HW124316   1.917   5.004   7.608 -1.4376  0.4882  0.0300
 7877SOL    HW224317   1.986   5.120   7.540  1.2189  0.3322  2.2552
 7878SOL     OW24318   5.007   0.312   6.301  0.2707 -0.8156  0.2708
 7878SOL    HW124319   4.984   0.367   6.376  0.2831 -2.2413  1.3637
 7878SOL    HW224320   5.044   0.373   6.237 -0.8123  0.6056  0.9470
 7879SOL     OW24321   2.552   3.620   0.260 -0.4874 -0.5475  1.0696
 7879SOL    HW124322   2.572   3.595   0.170 -1.5812 -1.0539  0.9432
 7879SOL    HW224323   2.545   3.715   0.257  3.8555 -0.0461  1.5809
 7880SOL     OW24324   4.521   7.324   6.102 -0.0288 -0.0382  0.1930
 7880SOL    HW124325   4.446   7.286   6.056 -0.4050  0.0868  0.6942
 7880SOL    HW224326   4.585   7.342   6.033 -0.6980  0.4153 -0.3172
 7881SOL     OW24327   4.370   7.059   2.734 -0.3119  0.7909 -0.7062
 7881SOL    HW124328   4.318   7.116   2.790  0.1992 -0.1563  0.8104
 7881SOL    HW224329   4.308   7.024   2.670 -1.2708  0.6790  0.2584
 7882SOL     OW24330   3.059   1.589   0.273  0.5346  0.3002  0.2931
 7882SOL    HW124331   3.065   1.494   0.263 -2.7026  0.0722 -0.6927
 7882SOL    HW224332   3.002   1.602   0.349 -0.1601  1.3928 -0.3804
 7883SOL     OW24333   2.232   3.924   4.015  0.4026 -0.3573  0.1843
 7883SOL    HW124334   2.213   3.966   4.098  0.4063  2.2511 -1.0252
 7883SOL    HW224335   2.189   3.838   4.020  0.1421 -0.1430  2.6879
 7884SOL     OW24336   3.709   1.213   7.504  0.0430  0.1039  0.3573
 7884SOL    HW124337   3.685   1.201   7.412  0.6365  0.9174  0.0870
 7884SOL    HW224338   3.646   1.158   7.552  1.9963 -3.3369 -0.6816
 7885SOL     OW24339   0.252   4.373   3.810  0.4583  0.4194 -0.0779
 7885SOL    HW124340   0.248   4.419   3.726 -1.8881 -2.2549 -1.6272
 7885SOL    HW224341   0.308   4.297   3.793 -0.3107 -0.3246  0.5935
 7886SOL     OW24342   2.257   6.534   1.604 -0.4087 -0.6337  0.5020
 7886SOL    HW124343   2.282   6.574   1.521 -0.5924 -0.6419  0.4420
 7886SOL    HW224344   2.298   6.590   1.670 -1.5065  0.2795  0.4492
 7887SOL     OW24345   1.378   2.696   3.574 -0.6677 -0.0488 -0.6295
 7887SOL    HW124346   1.470   2.680   3.557 -0.2778  0.7605  0.5939
 7887SOL    HW224347   1.342   2.724   3.490  0.7794  2.1309 -0.5704
 7888SOL     OW24348   3.639   7.447   7.616  0.0613  0.2294  0.2175
 7888SOL    HW124349   3.594   7.436   7.533 -0.3702  1.1328  0.3144
 7888SOL    HW224350   3.700   7.373   7.621  0.8594  0.7324 -1.3876
 7889SOL     OW24351   5.961   6.651   6.446  0.2698 -0.3060 -0.1363
 7889SOL    HW124352   5.915   6.644   6.362 -0.6181  0.3248  0.2826
 7889SOL    HW224353   6.019   6.726   6.436  0.9425 -0.8707 -0.5368
 7890SOL     OW24354   7.637   3.236   3.363 -0.0552  0.3209  0.2720
 7890SOL    HW124355   7.570   3.223   3.430 -1.5079 -0.9802 -1.3177
 7890SOL    HW224356   7.628   3.328   3.338 -1.0725  0.2343  0.2858
 7891SOL     OW24357   4.868   2.680   0.859 -0.5600 -0.2415  0.1739
 7891SOL    HW124358   4.934   2.633   0.911  1.2237  1.2070 -0.6606
 7891SOL    HW224359   4.883   2.772   0.880  0.1002  0.4048 -2.6455
 7892SOL     OW24360   2.166   5.399   4.825 -0.0607 -0.4086 -0.0817
 7892SOL    HW124361   2.142   5.491   4.816  0.4710 -0.1929  0.5959
 7892SOL    HW224362   2.117   5.355   4.756  0.4677  0.5147 -1.0778
 7893SOL     OW24363   2.791   1.180   3.016 -0.1147 -0.1952 -0.3016
 7893SOL    HW124364   2.743   1.172   2.934 -0.1605  2.7246 -0.6813
 7893SOL    HW224365   2.739   1.242   3.068  1.1219 -0.1671  0.9760
 7894SOL     OW24366   1.352   6.627   5.969 -0.0064  0.0784  0.0671
 7894SOL    HW124367   1.332   6.718   5.992  1.4330  0.5117 -0.2947
 7894SOL    HW224368   1.370   6.584   6.052 -1.5582 -0.1326  0.3290
 7895SOL     OW24369   1.203   6.186   7.425 -0.2390 -0.5514 -0.6296
 7895SOL    HW124370   1.224   6.251   7.492  2.1254 -0.8106 -1.0218
 7895SOL    HW224371   1.151   6.234   7.361  1.5921  1.0686 -0.9978
 7896SOL     OW24372   6.173   3.302   2.503 -0.7858  0.4729  0.5050
 7896SOL    HW124373   6.143   3.363   2.570  1.0154  3.0930 -0.9225
 7896SOL    HW224374   6.126   3.328   2.424 -0.6782 -0.6457  0.0486
 7897SOL     OW24375   1.685   5.592   1.599 -0.0708  0.0306 -0.5913
 7897SOL    HW124376   1.624   5.661   1.625  0.1218 -0.8058  2.3800
 7897SOL    HW224377   1.629   5.519   1.572 -0.3922 -0.1025  0.3890
 7898SOL     OW24378   2.161   6.980   7.554 -0.4009  0.1564  0.2289
 7898SOL    HW124379   2.210   7.047   7.506 -1.3132  0.7888  0.1582
 7898SOL    HW224380   2.071   7.013   7.558 -0.8740 -1.0546  0.2180
 7899SOL     OW24381   3.739   1.854   2.042 -0.1665  0.2235 -0.7784
 7899SOL    HW124382   3.672   1.835   1.977 -1.0003 -0.7525  0.3324
 7899SOL    HW224383   3.725   1.946   2.066  0.1159  0.5736 -1.9077
 7900SOL     OW24384   1.901   0.970   1.522 -0.2674  0.3112 -0.2171
 7900SOL    HW124385   1.973   1.032   1.533 -0.1892 -0.1206  2.6512
 7900SOL    HW224386   1.937   0.900   1.468  0.7711  1.1182 -0.6016
 7901SOL     OW24387   6.151   1.388   6.926 -0.0311  0.3570  1.0279
 7901SOL    HW124388   6.196   1.425   7.002  0.1769  1.0282  0.5823
 7901SOL    HW224389   6.216   1.333   6.884 -0.6689 -1.5137  2.3357
 7902SOL     OW24390   4.570   4.962   2.501 -0.4255 -0.1130 -0.2018
 7902SOL    HW124391   4.612   4.949   2.416 -0.2306 -1.2456  0.0519
 7902SOL    HW224392   4.612   4.898   2.559 -0.4913  0.6946  0.7781
 7903SOL     OW24393   4.359   7.772   5.043  0.5965 -0.1301  0.2667
 7903SOL    HW124394   4.452   7.778   5.024  0.5667  1.2300  0.4929
 7903SOL    HW224395   4.354   7.746   5.135  0.7208 -4.5551 -0.7258
 7904SOL     OW24396   3.479   6.346   6.268  0.6633 -0.0547 -0.2981
 7904SOL    HW124397   3.415   6.282   6.298 -0.4585  1.5863  0.9994
 7904SOL    HW224398   3.528   6.301   6.199 -1.5745 -1.5302 -1.0272
 7905SOL     OW24399   2.355   7.043   3.449  0.3815  0.1294 -0.1904
 7905SOL    HW124400   2.271   7.089   3.446 -0.0597 -0.6624 -0.1971
 7905SOL    HW224401   2.342   6.965   3.395  0.3634 -1.2234  1.6941
 7906SOL     OW24402   0.645   2.295   7.079 -0.2690 -0.0191 -0.3912
 7906SOL    HW124403   0.676   2.208   7.104  0.0044  0.0633 -0.4492
 7906SOL    HW224404   0.701   2.356   7.127 -1.8671  0.1205  1.3983
 7907SOL     OW24405   6.457   1.482   4.867 -0.4132  0.4829 -0.0920
 7907SOL    HW124406   6.399   1.447   4.935 -0.4183 -0.9745 -0.8149
 7907SOL    HW224407   6.545   1.471   4.903 -0.4710  0.8626  0.1785
 7908SOL     OW24408   5.250   0.689   6.870 -0.0393 -0.3216  0.3790
 7908SOL    HW124409   5.239   0.784   6.874 -2.3354 -0.5361  0.1220
 7908SOL    HW224410   5.309   0.669   6.943  1.0405  1.3476  0.0136
 7909SOL     OW24411   0.117   7.453   5.109  0.6662 -0.2735 -0.3023
 7909SOL    HW124412   0.097   7.515   5.039 -0.7390 -0.3119  0.0501
 7909SOL    HW224413   0.035   7.442   5.156  0.9207 -2.2599 -0.2414
 7910SOL     OW24414   3.727   0.648   3.936 -0.3142  0.7110  0.2206
 7910SOL    HW124415   3.789   0.590   3.982 -0.2822 -0.4272 -1.1733
 7910SOL    HW224416   3.643   0.604   3.945 -1.0192  2.3070  2.1935
 7911SOL     OW24417   3.243   2.953   5.774 -0.0609 -0.1185  0.0988
 7911SOL    HW124418   3.311   2.925   5.835 -0.2975  0.1689  0.4993
 7911SOL    HW224419   3.173   2.889   5.785  0.2035 -0.5069 -0.4305
 7912SOL     OW24420   3.073   5.546   0.544 -0.0432  0.4507 -0.6418
 7912SOL    HW124421   3.080   5.583   0.456 -0.2215  0.9157 -0.4679
 7912SOL    HW224422   3.014   5.471   0.534  0.4858  0.0834 -1.0383
 7913SOL     OW24423   3.362   4.911   0.183  0.3477 -0.0234 -0.7431
 7913SOL    HW124424   3.359   4.995   0.138 -0.4628  0.0399 -0.5962
 7913SOL    HW224425   3.420   4.925   0.258 -0.5024  0.6793 -0.1993
 7914SOL     OW24426   3.039   3.490   5.693  0.5114  0.2474  0.3935
 7914SOL    HW124427   3.125   3.464   5.661  0.9038 -0.4868  1.9759
 7914SOL    HW224428   3.019   3.429   5.763 -1.2836  0.4473  0.1228
 7915SOL     OW24429   2.525   4.819   5.285 -0.5468 -0.0587 -0.2822
 7915SOL    HW124430   2.583   4.860   5.349  0.0253 -1.6957  0.3013
 7915SOL    HW224431   2.519   4.728   5.313 -0.4462 -0.7755 -2.4381
 7916SOL     OW24432   6.117   3.736   2.583 -0.0590 -0.2080  0.2294
 7916SOL    HW124433   6.154   3.668   2.640  0.8098 -0.7018 -0.8740
 7916SOL    HW224434   6.023   3.731   2.597 -0.0304 -1.7840  0.0582
 7917SOL     OW24435   1.341   6.156   6.976  0.5971  0.1711  0.4848
 7917SOL    HW124436   1.319   6.249   6.977  0.4705  0.1536 -0.1216
 7917SOL    HW224437   1.344   6.131   7.068 -3.0518 -0.0858  0.6659
 7918SOL     OW24438   1.023   7.508   6.592 -0.0595 -0.0242 -0.3572
 7918SOL    HW124439   0.933   7.491   6.564 -0.0374  0.7246 -0.9175
 7918SOL    HW224440   1.047   7.431   6.643 -0.7141 -0.6381 -0.9397
 7919SOL     OW24441   7.022   5.983   3.686  0.1992  0.4482 -0.5629
 7919SOL    HW124442   7.005   6.075   3.709 -0.3292  0.5737 -1.4172
 7919SOL    HW224443   7.053   5.943   3.768  1.3012  1.5901 -0.3874
 7920SOL     OW24444   7.290   3.520   3.883 -0.2207  0.2591 -0.4539
 7920SOL    HW124445   7.303   3.613   3.899  1.1660  0.1817 -1.0279
 7920SOL    HW224446   7.361   3.477   3.930  0.6260 -0.3191 -2.1784
 7921SOL     OW24447   1.325   7.311   6.012  0.2460  0.5578 -0.2040
 7921SOL    HW124448   1.405   7.363   5.998  1.2067 -0.2538  1.9034
 7921SOL    HW224449   1.310   7.315   6.106 -0.8812 -1.2224 -0.2687
 7922SOL     OW24450   1.424   5.482   3.426  0.2060  0.1614 -0.1480
 7922SOL    HW124451   1.374   5.560   3.446  0.2047  0.3990 -1.0234
 7922SOL    HW224452   1.438   5.486   3.331  0.0360 -0.9976 -0.2421
 7923SOL     OW24453   6.255   2.626   6.056  0.2657  0.0074 -0.6848
 7923SOL    HW124454   6.340   2.635   6.099  0.7955  1.0869 -1.9259
 7923SOL    HW224455   6.241   2.531   6.051  1.4823 -0.1851 -0.6478
 7924SOL     OW24456   7.298   4.179   3.515  0.2868  0.4822 -0.1849
 7924SOL    HW124457   7.265   4.103   3.563  2.0056 -0.0377  0.2664
 7924SOL    HW224458   7.281   4.159   3.423 -0.7002  0.2848  0.0364
 7925SOL     OW24459   6.908   7.001   0.549 -0.4596  0.0321 -0.2961
 7925SOL    HW124460   6.876   6.942   0.481  0.8190 -0.4899 -0.4888
 7925SOL    HW224461   6.885   6.957   0.631  0.1615 -0.5719 -0.4362
 7926SOL     OW24462   0.252   7.248   5.245 -0.1834  0.3046 -0.0898
 7926SOL    HW124463   0.204   7.314   5.195  1.9609  2.0446 -0.0397
 7926SOL    HW224464   0.328   7.227   5.190  1.2423  0.8857  1.5409
 7927SOL     OW24465   7.691   7.169   0.241  0.4790 -1.2705  0.0002
 7927SOL    HW124466   7.717   7.247   0.290 -1.8523  0.4152 -1.2120
 7927SOL    HW224467   7.708   7.191   0.150 -1.8233 -1.3682 -0.5290
 7928SOL     OW24468   2.017   0.948   2.906 -0.4528 -0.0832 -0.2809
 7928SOL    HW124469   1.939   0.960   2.960  0.5752 -1.2170  1.5392
 7928SOL    HW224470   2.010   0.859   2.872  0.4395 -0.4988  0.5870
 7929SOL     OW24471   1.513   2.223   7.717 -0.1207 -0.2648  0.0655
 7929SOL    HW124472   1.446   2.197   7.781  0.0346 -0.4684  0.1453
 7929SOL    HW224473   1.589   2.170   7.739 -0.0504 -0.3014 -0.2592
 7930SOL     OW24474   6.466   4.282   3.789  0.0426  0.2902  0.8522
 7930SOL    HW124475   6.495   4.319   3.872 -0.4024  0.1013  1.0953
 7930SOL    HW224476   6.401   4.217   3.813 -0.4760  0.6017  0.3255
 7931SOL     OW24477   4.601   4.975   0.865  0.1246  0.8180 -0.1883
 7931SOL    HW124478   4.691   5.008   0.863 -0.1698  1.6817  0.3855
 7931SOL    HW224479   4.601   4.902   0.802  1.4709  0.1544  0.5272
 7932SOL     OW24480   3.040   4.091   2.625 -0.0784  0.2930  0.1218
 7932SOL    HW124481   3.018   4.087   2.718  0.4035 -1.1675  0.2100
 7932SOL    HW224482   3.110   4.027   2.614  0.6783  1.2738 -1.0470
 7933SOL     OW24483   5.526   5.041   4.642  0.5845 -0.1329 -0.0806
 7933SOL    HW124484   5.477   4.974   4.691 -1.0286  0.4846 -0.7822
 7933SOL    HW224485   5.494   5.124   4.677 -0.6241  0.3268 -2.1527
 7934SOL     OW24486   3.171   4.300   5.003 -0.4480 -0.3260  0.0439
 7934SOL    HW124487   3.157   4.380   5.054  1.4327 -0.3391  0.6362
 7934SOL    HW224488   3.112   4.236   5.042  0.2673 -0.0687  1.6101
 7935SOL     OW24489   4.505   6.212   5.027  0.2152  0.4189  0.0533
 7935SOL    HW124490   4.432   6.272   5.042  0.6742  0.9562  0.1765
 7935SOL    HW224491   4.473   6.127   5.058 -0.3536  0.6498  0.1082
 7936SOL     OW24492   3.682   7.728   2.491 -0.1709 -0.0552 -0.2880
 7936SOL    HW124493   3.685   7.685   2.406 -2.1694  1.8323 -1.4393
 7936SOL    HW224494   3.612   7.682   2.539 -2.1667  1.6258 -1.4411
 7937SOL     OW24495   3.314   3.055   6.486  0.3483 -0.3298 -0.3035
 7937SOL    HW124496   3.354   2.989   6.542 -0.6830 -1.2156 -0.5759
 7937SOL    HW224497   3.328   3.137   6.533  0.7112 -0.8727  0.5724
 7938SOL     OW24498   7.223   5.473   1.055 -0.1863  0.2606  0.1228
 7938SOL    HW124499   7.252   5.497   1.143 -1.1183  0.0506  0.4987
 7938SOL    HW224500   7.165   5.544   1.028  1.2494  1.0910 -0.9542
 7939SOL     OW24501   0.875   3.188   3.472 -0.1996 -0.1165  0.0545
 7939SOL    HW124502   0.971   3.180   3.468 -0.2536 -0.5626 -2.8765
 7939SOL    HW224503   0.857   3.272   3.431 -1.0767 -0.6347 -0.6679
 7940SOL     OW24504   3.778   7.606   6.152  0.4092 -0.0128  0.1082
 7940SOL    HW124505   3.705   7.573   6.204  0.1792  0.3291  0.0022
 7940SOL    HW224506   3.832   7.655   6.215  1.3155 -1.4358  0.5036
 7941SOL     OW24507   4.241   5.292   3.337 -0.0159 -0.6210 -0.4035
 7941SOL    HW124508   4.331   5.265   3.315 -0.4881 -1.4462 -1.4027
 7941SOL    HW224509   4.230   5.375   3.292  0.0790 -0.7722 -0.7077
 7942SOL     OW24510   1.291   6.266   2.444 -0.1861 -0.7085  0.3108
 7942SOL    HW124511   1.271   6.228   2.358 -0.4975  3.0577 -1.5341
 7942SOL    HW224512   1.384   6.248   2.457  0.3820  0.2883 -1.8805
 7943SOL     OW24513   0.937   2.556   2.414  0.2777 -0.0015 -0.3072
 7943SOL    HW124514   0.982   2.498   2.353 -0.0426 -1.6034  0.9089
 7943SOL    HW224515   0.985   2.547   2.496 -1.5098 -0.8749  0.7060
 7944SOL     OW24516   2.717   4.017   0.537 -0.0023 -0.0069 -0.0892
 7944SOL    HW124517   2.717   3.969   0.620  0.3928  3.2296  1.9733
 7944SOL    HW224518   2.797   3.990   0.494  0.2286 -1.1313  0.9781
 7945SOL     OW24519   0.936   4.938   1.273  0.1370  0.2142  0.3242
 7945SOL    HW124520   0.907   4.849   1.253  0.7232 -0.3166  1.6754
 7945SOL    HW224521   0.867   4.974   1.327 -1.4987  1.6837 -2.5159
 7946SOL     OW24522   6.873   4.494   6.730 -0.0271 -0.4188 -0.3915
 7946SOL    HW124523   6.817   4.521   6.658  1.6713 -0.5138 -1.8036
 7946SOL    HW224524   6.852   4.555   6.801 -2.1658 -0.7109 -0.7119
 7947SOL     OW24525   6.080   5.615   1.769  0.0639  0.1808  0.3924
 7947SOL    HW124526   6.019   5.681   1.802 -2.3571 -0.9981 -1.3949
 7947SOL    HW224527   6.051   5.533   1.809 -0.0765 -0.5238 -1.0748
 7948SOL     OW24528   6.003   7.419   4.296 -0.3130  0.0260 -0.4053
 7948SOL    HW124529   6.031   7.492   4.351 -1.7966 -0.2103  0.7155
 7948SOL    HW224530   6.078   7.360   4.295  0.4851  0.9979 -0.3682
 7949SOL     OW24531   0.351   6.330   5.892  0.1499  0.1114 -0.0761
 7949SOL    HW124532   0.369   6.420   5.863 -1.8260  0.3885 -0.5943
 7949SOL    HW224533   0.256   6.326   5.900  0.1713 -2.0344 -0.3261
 7950SOL     OW24534   2.071   5.767   2.727  0.0094 -0.1576 -0.1792
 7950SOL    HW124535   2.149   5.822   2.737 -1.4899  2.1593 -0.5395
 7950SOL    HW224536   2.067   5.717   2.808  0.7885  1.1772  0.7343
 7951SOL     OW24537   6.390   1.204   7.293  0.1565  0.3190 -0.0563
 7951SOL    HW124538   6.424   1.287   7.326  0.4699  0.4120 -0.6211
 7951SOL    HW224539   6.467   1.155   7.265 -0.0125 -0.2271  0.4042
 7952SOL     OW24540   6.311   0.938   3.092 -0.1593  0.3711  0.7385
 7952SOL    HW124541   6.254   0.868   3.061 -0.1658  1.4650 -1.9926
 7952SOL    HW224542   6.282   0.954   3.182 -0.3638 -2.8262  1.3465
 7953SOL     OW24543   7.067   4.303   5.748  0.4334  0.3524  0.2954
 7953SOL    HW124544   6.980   4.287   5.785  0.2804 -1.6283 -0.7663
 7953SOL    HW224545   7.116   4.223   5.766  1.3936  0.6405 -0.8974
 7954SOL     OW24546   3.810   1.237   2.806  0.3577  0.2064  0.1549
 7954SOL    HW124547   3.788   1.308   2.747 -1.0553 -0.4363 -0.1334
 7954SOL    HW224548   3.751   1.248   2.881  1.2840  0.3026  0.8883
 7955SOL     OW24549   4.962   6.618   4.637 -0.2311 -0.2355  0.2416
 7955SOL    HW124550   4.900   6.613   4.565  1.6228 -1.3657 -1.3900
 7955SOL    HW224551   5.007   6.533   4.636  0.6001  0.1319  2.0340
 7956SOL     OW24552   7.471   7.399   3.322  0.6113  0.5670 -0.4571
 7956SOL    HW124553   7.426   7.483   3.309  1.4728  1.1138 -0.0650
 7956SOL    HW224554   7.478   7.362   3.234 -1.6528 -0.1378 -0.4101
 7957SOL     OW24555   5.879   7.663   3.030 -0.1404  0.1332 -0.4644
 7957SOL    HW124556   5.921   7.749   3.026 -0.9715  0.6769  1.5805
 7957SOL    HW224557   5.799   7.677   3.080 -0.4031 -1.7950 -0.2598
 7958SOL     OW24558   2.314   6.600   1.359  0.4993 -0.5680  0.6358
 7958SOL    HW124559   2.344   6.630   1.273 -0.2359  1.5603  1.0351
 7958SOL    HW224560   2.221   6.579   1.346  0.1579  0.5889  1.0436
 7959SOL     OW24561   1.898   6.347   3.546 -0.2832 -0.1484 -0.2109
 7959SOL    HW124562   1.901   6.258   3.582 -1.8092  0.5332  1.8024
 7959SOL    HW224563   1.827   6.389   3.593  0.0358  1.9997 -1.5221
 7960SOL     OW24564   2.079   5.875   5.323  1.0477 -0.5146  0.6051
 7960SOL    HW124565   2.088   5.936   5.396  2.2575  0.8006 -0.5770
 7960SOL    HW224566   2.152   5.896   5.265  0.9994 -2.5399 -0.2733
 7961SOL     OW24567   6.273   7.391   7.530 -0.2605  0.2158  0.0449
 7961SOL    HW124568   6.366   7.409   7.544 -0.0659 -0.0810 -0.8108
 7961SOL    HW224569   6.269   7.351   7.443 -1.2936  1.0850 -0.3218
 7962SOL     OW24570   0.565   2.020   1.007 -0.5592 -0.3728 -0.9530
 7962SOL    HW124571   0.529   2.078   1.074  0.5115  1.2799 -1.7322
 7962SOL    HW224572   0.533   1.933   1.031 -1.2750  0.3481  0.9277
 7963SOL     OW24573   3.257   6.983   0.469  0.3103  0.0026  0.3218
 7963SOL    HW124574   3.307   6.991   0.388 -0.5655  0.1880 -0.2196
 7963SOL    HW224575   3.235   6.889   0.474 -2.5233  0.4121 -1.5146
 7964SOL     OW24576   3.519   1.627   7.471 -0.0526  0.3425 -0.3020
 7964SOL    HW124577   3.599   1.634   7.418 -0.4533  2.4306 -0.7193
 7964SOL    HW224578   3.501   1.717   7.499 -0.3233 -0.5804  2.7665
 7965SOL     OW24579   3.639   1.235   3.018  0.2317 -0.2356 -0.1336
 7965SOL    HW124580   3.558   1.204   3.059  0.8668 -1.2144  0.4367
 7965SOL    HW224581   3.708   1.211   3.080  1.0202  0.0405 -0.8796
 7966SOL     OW24582   2.983   7.137   0.444  0.2346 -0.2940  0.7555
 7966SOL    HW124583   3.070   7.112   0.476  0.2391 -2.5426 -0.7685
 7966SOL    HW224584   2.952   7.060   0.396 -1.3305  1.4821 -1.3073
 7967SOL     OW24585   0.334   3.137   6.496 -0.2468 -0.1653 -0.2223
 7967SOL    HW124586   0.259   3.196   6.501  0.3812  0.6697 -0.4724
 7967SOL    HW224587   0.353   3.115   6.588 -0.1243  0.4752 -0.0944
 7968SOL     OW24588   7.020   2.466   0.566 -0.0801  0.0573 -0.5917
 7968SOL    HW124589   7.059   2.406   0.630  1.0393  0.9208 -0.4231
 7968SOL    HW224590   7.005   2.547   0.616 -0.9626  0.1379 -0.9693
 7969SOL     OW24591   6.161   3.142   2.233 -0.5613  0.0926  0.2312
 7969SOL    HW124592   6.253   3.158   2.215 -0.2696 -1.1120  0.5828
 7969SOL    HW224593   6.156   3.125   2.327 -1.4521  2.0691  0.5980
 7970SOL     OW24594   6.099   0.702   1.765  0.1224  0.4782 -0.1134
 7970SOL    HW124595   6.134   0.615   1.747 -2.5112 -0.7499  0.1889
 7970SOL    HW224596   6.132   0.756   1.693  1.6763 -0.7803 -0.4123
 7971SOL     OW24597   1.208   4.124   5.303 -1.1224  0.3017 -0.0059
 7971SOL    HW124598   1.180   4.192   5.365  0.7424 -0.1511  1.4026
 7971SOL    HW224599   1.258   4.171   5.237  0.0251  0.3507  0.8771
 7972SOL     OW24600   6.462   1.746   5.992  0.3171 -0.5732 -0.1056
 7972SOL    HW124601   6.415   1.804   5.932  0.6609  0.0727  0.2446
 7972SOL    HW224602   6.518   1.692   5.936 -1.1573 -1.6845 -0.5837
 7973SOL     OW24603   2.879   4.537   7.196 -0.0824 -0.4671 -0.2796
 7973SOL    HW124604   2.826   4.462   7.224  1.3762 -1.5212 -0.1705
 7973SOL    HW224605   2.870   4.601   7.266 -2.3078  0.0050 -0.9279
 7974SOL     OW24606   7.324   7.115   7.637 -0.3190  0.2773 -0.3783
 7974SOL    HW124607   7.367   7.114   7.722  0.1998  0.4364 -0.6351
 7974SOL    HW224608   7.233   7.093   7.656 -0.4725  1.4943  0.3625
 7975SOL     OW24609   3.757   1.110   3.245  0.0820  0.5423  0.4544
 7975SOL    HW124610   3.684   1.155   3.286  0.1986  1.0084  0.1594
 7975SOL    HW224611   3.795   1.057   3.315 -0.9704 -0.2727  0.4339
 7976SOL     OW24612   0.906   1.013   0.085  0.0206  0.1924 -0.5399
 7976SOL    HW124613   0.937   1.034   0.174  0.9123 -1.4372 -0.4405
 7976SOL    HW224614   0.944   1.082   0.030  0.1040  0.7728  0.2217
 7977SOL     OW24615   1.619   0.340   3.857 -0.0644 -0.8979 -0.8821
 7977SOL    HW124616   1.536   0.318   3.900  0.1016 -1.2445 -0.7347
 7977SOL    HW224617   1.662   0.256   3.843  0.4093 -0.6957 -0.6603
 7978SOL     OW24618   6.115   5.288   4.055  0.3393 -0.7445  0.4989
 7978SOL    HW124619   6.027   5.289   4.017  0.7224  0.5081 -0.4390
 7978SOL    HW224620   6.112   5.220   4.121 -1.1690 -1.1263  0.0755
 7979SOL     OW24621   2.477   6.993   1.788 -0.7331  0.1128 -0.0254
 7979SOL    HW124622   2.530   7.005   1.709 -0.9436 -0.5435 -0.2787
 7979SOL    HW224623   2.392   7.032   1.765 -0.5941  0.5013  0.1133
 7980SOL     OW24624   7.204   0.071   5.291 -0.0439 -0.1347 -0.4787
 7980SOL    HW124625   7.201   0.064   5.195  0.1831 -0.8108 -0.4408
 7980SOL    HW224626   7.297   0.071   5.312 -0.0924 -1.6160 -0.1577
 7981SOL     OW24627   4.874   7.442   0.340 -0.0044  0.0991 -0.2812
 7981SOL    HW124628   4.927   7.517   0.312  3.3301 -1.5061  1.1959
 7981SOL    HW224629   4.823   7.476   0.413 -0.6311  1.5716 -1.3566
 7982SOL     OW24630   7.267   5.698   2.613  0.0734 -1.0497  0.2664
 7982SOL    HW124631   7.191   5.703   2.672  0.0548 -0.5711  0.2030
 7982SOL    HW224632   7.342   5.714   2.670  0.1183 -1.4084  0.3082
 7983SOL     OW24633   2.476   4.565   1.030 -0.1144  0.3945 -0.6186
 7983SOL    HW124634   2.507   4.652   1.053  0.2498  0.0350  0.2861
 7983SOL    HW224635   2.555   4.513   1.020 -0.3697 -0.3629  1.0326
 7984SOL     OW24636   5.490   3.745   2.443 -0.2912  0.4504 -0.1407
 7984SOL    HW124637   5.427   3.718   2.377 -0.1157  2.3785 -1.1681
 7984SOL    HW224638   5.551   3.802   2.396  0.8682  0.4806  1.3214
 7985SOL     OW24639   6.665   5.358   0.788  0.0157 -0.5105  0.2799
 7985SOL    HW124640   6.729   5.408   0.737 -0.3706 -0.9647 -0.6745
 7985SOL    HW224641   6.714   5.327   0.865  0.8323 -0.5036 -0.2278
 7986SOL     OW24642   1.532   1.994   3.537 -0.2662 -0.0345  0.9585
 7986SOL    HW124643   1.577   1.909   3.540 -0.0773  0.0347  0.1760
 7986SOL    HW224644   1.600   2.057   3.560 -0.1264  0.0075  0.4350
 7987SOL     OW24645   1.113   6.683   2.160 -0.1644 -0.2988 -0.1347
 7987SOL    HW124646   1.153   6.596   2.152 -0.7447 -0.4860 -1.2289
 7987SOL    HW224647   1.186   6.744   2.149  0.1423 -0.6471 -0.0483
 7988SOL     OW24648   7.043   4.349   3.847 -0.1554 -0.4061  0.0207
 7988SOL    HW124649   7.114   4.366   3.785 -0.1379  0.1411  0.1893
 7988SOL    HW224650   6.984   4.290   3.800 -0.8264  1.0403 -1.0066
 7989SOL     OW24651   0.260   7.775   1.958  0.1198 -0.1340 -0.3186
 7989SOL    HW124652   0.235   7.867   1.951 -0.0812 -0.1042  0.5817
 7989SOL    HW224653   0.293   7.751   1.871  1.0278  1.0429 -0.3252
 7990SOL     OW24654   1.895   2.713   0.820 -0.7391  0.4630  0.1800
 7990SOL    HW124655   1.900   2.741   0.911 -0.7505  1.5824 -0.1480
 7990SOL    HW224656   1.813   2.751   0.788  0.0170  1.3856 -0.7161
 7991SOL     OW24657   3.018   3.782   4.243 -0.0733 -0.3671 -0.1032
 7991SOL    HW124658   2.927   3.813   4.240  0.3682  0.9807 -0.2860
 7991SOL    HW224659   3.011   3.692   4.276 -1.3310  0.3425  1.7716
 7992SOL     OW24660   6.807   0.164   4.511 -0.3492  0.1183  0.3253
 7992SOL    HW124661   6.887   0.190   4.467 -0.7768  0.8747 -0.0231
 7992SOL    HW224662   6.824   0.179   4.604 -0.1721  0.4868  0.2301
 7993SOL     OW24663   7.418   0.843   7.347  0.9189  0.4197  0.1998
 7993SOL    HW124664   7.446   0.895   7.422 -0.6500  1.2887  0.2321
 7993SOL    HW224665   7.367   0.904   7.293 -3.1319 -1.5055  1.4418
 7994SOL     OW24666   4.522   7.025   4.042 -0.0728 -0.1410  0.0749
 7994SOL    HW124667   4.584   7.088   4.005 -0.6534  0.6104  0.3574
 7994SOL    HW224668   4.505   6.963   3.971  0.3526  0.1326 -0.2730
 7995SOL     OW24669   7.645   3.505   1.829 -0.2474 -0.0482  0.6423
 7995SOL    HW124670   7.614   3.501   1.919  0.8538 -0.9325  1.0042
 7995SOL    HW224671   7.595   3.437   1.783  0.9091 -1.2747  1.1577
 7996SOL     OW24672   7.486   5.640   2.025 -0.2273 -0.3865  0.4852
 7996SOL    HW124673   7.468   5.707   2.091  1.0161 -0.1435  0.5945
 7996SOL    HW224674   7.554   5.585   2.064 -0.8991 -1.4501  0.2086
 7997SOL     OW24675   3.000   7.766   5.192  0.0916  0.1853  0.0217
 7997SOL    HW124676   2.915   7.756   5.236  0.8769 -2.6787  1.0739
 7997SOL    HW224677   3.022   7.679   5.162  2.3436  1.0149 -0.9237
 7998SOL     OW24678   5.665   6.783   5.769 -0.2331  0.1236 -0.9708
 7998SOL    HW124679   5.628   6.808   5.854 -1.5594 -0.6183 -1.3043
 7998SOL    HW224680   5.754   6.755   5.789 -0.4125  0.2884  0.1326
 7999SOL     OW24681   6.267   6.964   1.010  0.0840 -0.1625  0.0736
 7999SOL    HW124682   6.243   6.880   0.972  0.9688  0.2014 -1.3648
 7999SOL    HW224683   6.205   6.977   1.082 -1.3918 -1.0668 -0.9854
 8000SOL     OW24684   3.617   3.178   1.090 -0.6198  0.5438 -0.8703
 8000SOL    HW124685   3.657   3.184   1.177 -1.7483 -0.1027 -0.2892
 8000SOL    HW224686   3.692   3.167   1.031  0.0973 -0.7599  0.1953
 8001SOL     OW24687   1.458   3.630   7.151 -0.1372  0.0800  0.2596
 8001SOL    HW124688   1.393   3.565   7.125 -0.4559  0.7220 -0.5826
 8001SOL    HW224689   1.528   3.578   7.192 -0.3519 -0.8019 -0.4608
 8002SOL     OW24690   2.711   3.163   2.071  0.2882 -0.1947  0.0353
 8002SOL    HW124691   2.678   3.186   1.984  1.1876 -1.5103 -0.6793
 8002SOL    HW224692   2.654   3.093   2.101 -0.5031  0.7768  0.8655
 8003SOL     OW24693   3.896   7.627   6.695  0.4321  0.5427  0.2879
 8003SOL    HW124694   3.855   7.567   6.757 -1.1855  0.1408 -1.0891
 8003SOL    HW224695   3.832   7.697   6.683  1.1013  1.0780 -0.2555
 8004SOL     OW24696   6.838   6.314   2.530 -0.4679 -0.4929  0.4405
 8004SOL    HW124697   6.824   6.353   2.444 -0.1240  0.6711  0.8885
 8004SOL    HW224698   6.845   6.220   2.513  1.2923 -0.1614 -1.0439
 8005SOL     OW24699   6.713   5.484   1.704  0.0305  0.1955 -0.0977
 8005SOL    HW124700   6.773   5.538   1.756 -0.7653 -0.4074  1.5225
 8005SOL    HW224701   6.628   5.494   1.747  0.0467 -3.1972  1.0440
 8006SOL     OW24702   7.411   0.958   5.873  0.1435  0.4445  0.1059
 8006SOL    HW124703   7.346   0.942   5.806  0.5413  1.0221 -0.4245
 8006SOL    HW224704   7.451   1.041   5.849 -1.3512  1.9133  2.3838
 8007SOL     OW24705   2.337   3.318   6.321  0.1354  0.0306  0.4323
 8007SOL    HW124706   2.416   3.363   6.350 -1.3289  2.1370  1.3783
 8007SOL    HW224707   2.301   3.374   6.252 -0.5271 -0.9220 -0.0221
 8008SOL     OW24708   1.701   5.434   5.046  0.0194 -0.4698 -0.2508
 8008SOL    HW124709   1.717   5.397   4.959  0.0786  2.7538 -1.7781
 8008SOL    HW224710   1.788   5.441   5.085  0.3852  0.6536 -1.1850
 8009SOL     OW24711   1.520   4.698   5.297 -0.5125  0.2164  0.0322
 8009SOL    HW124712   1.467   4.759   5.349 -0.4379  3.0983 -2.9333
 8009SOL    HW224713   1.590   4.753   5.261  1.2712 -2.3077 -0.5900
 8010SOL     OW24714   3.675   6.052   6.765  0.6329  0.8289 -0.1423
 8010SOL    HW124715   3.631   5.994   6.827  0.8481  0.1317 -0.6387
 8010SOL    HW224716   3.658   6.140   6.799  1.7258  0.4212  1.5401
 8011SOL     OW24717   3.751   5.735   7.561 -0.2287 -0.1722  0.0479
 8011SOL    HW124718   3.836   5.766   7.592  1.4790 -0.8248 -3.5175
 8011SOL    HW224719   3.711   5.811   7.519  0.1132 -0.6380 -1.1581
 8012SOL     OW24720   6.450   6.536   4.369  0.0541  0.5667  0.4627
 8012SOL    HW124721   6.377   6.549   4.431 -0.0846 -0.8275  0.6214
 8012SOL    HW224722   6.528   6.562   4.418 -0.2868  1.8742  0.3617
 8013SOL     OW24723   6.153   3.482   5.680  0.0103  0.2650 -0.0307
 8013SOL    HW124724   6.240   3.450   5.659 -0.2852 -0.3113 -0.4049
 8013SOL    HW224725   6.142   3.562   5.629  0.0397 -0.0647 -0.5517
 8014SOL     OW24726   5.635   5.762   1.256  0.3229 -0.0681  0.0466
 8014SOL    HW124727   5.651   5.674   1.222  0.6775  0.3848 -1.0090
 8014SOL    HW224728   5.542   5.764   1.277  0.2015 -0.5203 -0.4520
 8015SOL     OW24729   3.570   4.804   3.013  0.9040  0.3031  0.3875
 8015SOL    HW124730   3.549   4.865   3.083  2.8044  4.7179 -2.4329
 8015SOL    HW224731   3.663   4.785   3.024  0.8289 -0.3333  0.0000
 8016SOL     OW24732   7.237   1.087   5.694 -0.2415  0.6422  0.1826
 8016SOL    HW124733   7.220   1.156   5.759 -2.9166  0.9873 -0.7768
 8016SOL    HW224734   7.152   1.048   5.678  0.8407 -1.3472 -1.0752
 8017SOL     OW24735   1.436   1.686   2.411  0.1603 -0.5083 -0.0706
 8017SOL    HW124736   1.448   1.630   2.488  1.7424  0.1035  0.1584
 8017SOL    HW224737   1.455   1.629   2.337 -0.0296 -0.7454  0.0620
 8018SOL     OW24738   2.155   3.149   1.548 -0.2922  0.5294 -0.1353
 8018SOL    HW124739   2.251   3.148   1.541 -0.2730  0.0460  0.1091
 8018SOL    HW224740   2.127   3.215   1.485  0.1433 -0.1404 -1.0615
 8019SOL     OW24741   5.676   3.981   6.813  0.7846 -0.8086 -0.2510
 8019SOL    HW124742   5.741   3.920   6.847  0.2239 -1.7004 -0.7372
 8019SOL    HW224743   5.592   3.935   6.823  0.1018  0.5852  1.0214
 8020SOL     OW24744   4.057   0.622   3.005  0.7401  0.7974  0.6278
 8020SOL    HW124745   4.100   0.543   2.975 -1.1743  0.0527 -0.3287
 8020SOL    HW224746   4.127   0.673   3.046  2.4695 -0.3844 -0.6730
 8021SOL     OW24747   4.820   4.019   2.591 -0.2261  0.6475  0.5510
 8021SOL    HW124748   4.816   4.026   2.496  1.1881  1.8743  0.5405
 8021SOL    HW224749   4.912   3.998   2.610 -0.4693  0.5171  1.6504
 8022SOL     OW24750   3.698   5.175   0.442 -0.6440 -0.2070  0.3108
 8022SOL    HW124751   3.668   5.251   0.391  0.1933 -0.0614  0.0253
 8022SOL    HW224752   3.793   5.179   0.437 -0.5848 -2.1340 -0.9591
 8023SOL     OW24753   6.253   6.413   0.052  0.1875  0.3953 -0.2791
 8023SOL    HW124754   6.275   6.332   0.005 -1.7509  0.3177 -1.1374
 8023SOL    HW224755   6.293   6.402   0.139  2.4457 -0.1697 -1.3019
 8024SOL     OW24756   5.770   7.164   4.070 -0.0032 -0.5064  0.4343
 8024SOL    HW124757   5.754   7.231   4.003  0.2015 -0.4237  0.4683
 8024SOL    HW224758   5.685   7.120   4.080 -0.2255 -0.0376  0.6456
 8025SOL     OW24759   6.109   3.630   0.011  0.5205 -0.6179 -0.0671
 8025SOL    HW124760   6.174   3.661  -0.052  0.1533 -0.8890 -0.5910
 8025SOL    HW224761   6.158   3.621   0.093  1.2306 -1.1395 -0.5282
 8026SOL     OW24762   7.537   3.250   6.978  0.0624 -0.0968 -0.2336
 8026SOL    HW124763   7.617   3.255   6.926 -0.0090  0.7863 -0.2789
 8026SOL    HW224764   7.538   3.330   7.032 -1.0206  0.1837 -0.5987
 8027SOL     OW24765   1.199   3.144   7.298 -1.2141 -0.0261  0.1443
 8027SOL    HW124766   1.272   3.099   7.254  0.1172 -0.2149  2.4039
 8027SOL    HW224767   1.236   3.228   7.325 -1.9921  0.0783  0.9132
 8028SOL     OW24768   0.931   3.161   5.824  0.6003 -0.4081 -0.0878
 8028SOL    HW124769   0.923   3.146   5.918 -0.0783 -0.2951 -0.1236
 8028SOL    HW224770   0.901   3.079   5.784 -3.0743  0.8529 -0.2827
 8029SOL     OW24771   5.441   4.285   1.167  0.7599 -0.5418  0.3220
 8029SOL    HW124772   5.480   4.198   1.175  1.1471 -0.5564 -1.3760
 8029SOL    HW224773   5.360   4.280   1.218 -0.0184 -2.4097 -1.0142
 8030SOL     OW24774   1.773   0.064   7.549  0.6372  0.6331  0.3011
 8030SOL    HW124775   1.792   0.117   7.626  1.3609  0.3693  0.3149
 8030SOL    HW224776   1.813  -0.021   7.568  0.3135  0.3805 -0.1174
 8031SOL     OW24777   1.048   6.704   0.321 -0.6608 -0.2185 -0.2709
 8031SOL    HW124778   1.099   6.785   0.309 -1.7049  0.5837  0.4952
 8031SOL    HW224779   1.023   6.679   0.232  0.6365 -0.3588 -0.6214
 8032SOL     OW24780   7.047   6.944   7.177 -0.0491  0.1725  0.0509
 8032SOL    HW124781   6.973   6.884   7.167 -0.6752  1.0145 -0.4597
 8032SOL    HW224782   7.107   6.897   7.235 -0.4549 -1.0086 -0.4405
 8033SOL     OW24783   0.586   7.067   2.714 -0.1959  0.1036 -0.8180
 8033SOL    HW124784   0.504   7.019   2.701  0.7824 -1.3544 -2.1042
 8033SOL    HW224785   0.632   7.056   2.631  1.7878 -0.1041  0.2573
 8034SOL     OW24786   7.635   1.002   4.310 -0.0743  0.4745 -0.3934
 8034SOL    HW124787   7.609   1.034   4.223 -0.0627  0.7748 -0.2891
 8034SOL    HW224788   7.583   0.923   4.323 -1.3875  1.3843  0.0563
 8035SOL     OW24789   5.974   2.444   4.090 -0.8121  0.6726  0.2856
 8035SOL    HW124790   5.943   2.464   4.002 -3.4680 -0.3022  0.9054
 8035SOL    HW224791   6.008   2.354   4.083 -0.5747  0.7706  0.1652
 8036SOL     OW24792   2.018   4.182   2.453 -0.6556  0.0288  0.1289
 8036SOL    HW124793   1.969   4.252   2.410  0.4793  1.3607  0.9210
 8036SOL    HW224794   2.086   4.159   2.390 -0.5103  0.2342  0.2109
 8037SOL     OW24795   6.382   0.704   0.955  0.1703  0.5581 -0.2721
 8037SOL    HW124796   6.475   0.682   0.944 -0.1035 -0.0483 -1.5367
 8037SOL    HW224797   6.343   0.687   0.869 -0.9041  1.8615 -0.0736
 8038SOL     OW24798   6.600   4.436   2.811  0.2035  0.1471  0.3230
 8038SOL    HW124799   6.668   4.498   2.838 -0.2436  0.8919 -0.2185
 8038SOL    HW224800   6.647   4.354   2.795  1.4378  1.2518 -2.4693
 8039SOL     OW24801   5.599   7.156   1.067 -0.0341  0.2748 -0.0257
 8039SOL    HW124802   5.671   7.093   1.076  1.2995  1.7999  0.4707
 8039SOL    HW224803   5.552   7.152   1.150 -0.2057 -0.3343 -0.1470
 8040SOL     OW24804   2.549   2.775   2.249 -0.2893  0.2257  0.8205
 8040SOL    HW124805   2.574   2.853   2.299  0.2926  0.0289  0.8431
 8040SOL    HW224806   2.522   2.711   2.315 -2.9324  1.1070  0.7284
 8041SOL     OW24807   6.645   0.315   1.702  0.4171  0.1258 -0.2267
 8041SOL    HW124808   6.646   0.385   1.768  0.4370 -0.5265  0.4787
 8041SOL    HW224809   6.728   0.324   1.656  1.4078 -0.7614  1.3082
 8042SOL     OW24810   6.104   6.556   2.624 -0.2684 -0.2965 -0.2781
 8042SOL    HW124811   6.166   6.610   2.673 -0.4346 -1.0145  0.7468
 8042SOL    HW224812   6.154   6.522   2.551  0.3093 -0.1735  0.0572
 8043SOL     OW24813   2.144   3.790   6.140 -0.1470  0.3910  0.1851
 8043SOL    HW124814   2.080   3.846   6.097  0.4227  1.1242  0.2715
 8043SOL    HW224815   2.209   3.772   6.072 -0.3290 -0.1764  0.1564
 8044SOL     OW24816   1.150   3.680   0.558  0.0238 -0.2812 -0.1718
 8044SOL    HW124817   1.245   3.685   0.545  0.0604 -0.5678 -0.0330
 8044SOL    HW224818   1.124   3.767   0.586  0.2425 -0.1959 -0.2365
 8045SOL     OW24819   6.152   3.015   2.484  0.1392  0.2141 -0.7858
 8045SOL    HW124820   6.198   3.094   2.513  2.8671 -1.0367 -1.4132
 8045SOL    HW224821   6.109   2.982   2.563 -0.2190  1.7510 -0.3037
 8046SOL     OW24822   4.362   4.673   6.912  0.8133 -0.2394  0.3768
 8046SOL    HW124823   4.334   4.588   6.877 -0.3639 -0.1592  1.0754
 8046SOL    HW224824   4.440   4.652   6.964 -0.1569 -1.1217  1.5467
 8047SOL     OW24825   3.006   1.417   3.064  0.5462  0.0396 -0.4490
 8047SOL    HW124826   2.948   1.451   2.995 -3.9639  1.9207  3.6695
 8047SOL    HW224827   3.074   1.484   3.072 -0.4674  1.2246 -1.2726
 8048SOL     OW24828   2.381   5.149   1.467  0.3872 -0.2073 -0.6039
 8048SOL    HW124829   2.462   5.174   1.511  0.1324 -0.6205  0.0962
 8048SOL    HW224830   2.316   5.211   1.500  0.2826 -0.2554 -0.7182
 8049SOL     OW24831   2.595   2.931   1.930  0.4013  0.3867 -0.3938
 8049SOL    HW124832   2.658   2.869   1.968 -1.1877 -1.3620 -0.4792
 8049SOL    HW224833   2.649   2.992   1.881  2.0467 -1.2682 -0.7807
 8050SOL     OW24834   6.694   4.923   7.344 -0.1624  0.0500  0.2402
 8050SOL    HW124835   6.781   4.961   7.337 -0.0930 -0.3554 -1.4732
 8050SOL    HW224836   6.705   4.832   7.315 -1.4049  0.4057 -1.4666
 8051SOL     OW24837   1.347   5.657   0.451  0.1199  0.6249  0.0892
 8051SOL    HW124838   1.290   5.713   0.504  0.9704  0.2818  1.4241
 8051SOL    HW224839   1.361   5.579   0.505  2.8231  1.2131  0.4229
 8052SOL     OW24840   5.619   5.297   3.787  0.1651  0.2398 -0.4172
 8052SOL    HW124841   5.564   5.301   3.865 -0.7232 -0.2361 -0.9892
 8052SOL    HW224842   5.557   5.283   3.715  0.8630  1.5057 -1.3228
 8053SOL     OW24843   0.189   7.210   2.429 -0.2860  0.5000 -0.9002
 8053SOL    HW124844   0.130   7.264   2.376 -1.7347  1.2583  1.3535
 8053SOL    HW224845   0.268   7.264   2.439 -1.0894  1.5600 -0.0182
 8054SOL     OW24846   0.797   3.191   4.469 -0.2923 -0.2617  0.0931
 8054SOL    HW124847   0.862   3.128   4.437  0.9844  1.4087 -0.7051
 8054SOL    HW224848   0.729   3.192   4.400  0.1282 -0.1132 -0.3241
 8055SOL     OW24849   0.101   6.426   3.225 -0.2504  0.2229  0.3933
 8055SOL    HW124850   0.030   6.396   3.168  1.0048 -1.4946 -0.3455
 8055SOL    HW224851   0.061   6.496   3.277 -2.7470 -1.1997  0.5973
 8056SOL     OW24852   5.097   0.018   2.499  0.1397 -0.0936  0.1810
 8056SOL    HW124853   5.078   0.089   2.438 -0.1037 -2.2516 -2.4276
 8056SOL    HW224854   5.193   0.012   2.500  0.2432  1.1277  1.5723
 8057SOL     OW24855   5.659   5.214   4.161  0.0681 -0.7624 -0.6946
 8057SOL    HW124856   5.672   5.174   4.247  0.9692  0.4782 -0.2252
 8057SOL    HW224857   5.567   5.196   4.140  0.0616 -1.8248  0.1179
 8058SOL     OW24858   6.339   5.018   2.246  0.5123  0.1742  0.1057
 8058SOL    HW124859   6.302   4.936   2.278 -0.8318  0.7437  0.0868
 8058SOL    HW224860   6.297   5.086   2.299 -1.9129  1.1711 -2.7749
 8059SOL     OW24861   4.876   2.772   1.586  0.0528 -0.0046  0.1218
 8059SOL    HW124862   4.820   2.809   1.519 -2.4869  0.8462  2.5141
 8059SOL    HW224863   4.914   2.693   1.546 -2.4879 -0.3460 -1.8229
 8060SOL     OW24864   0.792   6.236   3.897 -0.0577  0.4901 -0.3658
 8060SOL    HW124865   0.844   6.178   3.953  0.2244 -0.3573 -1.4849
 8060SOL    HW224866   0.703   6.228   3.930  0.0666 -0.1715 -0.1790
 8061SOL     OW24867   4.940   2.278   4.467  0.1697  0.4711 -0.4308
 8061SOL    HW124868   4.968   2.364   4.501  2.3063 -1.1719  2.3773
 8061SOL    HW224869   4.871   2.251   4.527 -0.9745  0.4523 -1.7197
 8062SOL     OW24870   0.926   3.325   0.033  0.3732  0.1498 -0.3490
 8062SOL    HW124871   0.927   3.237  -0.004 -0.3796  0.0736 -0.2095
 8062SOL    HW224872   0.982   3.319   0.111 -0.3832 -0.4378  0.1627
 8063SOL     OW24873   7.390   3.110   5.531  0.2404  0.2131  0.2377
 8063SOL    HW124874   7.324   3.043   5.546 -1.4578  1.8278  0.3496
 8063SOL    HW224875   7.342   3.182   5.490  1.9873  1.3819  0.1294
 8064SOL     OW24876   4.075   2.816   2.579 -0.5131 -0.2379  0.0964
 8064SOL    HW124877   4.068   2.724   2.605 -0.1500 -0.0104  1.0403
 8064SOL    HW224878   4.163   2.825   2.544 -0.8642 -0.4506 -0.8732
 8065SOL     OW24879   5.029   5.989   6.089  0.2464  0.4371  0.3464
 8065SOL    HW124880   4.973   5.948   6.024  0.7800  0.4290 -0.1122
 8065SOL    HW224881   5.038   5.924   6.158 -1.1344  0.8123  0.9095
 8066SOL     OW24882   4.345   6.781   0.246 -0.5446  0.4974  0.5707
 8066SOL    HW124883   4.426   6.771   0.296  1.1324  0.8411 -1.8860
 8066SOL    HW224884   4.296   6.848   0.294  0.0026 -0.6060  2.8098
 8067SOL     OW24885   4.747   6.702   4.811  0.6272  0.5778 -0.9619
 8067SOL    HW124886   4.821   6.657   4.771 -0.5740  0.1409 -2.7868
 8067SOL    HW224887   4.670   6.654   4.781 -0.4656  1.3627  0.4302
 8068SOL     OW24888   3.262   2.070   0.295 -0.0693 -0.3398 -0.3661
 8068SOL    HW124889   3.212   1.995   0.326 -0.2913 -1.0636 -2.2903
 8068SOL    HW224890   3.353   2.040   0.294  0.2201  0.3900  1.4898
 8069SOL     OW24891   7.652   5.458   6.259  0.1483 -0.0200 -0.0457
 8069SOL    HW124892   7.651   5.368   6.228  0.4797 -0.0376 -0.0077
 8069SOL    HW224893   7.745   5.480   6.266  0.1007 -0.1965  1.4777
 8070SOL     OW24894   6.224   4.329   3.561  0.1373  0.3985  0.0399
 8070SOL    HW124895   6.295   4.324   3.625  1.4550 -2.8080 -1.4510
 8070SOL    HW224896   6.262   4.373   3.485  1.0779 -2.3748 -1.2149
 8071SOL     OW24897   2.567   7.174   7.363  0.0286  0.4203  0.1549
 8071SOL    HW124898   2.660   7.152   7.355 -0.1576 -0.7744  1.0045
 8071SOL    HW224899   2.561   7.219   7.447 -0.2431 -0.0175  0.3729
 8072SOL     OW24900   1.062   5.512   3.195  0.1548  0.2550  0.3868
 8072SOL    HW124901   1.051   5.419   3.211  1.0127  0.0967  0.0623
 8072SOL    HW224902   1.138   5.519   3.138 -1.0913  1.0106 -1.2796
 8073SOL     OW24903   5.270   7.668   4.105 -0.9349 -0.2037  0.4413
 8073SOL    HW124904   5.335   7.632   4.166 -0.7351  1.8963  1.5483
 8073SOL    HW224905   5.311   7.660   4.019 -0.8584 -2.4197  0.6285
 8074SOL     OW24906   4.951   4.178   1.659 -0.0573 -0.1792  0.7969
 8074SOL    HW124907   4.992   4.210   1.740 -0.7343  0.0043  1.0724
 8074SOL    HW224908   4.891   4.110   1.688  1.5773 -1.9574  0.1827
 8075SOL     OW24909   0.870   1.739   7.537 -0.2412 -0.2577  0.4939
 8075SOL    HW124910   0.841   1.761   7.625  0.7120  1.8315  0.3440
 8075SOL    HW224911   0.965   1.730   7.544 -0.4231 -3.4504  0.2811
 8076SOL     OW24912   1.348   0.398   2.359  0.7088 -0.5797  0.3922
 8076SOL    HW124913   1.400   0.420   2.282  0.2331 -1.2220 -0.1384
 8076SOL    HW224914   1.410   0.397   2.432  1.2709 -0.4937 -0.0803
 8077SOL     OW24915   5.163   0.543   2.412 -0.4807  0.5657 -0.2666
 8077SOL    HW124916   5.177   0.638   2.412 -0.3954  0.5522  0.0245
 8077SOL    HW224917   5.251   0.507   2.423 -0.7843  0.4834  2.4824
 8078SOL     OW24918   0.245   7.029   3.526  0.1901  0.6904 -0.3630
 8078SOL    HW124919   0.186   7.076   3.466 -0.2581  0.2503 -0.2689
 8078SOL    HW224920   0.270   6.950   3.478 -0.3318  0.2363  0.1028
 8079SOL     OW24921   2.026   5.646   3.805 -0.1313  0.2569  0.6252
 8079SOL    HW124922   1.936   5.667   3.778  0.1651 -1.2253 -1.8725
 8079SOL    HW224923   2.034   5.552   3.788  1.9735  0.4192  0.4927
 8080SOL     OW24924   4.059   0.806   1.766 -0.1813  0.0503  0.4204
 8080SOL    HW124925   4.010   0.742   1.817 -0.0782  0.0669  0.5422
 8080SOL    HW224926   4.070   0.880   1.826 -0.1307  0.1022  0.3465
 8081SOL     OW24927   7.403   0.357   7.508  0.3780  0.0678 -0.0229
 8081SOL    HW124928   7.333   0.358   7.443  0.3998  0.9243 -0.0362
 8081SOL    HW224929   7.455   0.435   7.490 -0.5480  1.2395  2.0013
 8082SOL     OW24930   7.367   0.223   0.233 -0.0718  0.5482 -0.2478
 8082SOL    HW124931   7.426   0.148   0.234  0.5009  0.9848 -0.5252
 8082SOL    HW224932   7.365   0.251   0.142  1.2331  2.0222  0.1253
 8083SOL     OW24933   3.251   1.449   5.219  0.6474 -0.3107 -0.0900
 8083SOL    HW124934   3.336   1.449   5.174  0.7955  0.8550  0.1612
 8083SOL    HW224935   3.193   1.497   5.161  0.0002 -1.5286 -0.4959
 8084SOL     OW24936   2.813   4.631   3.737 -0.0172 -0.2668  0.3255
 8084SOL    HW124937   2.760   4.609   3.813 -0.9652 -1.4163 -0.6325
 8084SOL    HW224938   2.752   4.628   3.663  0.4117  2.7921 -0.2832
 8085SOL     OW24939   0.945   5.213   3.265  0.4592  0.4554 -0.0202
 8085SOL    HW124940   0.955   5.248   3.354  0.6671  2.0764 -0.6511
 8085SOL    HW224941   1.034   5.209   3.231  0.1822  3.0941 -1.3001
 8086SOL     OW24942   0.548   5.390   4.860  0.0492 -0.0158  0.0598
 8086SOL    HW124943   0.532   5.318   4.922 -0.1036  0.4305  0.5487
 8086SOL    HW224944   0.548   5.469   4.915  2.1129  0.1915 -0.1661
 8087SOL     OW24945   5.799   5.072   2.696 -0.0501 -0.0372  0.2135
 8087SOL    HW124946   5.706   5.056   2.688 -0.0813  0.5839 -0.8837
 8087SOL    HW224947   5.819   5.056   2.788 -0.9655 -1.4925  0.1796
 8088SOL     OW24948   0.981   6.112   4.872  0.6701 -0.2082  0.0118
 8088SOL    HW124949   0.927   6.038   4.899 -0.7398  0.9375  0.4564
 8088SOL    HW224950   1.002   6.158   4.953  1.3384  0.0261 -0.2851
 8089SOL     OW24951   3.907   2.036   0.396 -0.0195 -0.1963 -0.1533
 8089SOL    HW124952   3.899   1.952   0.443 -0.6847 -1.5409 -2.5098
 8089SOL    HW224953   3.935   2.011   0.308  0.7490  2.1895 -0.6505
 8090SOL     OW24954   5.670   0.621   2.395 -0.5284 -0.0282  0.2772
 8090SOL    HW124955   5.698   0.532   2.375 -0.5571  0.2547 -1.1620
 8090SOL    HW224956   5.745   0.676   2.369 -0.9247  0.4428  0.1229
 8091SOL     OW24957   1.614   1.344   2.999  0.3794  0.0903  0.0163
 8091SOL    HW124958   1.583   1.357   3.089  0.3619  1.0118 -0.1116
 8091SOL    HW224959   1.685   1.407   2.989  0.9606 -0.6188 -0.3402
 8092SOL     OW24960   3.893   3.516   0.329 -0.1875  0.1972  0.1161
 8092SOL    HW124961   3.934   3.435   0.362 -0.1391  0.4756  0.7632
 8092SOL    HW224962   3.812   3.524   0.380 -2.3821 -1.6126 -2.7470
 8093SOL     OW24963   0.338   0.240   7.171  0.0845  0.4395  0.0374
 8093SOL    HW124964   0.372   0.165   7.219 -1.1429 -0.0080  0.2596
 8093SOL    HW224965   0.342   0.313   7.233 -0.5255  0.1028  0.4811
 8094SOL     OW24966   6.617   0.156   4.855 -0.0743  0.5243  0.9335
 8094SOL    HW124967   6.677   0.225   4.883  0.6037  1.3637 -2.1937
 8094SOL    HW224968   6.661   0.074   4.879  1.8688  1.1473 -0.2885
 8095SOL     OW24969   4.463   7.130   4.518  0.5110 -0.2763  0.8481
 8095SOL    HW124970   4.508   7.086   4.446  0.1081 -2.3498  1.7966
 8095SOL    HW224971   4.507   7.099   4.597 -0.8680 -0.2597  1.6547
 8096SOL     OW24972   5.793   6.515   1.457 -0.1779 -0.1924 -0.7066
 8096SOL    HW124973   5.869   6.457   1.466 -0.3232 -0.5240 -1.5081
 8096SOL    HW224974   5.808   6.561   1.375 -1.2984 -0.9757 -1.3889
 8097SOL     OW24975   6.629   1.289   2.921 -0.4515  0.3802 -0.0162
 8097SOL    HW124976   6.716   1.318   2.949  0.5274 -0.6762 -1.8118
 8097SOL    HW224977   6.582   1.272   3.003  0.9182  1.2383  0.9954
 8098SOL     OW24978   7.741   3.251   6.203 -0.8947  0.2244 -0.1322
 8098SOL    HW124979   7.662   3.228   6.251  0.4330 -2.7880  0.8955
 8098SOL    HW224980   7.720   3.232   6.112 -0.8820 -2.5548  0.3384
 8099SOL     OW24981   5.835   5.086   3.735 -0.1141  0.1379 -0.2534
 8099SOL    HW124982   5.784   5.070   3.656  0.1428 -1.3906 -0.1533
 8099SOL    HW224983   5.789   5.037   3.803  1.3180 -1.0887 -0.1131
 8100SOL     OW24984   4.789   5.919   7.678  0.1790  0.4350  0.4242
 8100SOL    HW124985   4.848   5.957   7.743  1.8920 -1.2806 -0.0583
 8100SOL    HW224986   4.778   5.828   7.705 -0.0565  0.0094 -1.0211
 8101SOL     OW24987   6.491   4.468   6.305  0.6134 -0.0363 -0.0773
 8101SOL    HW124988   6.456   4.407   6.241 -0.5245  1.6495 -1.1542
 8101SOL    HW224989   6.460   4.435   6.390  0.7696 -1.3849 -0.5204
 8102SOL     OW24990   5.740   3.441   6.365  0.2463  0.1978 -0.0324
 8102SOL    HW124991   5.711   3.532   6.361 -1.2506 -0.2033  1.0154
 8102SOL    HW224992   5.699   3.399   6.289  0.1786  0.1834  0.0124
 8103SOL     OW24993   3.968   3.520   2.463 -0.6511  0.1880 -0.4570
 8103SOL    HW124994   3.983   3.599   2.411 -1.4096  2.3547  2.3505
 8103SOL    HW224995   3.876   3.499   2.451 -0.7754  0.5608 -0.1592
 8104SOL     OW24996   1.311   5.186   4.743  0.1104 -0.1968  0.6604
 8104SOL    HW124997   1.335   5.228   4.660  0.9260  0.6513  1.2898
 8104SOL    HW224998   1.221   5.156   4.730  0.2170 -0.0511 -0.5183
 8105SOL     OW24999   6.039   2.270   2.055  0.2549  0.1401  0.1479
 8105SOL    HW125000   6.094   2.348   2.053 -0.8606  0.9560 -0.0644
 8105SOL    HW225001   6.081   2.211   2.118  1.3366  0.7400  0.0006
 8106SOL     OW25002   6.212   7.498   1.583 -0.9687  0.0573 -0.4605
 8106SOL    HW125003   6.169   7.486   1.498 -2.3710  0.1593  0.2063
 8106SOL    HW225004   6.182   7.424   1.635 -1.2042  0.7184  0.3562
 8107SOL     OW25005   6.904   4.175   0.743  0.2260 -0.4798 -0.2433
 8107SOL    HW125006   6.936   4.129   0.666  0.2388 -0.8870 -0.0005
 8107SOL    HW225007   6.827   4.124   0.770  0.1850 -0.3044 -0.0291
 8108SOL     OW25008   3.600   0.482   3.597 -0.0017 -0.6301 -0.0234
 8108SOL    HW125009   3.530   0.523   3.647 -0.0977 -0.0946 -0.5984
 8108SOL    HW225010   3.669   0.466   3.662 -0.1860 -0.0852  0.3149
 8109SOL     OW25011   7.212   3.651   5.161  0.8443  0.7370  0.0990
 8109SOL    HW125012   7.130   3.666   5.114  0.5004  2.5642  1.2059
 8109SOL    HW225013   7.191   3.584   5.226  1.2533 -1.6132 -2.0084
 8110SOL     OW25014   3.115   0.809   3.677 -0.9731  0.2414  0.4918
 8110SOL    HW125015   3.197   0.857   3.684  0.8340 -2.6425  0.4751
 8110SOL    HW225016   3.111   0.780   3.586 -1.7847 -0.0617  0.6097
 8111SOL     OW25017   3.813   3.660   1.023 -0.2620  0.0658  0.0665
 8111SOL    HW125018   3.865   3.722   0.971 -0.5439 -0.1340 -0.4675
 8111SOL    HW225019   3.870   3.636   1.096  0.4052 -0.1542 -0.5133
 8112SOL     OW25020   3.989   1.671   3.179 -0.2814 -0.1665 -0.3043
 8112SOL    HW125021   3.956   1.613   3.111 -1.0000  0.3433 -0.3918
 8112SOL    HW225022   4.066   1.713   3.140  1.5589 -2.5700  0.4500
 8113SOL     OW25023   3.003   1.585   3.413  1.1349 -0.0117 -0.0113
 8113SOL    HW125024   3.037   1.673   3.421  0.6594  0.0204  3.0691
 8113SOL    HW225025   3.073   1.528   3.445  1.2514 -0.7517 -1.4767
 8114SOL     OW25026   1.110   2.176   4.694 -0.4594  0.1385  0.0204
 8114SOL    HW125027   1.105   2.265   4.661 -1.3292  0.7123  1.6012
 8114SOL    HW225028   1.068   2.123   4.627 -1.2467  1.1195 -0.2907
 8115SOL     OW25029   0.542   3.492   0.249 -0.0808 -0.1276 -0.1355
 8115SOL    HW125030   0.456   3.469   0.285  0.7816 -2.7459  0.4959
 8115SOL    HW225031   0.532   3.481   0.155 -0.3203 -1.0326 -0.0204
 8116SOL     OW25032   1.221   5.917   0.578 -0.3299  0.2440 -0.7449
 8116SOL    HW125033   1.223   5.930   0.484  1.5654  1.5509 -0.5819
 8116SOL    HW225034   1.133   5.946   0.605 -0.8918 -0.1687 -2.0791
 8117SOL     OW25035   7.030   7.030   3.818  0.1736  0.4251 -0.3922
 8117SOL    HW125036   7.055   7.106   3.871 -0.6454  0.8076 -0.5388
 8117SOL    HW225037   6.939   7.013   3.843  0.4055 -0.6189 -0.2408
 8118SOL     OW25038   5.053   6.287   3.421  0.8477 -0.2525  0.5261
 8118SOL    HW125039   5.034   6.345   3.494  1.4988 -0.2612  0.7087
 8118SOL    HW225040   5.146   6.300   3.404  0.7901 -0.5497 -0.0413
 8119SOL     OW25041   3.064   6.664   0.711  0.0582  0.1537 -0.3507
 8119SOL    HW125042   3.047   6.727   0.780  0.9947 -1.5358  1.5211
 8119SOL    HW225043   2.995   6.599   0.720  0.4084 -0.2829 -0.7734
 8120SOL     OW25044   6.538   3.222   1.031 -0.8092  0.3962 -0.7053
 8120SOL    HW125045   6.587   3.162   1.087 -1.8006 -2.8554 -3.0253
 8120SOL    HW225046   6.473   3.261   1.089 -0.0869 -0.7290  0.9461
 8121SOL     OW25047   4.693   7.156   2.231  0.9440 -1.2606  0.1181
 8121SOL    HW125048   4.774   7.208   2.229 -0.5807  1.2454 -1.2033
 8121SOL    HW225049   4.687   7.119   2.144 -1.3044  2.0666 -1.3399
 8122SOL     OW25050   0.165   7.661   4.918  0.1200  0.2650 -0.3287
 8122SOL    HW125051   0.260   7.661   4.910  0.0895 -0.3575 -0.7705
 8122SOL    HW225052   0.134   7.646   4.828 -0.4084  1.0863 -0.2979
 8123SOL     OW25053   0.800   7.391   5.810  0.3036  0.3285 -0.2346
 8123SOL    HW125054   0.792   7.372   5.904 -1.3582  0.3704 -0.3354
 8123SOL    HW225055   0.793   7.487   5.805 -3.2523  0.1774 -0.6105
 8124SOL     OW25056   2.429   5.799   3.740  0.3428 -0.1524  0.1368
 8124SOL    HW125057   2.481   5.879   3.734  0.0809  0.0489  0.6062
 8124SOL    HW225058   2.338   5.827   3.732  0.1136 -0.1666  2.2290
 8125SOL     OW25059   7.742   2.118   6.471 -0.2367 -0.0989 -0.0204
 8125SOL    HW125060   7.747   2.208   6.504  1.6134 -0.4248  0.6985
 8125SOL    HW225061   7.804   2.069   6.525 -0.0713 -1.4911 -1.4082
 8126SOL     OW25062   5.891   3.708   6.103  0.3630 -0.1372  0.2740
 8126SOL    HW125063   5.942   3.636   6.140 -1.5027 -0.5029  2.3270
 8126SOL    HW225064   5.897   3.778   6.168  3.1238  2.1912 -2.1812
 8127SOL     OW25065   3.545   4.696   4.693  0.0520 -0.2397  0.2813
 8127SOL    HW125066   3.488   4.668   4.621  1.4081  2.1291 -1.8865
 8127SOL    HW225067   3.598   4.619   4.713 -0.0865 -0.8706 -1.5887
 8128SOL     OW25068   4.135   5.290   7.273 -0.2511  0.4538 -0.1758
 8128SOL    HW125069   4.045   5.318   7.261 -0.3560 -0.7146 -3.0979
 8128SOL    HW225070   4.185   5.340   7.208  1.0070  0.2837  0.6182
 8129SOL     OW25071   1.162   7.669   6.197  0.7759  0.5236 -0.1473
 8129SOL    HW125072   1.181   7.611   6.270 -0.8944  1.1282  0.8258
 8129SOL    HW225073   1.122   7.613   6.131 -1.2010  0.5721  0.9449
 8130SOL     OW25074   6.565   6.650   5.903 -0.4638 -0.3604 -0.1103
 8130SOL    HW125075   6.566   6.715   5.833 -1.0151  0.0076  0.2203
 8130SOL    HW225076   6.656   6.646   5.933  0.0446 -1.4632 -1.6960
 8131SOL     OW25077   1.733   1.448   0.369  0.3059  0.0897 -0.0622
 8131SOL    HW125078   1.765   1.397   0.443  0.5855  0.2363 -0.0806
 8131SOL    HW225079   1.812   1.470   0.320  0.1425  0.1770 -0.2860
 8132SOL     OW25080   6.069   5.364   5.359  0.6230  0.1631 -0.3246
 8132SOL    HW125081   6.052   5.273   5.386 -0.7003  1.1338  2.4994
 8132SOL    HW225082   6.161   5.363   5.331  1.8879 -1.3812  3.2361
 8133SOL     OW25083   5.189   2.224   2.324 -0.1363  0.1239 -0.1322
 8133SOL    HW125084   5.125   2.154   2.337  2.1185 -1.8612  1.0366
 8133SOL    HW225085   5.207   2.256   2.412  1.5171 -0.3973 -0.2453
 8134SOL     OW25086   6.903   5.207   0.152  0.1853  0.3427 -0.4985
 8134SOL    HW125087   6.904   5.125   0.201 -0.8049  0.8944  0.4989
 8134SOL    HW225088   6.845   5.190   0.078 -0.0703  0.1655 -0.2571
 8135SOL     OW25089   3.326   3.465   4.465 -0.2264  0.0423  0.1424
 8135SOL    HW125090   3.368   3.505   4.388  2.0535 -0.9864  0.7585
 8135SOL    HW225091   3.326   3.535   4.531  0.4854  0.0722  0.1152
 8136SOL     OW25092   6.761   6.014   7.209 -0.3710 -0.6419 -0.1344
 8136SOL    HW125093   6.707   6.093   7.213 -0.0458 -0.3097 -1.5950
 8136SOL    HW225094   6.698   5.942   7.209 -0.8198 -0.2790 -1.1571
 8137SOL     OW25095   5.027   6.996   0.800  0.1673 -0.2855  0.4408
 8137SOL    HW125096   5.110   7.017   0.757 -0.3509 -0.6607 -0.7875
 8137SOL    HW225097   5.038   7.028   0.890  0.1409  3.4879 -0.7469
 8138SOL     OW25098   4.523   4.693   6.627  0.3984 -0.0362  0.0901
 8138SOL    HW125099   4.566   4.736   6.700 -0.7043  1.3119  0.0014
 8138SOL    HW225100   4.499   4.765   6.568 -1.0819 -0.8062 -0.3053
 8139SOL     OW25101   5.214   3.000   7.423  0.7613  0.0956  0.2260
 8139SOL    HW125102   5.202   3.066   7.354  0.8671  1.3675  1.3899
 8139SOL    HW225103   5.149   2.932   7.403  3.1886 -1.5379 -3.2829
 8140SOL     OW25104   0.762   0.382   2.318  0.1881  0.3588 -0.1133
 8140SOL    HW125105   0.834   0.437   2.286  1.2403 -0.5955  0.5201
 8140SOL    HW225106   0.729   0.428   2.395  1.2305  0.0219  0.5616
 8141SOL     OW25107   1.227   6.078   4.044  0.0166  0.2495  0.1058
 8141SOL    HW125108   1.267   6.016   4.106  3.2386  0.7979 -1.2073
 8141SOL    HW225109   1.205   6.024   3.968 -2.1737 -0.0879  0.8989
 8142SOL     OW25110   5.354   4.434   6.646  0.0430  0.3550  0.1117
 8142SOL    HW125111   5.268   4.447   6.684  0.8089 -0.1922  2.1512
 8142SOL    HW225112   5.374   4.517   6.603 -0.5805  1.2763  1.5400
 8143SOL     OW25113   4.287   4.953   3.001 -0.4574 -0.4268  0.3341
 8143SOL    HW125114   4.347   5.018   2.965  1.6188 -1.0744  2.4060
 8143SOL    HW225115   4.277   4.888   2.932 -0.4243  0.7017 -0.7708
 8144SOL     OW25116   2.430   7.673   3.494 -0.3925 -0.3381  0.3206
 8144SOL    HW125117   2.509   7.673   3.441 -0.9967  0.0670 -0.6016
 8144SOL    HW225118   2.373   7.608   3.452 -1.7795  1.5879 -0.9562
 8145SOL     OW25119   3.758   2.919   4.957 -0.0364 -0.4615  0.8527
 8145SOL    HW125120   3.721   2.968   4.884  3.3210  1.0888 -0.0147
 8145SOL    HW225121   3.793   2.839   4.918 -0.6278 -0.9589  1.3070
 8146SOL     OW25122   3.989   4.859   3.909 -0.0669 -0.3370  0.0962
 8146SOL    HW125123   4.062   4.890   3.962 -0.0927  0.6845 -0.4488
 8146SOL    HW225124   4.029   4.833   3.826 -0.3791  0.7507 -0.4080
 8147SOL     OW25125   3.151   0.514   6.133 -0.1463 -0.0005 -0.4594
 8147SOL    HW125126   3.203   0.522   6.054 -1.9825 -1.1810 -1.8776
 8147SOL    HW225127   3.215   0.505   6.204  1.5395  0.4906 -1.8568
 8148SOL     OW25128   6.475   1.125   6.845 -0.1071 -0.7357  0.0676
 8148SOL    HW125129   6.415   1.070   6.895 -1.3936 -0.3094 -0.9258
 8148SOL    HW225130   6.495   1.073   6.767 -1.4675  0.2061 -0.9607
 8149SOL     OW25131   5.326   7.300   7.281  0.3167 -0.1502  0.1821
 8149SOL    HW125132   5.273   7.225   7.308 -1.7365  0.5527 -1.6051
 8149SOL    HW225133   5.389   7.264   7.219 -1.3453 -0.3250 -1.4915
 8150SOL     OW25134   3.098   3.185   7.423 -0.5339 -0.0202 -0.0311
 8150SOL    HW125135   3.138   3.100   7.407 -0.4960 -0.5789  2.5782
 8150SOL    HW225136   3.012   3.165   7.461 -1.1877  1.1330 -0.8262
 8151SOL     OW25137   6.587   4.162   1.932  0.1092  0.4414  0.0981
 8151SOL    HW125138   6.593   4.220   1.856 -0.2306 -1.7034 -1.6642
 8151SOL    HW225139   6.635   4.084   1.906  0.2905 -0.2313  2.2759
 8152SOL     OW25140   3.935   5.590   6.990 -0.4100  0.0097 -0.2954
 8152SOL    HW125141   3.863   5.639   6.950 -0.3397 -1.7854 -2.8636
 8152SOL    HW225142   3.901   5.501   6.998  1.0145 -0.5447 -0.1827
 8153SOL     OW25143   3.790   6.421   1.513 -0.0415 -0.0469  0.4184
 8153SOL    HW125144   3.768   6.466   1.595  1.2104  0.1536  0.6604
 8153SOL    HW225145   3.791   6.491   1.447 -1.5408 -0.2809  0.1040
 8154SOL     OW25146   3.534   1.882   3.730  0.2429  0.2607  0.1930
 8154SOL    HW125147   3.532   1.789   3.753 -1.3857  0.9093  3.0854
 8154SOL    HW225148   3.623   1.897   3.698  0.9317 -2.0268  0.8477
 8155SOL     OW25149   1.616   7.286   3.757 -0.2633 -0.3113  0.6543
 8155SOL    HW125150   1.678   7.283   3.829  0.8448  2.2793 -0.0947
 8155SOL    HW225151   1.531   7.298   3.799  0.1734 -0.3357  1.5635
 8156SOL     OW25152   6.118   5.713   1.423  0.0076  0.3582  0.3967
 8156SOL    HW125153   6.054   5.784   1.427 -0.1098  0.2381  0.7033
 8156SOL    HW225154   6.203   5.757   1.427 -0.0623  0.4940  0.3919
 8157SOL     OW25155   0.653   0.482   3.656 -0.8231 -0.0298  0.2955
 8157SOL    HW125156   0.564   0.516   3.670 -0.6923 -0.1210  1.3983
 8157SOL    HW225157   0.704   0.559   3.628 -1.1497  0.1000  0.0448
 8158SOL     OW25158   0.047   6.451   6.748 -0.2089 -0.7404 -0.0984
 8158SOL    HW125159   0.053   6.541   6.715  0.2942 -0.5044  0.6285
 8158SOL    HW225160   0.007   6.403   6.676 -2.1619  0.4056  0.1569
 8159SOL     OW25161   1.285   2.080   1.436 -0.2750  0.4802 -0.5207
 8159SOL    HW125162   1.256   2.151   1.379 -0.8455  1.3091  0.7538
 8159SOL    HW225163   1.277   2.001   1.382 -1.5803  1.1297 -1.3243
 8160SOL     OW25164   3.467   2.288   5.584 -0.0938  0.0588 -0.5047
 8160SOL    HW125165   3.381   2.248   5.575 -0.4565  0.8114 -0.5055
 8160SOL    HW225166   3.452   2.381   5.564  0.5649  0.3424  0.2694
 8161SOL     OW25167   0.620   2.270   7.446 -0.1994  0.0778 -0.7240
 8161SOL    HW125168   0.623   2.325   7.525  1.2575 -0.1296 -0.6021
 8161SOL    HW225169   0.535   2.289   7.406  0.3861  2.7005 -0.8811
 8162SOL     OW25170   1.061   0.082   0.641  0.8410 -0.5673 -0.2121
 8162SOL    HW125171   1.048  -0.012   0.629  0.9396 -0.3943 -1.8781
 8162SOL    HW225172   1.134   0.104   0.584  1.4859  0.3594  0.9335
 8163SOL     OW25173   5.648   0.269   4.659  0.6174 -0.5598  0.3356
 8163SOL    HW125174   5.679   0.357   4.679  0.2933 -0.6111  1.0756
 8163SOL    HW225175   5.575   0.283   4.599  0.8667 -0.3546  0.0738
 8164SOL     OW25176   2.323   7.681   2.004  0.2234  0.3048  0.0639
 8164SOL    HW125177   2.417   7.670   2.012  0.0661 -2.6144 -0.9285
 8164SOL    HW225178   2.310   7.718   1.917  0.4256 -0.9772 -0.5346
 8165SOL     OW25179   4.741   1.242   3.756  0.5708 -0.0352  0.0796
 8165SOL    HW125180   4.763   1.150   3.740  0.4871 -0.2986  1.3632
 8165SOL    HW225181   4.783   1.262   3.840 -0.3132  0.7822  0.3433
 8166SOL     OW25182   5.783   7.336   2.136 -0.3952  0.5790 -0.1354
 8166SOL    HW125183   5.707   7.356   2.191 -0.8129 -1.1432 -0.0227
 8166SOL    HW225184   5.846   7.294   2.195 -0.0853  0.4012 -0.5817
 8167SOL     OW25185   1.929   2.424   2.290 -0.7429 -0.0560  0.0179
 8167SOL    HW125186   1.937   2.507   2.243  0.0589 -0.1146  0.0471
 8167SOL    HW225187   1.929   2.358   2.221 -0.1562 -0.1069  0.0681
 8168SOL     OW25188   7.430   5.757   1.402  0.6963  0.0612 -0.1824
 8168SOL    HW125189   7.522   5.774   1.421  0.5221 -0.1278  0.8615
 8168SOL    HW225190   7.384   5.780   1.482 -0.1949  0.3312 -0.7565
 8169SOL     OW25191   1.488   3.696   2.390 -0.4349 -0.2531  0.6477
 8169SOL    HW125192   1.466   3.651   2.309  1.7441  0.4828 -0.4311
 8169SOL    HW225193   1.406   3.736   2.418 -1.5341 -1.6351 -0.4469
 8170SOL     OW25194   1.421   4.910   4.987  0.5126  0.1875 -0.1364
 8170SOL    HW125195   1.363   4.873   5.053  0.2482 -0.0072 -0.4760
 8170SOL    HW225196   1.502   4.859   4.996  0.1088 -0.5765 -0.6867
 8171SOL     OW25197   3.164   1.802   6.347  0.1305 -0.3074  0.5845
 8171SOL    HW125198   3.097   1.823   6.283  1.4288 -0.2712 -0.8259
 8171SOL    HW225199   3.170   1.707   6.345  0.9789 -0.2532 -0.2537
 8172SOL     OW25200   7.359   0.909   5.295 -0.6648  0.2006 -0.7433
 8172SOL    HW125201   7.345   0.827   5.249  1.8325 -1.4583  1.1997
 8172SOL    HW225202   7.300   0.905   5.370 -0.4022  0.0814 -0.5416
 8173SOL     OW25203   7.151   3.295   3.833  0.3199 -0.6852 -0.6168
 8173SOL    HW125204   7.184   3.381   3.859  0.0808 -0.7001 -0.2503
 8173SOL    HW225205   7.115   3.309   3.746 -2.2582  0.2796  0.4913
 8174SOL     OW25206   1.602   3.661   6.826 -0.2442  0.3245  0.0581
 8174SOL    HW125207   1.593   3.748   6.864 -0.0012  0.9871 -1.3296
 8174SOL    HW225208   1.696   3.644   6.824 -0.2953 -0.0216  0.4247
 8175SOL     OW25209   3.030   5.607   6.881 -0.5823 -0.5596  0.0172
 8175SOL    HW125210   3.029   5.524   6.928 -0.9021 -1.1251 -0.9695
 8175SOL    HW225211   3.115   5.646   6.902 -0.2860 -1.3000  0.2047
 8176SOL     OW25212   6.876   3.782   6.247  0.0542 -0.4774 -0.4535
 8176SOL    HW125213   6.952   3.739   6.286 -1.2136 -2.6863 -0.2725
 8176SOL    HW225214   6.840   3.835   6.319  0.7509 -0.3083 -0.2167
 8177SOL     OW25215   0.794   3.257   7.521  0.1712  0.3907 -0.1321
 8177SOL    HW125216   0.808   3.339   7.473 -1.5720 -0.0469 -1.4805
 8177SOL    HW225217   0.881   3.217   7.524  0.6245  1.1486 -1.6157
 8178SOL     OW25218   7.087   1.261   4.766  0.3263  0.0629 -0.4400
 8178SOL    HW125219   7.057   1.250   4.856 -0.5710  1.2375 -0.5861
 8178SOL    HW225220   7.007   1.267   4.714  0.8357 -0.2178 -1.2806
 8179SOL     OW25221   7.438   5.818   2.235  0.3907  0.2413  0.8011
 8179SOL    HW125222   7.449   5.881   2.307 -0.0956  0.3708  0.7699
 8179SOL    HW225223   7.370   5.758   2.267 -0.0344  0.4664  0.3420
 8180SOL     OW25224   5.482   4.906   2.902  0.0555 -0.0753  0.2929
 8180SOL    HW125225   5.399   4.877   2.864 -0.6772  1.0413  0.9796
 8180SOL    HW225226   5.519   4.965   2.837  0.6451 -1.0575 -0.2910
 8181SOL     OW25227   7.176   0.364   5.206  0.0616  0.2643  0.2686
 8181SOL    HW125228   7.163   0.327   5.119 -0.1290 -0.3794  0.5717
 8181SOL    HW225229   7.096   0.344   5.254 -0.4360  1.8447  0.1767
 8182SOL     OW25230   5.800   3.384   1.973  0.4397  0.5529  0.2750
 8182SOL    HW125231   5.756   3.420   2.050 -0.6066  0.3709 -0.2152
 8182SOL    HW225232   5.733   3.331   1.929  1.3543 -0.3290 -0.1247
 8183SOL     OW25233   4.964   5.471   1.380  0.1728 -0.8124 -0.1073
 8183SOL    HW125234   4.943   5.529   1.453 -0.3150 -0.1935 -0.7248
 8183SOL    HW225235   4.961   5.527   1.302 -0.0584 -1.6110 -0.6955
 8184SOL     OW25236   6.502   3.462   5.862  0.0026 -0.2329 -0.1836
 8184SOL    HW125237   6.467   3.408   5.792  1.4868 -1.5391  0.0288
 8184SOL    HW225238   6.557   3.526   5.817 -0.1859 -0.1515 -0.3007
 8185SOL     OW25239   3.353   6.099   6.283 -0.1211  0.2898  0.0386
 8185SOL    HW125240   3.344   6.074   6.375 -0.1897 -1.2771 -0.3667
 8185SOL    HW225241   3.396   6.024   6.242 -0.1365  0.9410 -1.2261
 8186SOL     OW25242   4.019   2.890   0.395 -0.1994  0.0253  0.4504
 8186SOL    HW125243   4.032   2.952   0.323 -2.7381  0.9027  0.6630
 8186SOL    HW225244   4.056   2.808   0.362 -0.2804  0.6803 -1.4165
 8187SOL     OW25245   0.480   1.529   0.519  0.3479 -0.1407  0.0584
 8187SOL    HW125246   0.408   1.524   0.582 -0.2519 -1.1202 -0.6749
 8187SOL    HW225247   0.528   1.447   0.531 -0.4679 -0.9113 -1.5174
 8188SOL     OW25248   7.677   7.184   1.564  0.2062  0.5788 -0.1839
 8188SOL    HW125249   7.721   7.099   1.556  0.8067  0.8522  0.1324
 8188SOL    HW225250   7.622   7.174   1.642 -0.0642  0.3384 -0.4011
 8189SOL     OW25251   4.916   4.109   0.169  0.4265  0.4103 -0.2565
 8189SOL    HW125252   5.003   4.148   0.177  0.2127  0.6557  1.0799
 8189SOL    HW225253   4.856   4.180   0.191 -0.0135 -0.2990  0.9497
 8190SOL     OW25254   6.198   5.104   5.784 -0.1777  0.5788 -0.1094
 8190SOL    HW125255   6.180   5.036   5.719  1.7526 -2.6115  2.3797
 8190SOL    HW225256   6.113   5.125   5.822 -0.7297 -1.3419 -0.1803
 8191SOL     OW25257   0.762   1.744   1.651  0.0634 -0.1793  0.1244
 8191SOL    HW125258   0.720   1.741   1.565 -1.6265  0.2908  0.8929
 8191SOL    HW225259   0.815   1.823   1.650  1.0126 -0.8050 -0.8836
 8192SOL     OW25260   7.075   2.319   4.856  0.0840 -0.5044 -0.3238
 8192SOL    HW125261   7.020   2.277   4.922 -0.5840  3.3879  1.9093
 8192SOL    HW225262   7.016   2.336   4.783 -0.5004 -0.3676  0.1732
 8193SOL     OW25263   6.837   7.129   0.179  0.2792  0.2588  0.1652
 8193SOL    HW125264   6.897   7.079   0.235  1.5084 -0.2441 -1.5123
 8193SOL    HW225265   6.777   7.064   0.143  0.2496  0.3912 -0.0270
 8194SOL     OW25266   3.588   5.380   6.328  0.1452 -0.0012  0.0739
 8194SOL    HW125267   3.675   5.341   6.316  0.3959  0.7556 -0.7151
 8194SOL    HW225268   3.544   5.365   6.244 -0.1527  0.4311  0.1511
 8195SOL     OW25269   5.366   5.236   0.399  0.1978 -0.2985 -0.1450
 8195SOL    HW125270   5.397   5.284   0.476 -1.2414  1.7916 -0.7912
 8195SOL    HW225271   5.445   5.223   0.346  1.0513 -0.9940  1.2264
 8196SOL     OW25272   6.625   1.823   1.899  0.7735 -0.2283 -0.3180
 8196SOL    HW125273   6.560   1.891   1.916  2.0069  0.4571  2.1012
 8196SOL    HW225274   6.669   1.851   1.819 -0.8336  0.1006 -1.1194
 8197SOL     OW25275   0.160   6.882   4.248  0.2532 -0.1183  0.1882
 8197SOL    HW125276   0.073   6.849   4.228 -0.1661 -0.9523  2.9790
 8197SOL    HW225277   0.219   6.810   4.226  0.0152 -0.3488  0.3081
 8198SOL     OW25278   0.169   4.967   1.640  0.3852  0.0685  0.8935
 8198SOL    HW125279   0.185   5.049   1.687  1.2544  1.0253 -0.9622
 8198SOL    HW225280   0.081   4.977   1.605  0.6188  0.3656  0.3841
 8199SOL     OW25281   1.654   6.807   2.973 -0.0826 -0.3529  0.0955
 8199SOL    HW125282   1.563   6.788   2.953 -0.0998 -0.4656  0.2767
 8199SOL    HW225283   1.651   6.894   3.014 -0.1628 -0.5402  0.5005
 8200SOL     OW25284   4.300   5.010   5.368  0.2747  0.5812  0.6791
 8200SOL    HW125285   4.217   4.971   5.341 -0.1840  1.0195  1.4386
 8200SOL    HW225286   4.301   5.000   5.463  1.4408 -0.1058  0.6100
 8201SOL     OW25287   6.471   1.739   5.550 -0.1995 -0.3132  0.2762
 8201SOL    HW125288   6.536   1.717   5.484  0.2228 -0.1263  0.6197
 8201SOL    HW225289   6.504   1.698   5.630 -0.6811 -0.5020  0.3790
 8202SOL     OW25290   4.778   5.317   2.002  0.5011 -0.0350  0.1439
 8202SOL    HW125291   4.792   5.316   2.097 -2.2674  0.8422  0.6600
 8202SOL    HW225292   4.763   5.225   1.979  0.3869 -0.1655  0.7117
 8203SOL     OW25293   4.801   7.160   0.947 -0.4957  0.2276  0.2064
 8203SOL    HW125294   4.790   7.073   0.910 -1.4846  0.4235  0.0283
 8203SOL    HW225295   4.784   7.220   0.874 -1.6296  0.6007  0.7534
 8204SOL     OW25296   0.581   1.318   7.767 -0.1484  0.0310 -0.0242
 8204SOL    HW125297   0.540   1.354   7.688 -2.7555  3.3659  2.5247
 8204SOL    HW225298   0.668   1.359   7.770  0.0821 -0.3417 -1.2390
 8205SOL     OW25299   6.951   5.538   4.876  0.1737 -0.1317 -0.1709
 8205SOL    HW125300   6.886   5.536   4.947 -1.0296  0.3653 -1.2324
 8205SOL    HW225301   6.933   5.459   4.825  0.2183  0.1511 -0.6282
 8206SOL     OW25302   0.892   4.542   2.751 -0.0635 -0.1354 -0.0763
 8206SOL    HW125303   0.856   4.610   2.694 -1.7220 -2.0009 -1.4289
 8206SOL    HW225304   0.949   4.589   2.812  0.4358  2.1831 -2.1686
 8207SOL     OW25305   3.810   5.131   3.747 -0.0518 -0.0319  0.4485
 8207SOL    HW125306   3.889   5.183   3.761  1.2760 -1.6019 -0.7693
 8207SOL    HW225307   3.802   5.124   3.651 -0.5633 -1.4930  0.5727
 8208SOL     OW25308   3.134   3.209   6.295  0.2299  0.4770  0.2097
 8208SOL    HW125309   3.137   3.303   6.312  0.3290  0.9106 -1.9435
 8208SOL    HW225310   3.210   3.174   6.341  0.4239  1.5031  0.7014
 8209SOL     OW25311   0.183   5.378   4.315  0.4775  0.7897  0.4934
 8209SOL    HW125312   0.144   5.363   4.401  1.1553  1.7573  0.9821
 8209SOL    HW225313   0.153   5.465   4.290 -0.5554  0.1188 -0.7297
 8210SOL     OW25314   1.289   5.403   6.432 -0.5692  0.3055 -0.0683
 8210SOL    HW125315   1.253   5.470   6.373 -2.1055  0.3340  0.8474
 8210SOL    HW225316   1.214   5.375   6.484  0.1127 -1.8995 -0.1891
 8211SOL     OW25317   1.833   1.199   0.155 -0.0408 -0.5483 -0.2694
 8211SOL    HW125318   1.843   1.132   0.223 -3.3123 -1.2819 -0.3351
 8211SOL    HW225319   1.752   1.244   0.179 -1.1402 -0.5987 -3.4425
 8212SOL     OW25320   0.610   4.050   0.765  0.0447  0.2400  0.2859
 8212SOL    HW125321   0.682   3.997   0.798 -0.2609 -0.1133  0.3879
 8212SOL    HW225322   0.602   4.024   0.673  1.4602  1.8387 -0.3465
 8213SOL     OW25323   4.620   2.562   0.789  0.3259 -0.3159  0.4933
 8213SOL    HW125324   4.706   2.592   0.821 -1.0907  1.8643  2.6139
 8213SOL    HW225325   4.573   2.535   0.868 -1.9827  1.4836 -0.1608
 8214SOL     OW25326   1.199   6.308   4.579 -0.1680 -0.0638 -0.6008
 8214SOL    HW125327   1.278   6.285   4.629 -1.4750 -2.8340  0.3674
 8214SOL    HW225328   1.226   6.302   4.488  0.4014 -2.6909 -0.3265
 8215SOL     OW25329   2.037   1.700   3.737  0.1417  0.0747 -0.8774
 8215SOL    HW125330   2.028   1.668   3.647  0.6723 -0.1339 -0.8584
 8215SOL    HW225331   2.036   1.795   3.728  2.1043  0.1065 -1.3364
 8216SOL     OW25332   0.131   6.488   2.626  0.6686  0.8901  0.3080
 8216SOL    HW125333   0.073   6.493   2.550  2.5606  0.6270 -1.2137
 8216SOL    HW225334   0.179   6.570   2.625  0.4564  1.0617  1.5043
 8217SOL     OW25335   0.763   0.846   5.911 -0.6170  0.1251 -0.3328
 8217SOL    HW125336   0.838   0.903   5.930 -0.7334  0.3239 -0.4703
 8217SOL    HW225337   0.788   0.761   5.949 -0.2353  0.1357 -0.5562
 8218SOL     OW25338   2.784   0.505   7.464  0.1087 -0.1938  0.0752
 8218SOL    HW125339   2.725   0.573   7.497 -2.0044 -0.7453 -2.2601
 8218SOL    HW225340   2.793   0.524   7.371  2.3009 -1.1740  0.0099
 8219SOL     OW25341   2.266   4.855   7.615  0.6217 -0.0775  0.2279
 8219SOL    HW125342   2.344   4.866   7.560  1.4970  0.5310  1.5477
 8219SOL    HW225343   2.268   4.763   7.641  2.2947  0.4657  2.2223
 8220SOL     OW25344   5.033   4.907   7.063 -0.2154 -0.5758 -0.1797
 8220SOL    HW125345   4.958   4.929   7.008  0.6768  0.2785 -1.0759
 8220SOL    HW225346   5.037   4.811   7.060 -1.9734 -0.7364  0.8630
 8221SOL     OW25347   4.404   1.654   0.530 -0.8255 -0.4392  0.2918
 8221SOL    HW125348   4.476   1.709   0.499 -1.3198 -0.7515 -1.4880
 8221SOL    HW225349   4.446   1.589   0.586  0.0343  0.4546  0.7081
 8222SOL     OW25350   2.747   3.609   3.360 -0.2049 -0.1120 -0.1873
 8222SOL    HW125351   2.673   3.640   3.308  0.0781  1.4627  0.2768
 8222SOL    HW225352   2.713   3.534   3.409 -1.0328 -0.3713 -1.1388
 8223SOL     OW25353   5.313   6.997   0.972 -0.0840 -0.0919  0.1842
 8223SOL    HW125354   5.275   7.058   1.035  0.7796 -0.3092  0.9316
 8223SOL    HW225355   5.269   6.914   0.989 -0.9561  0.1995 -0.5524
 8224SOL     OW25356   1.323   1.366   5.584  0.7163  0.0580 -0.0243
 8224SOL    HW125357   1.383   1.440   5.576 -0.6712  1.0634 -1.6685
 8224SOL    HW225358   1.324   1.345   5.678 -0.0227  3.1884  0.8070
 8225SOL     OW25359   4.845   2.371   6.831 -0.2721 -0.0196 -0.1071
 8225SOL    HW125360   4.757   2.376   6.793 -0.0031  1.4643 -0.6026
 8225SOL    HW225361   4.853   2.280   6.859 -2.0286 -0.1527  0.1139
 8226SOL     OW25362   2.753   4.469   7.761 -0.6259 -0.1508 -0.4029
 8226SOL    HW125363   2.696   4.452   7.836 -0.2637  0.7390  0.0808
 8226SOL    HW225364   2.703   4.438   7.686  0.2969 -4.2695  0.4172
 8227SOL     OW25365   5.941   3.122   1.106  0.0147 -0.0677 -0.1388
 8227SOL    HW125366   5.845   3.119   1.100 -0.0510  0.5538  0.5033
 8227SOL    HW225367   5.962   3.071   1.184  0.2977 -1.1603 -0.9052
 8228SOL     OW25368   3.935   4.674   4.638 -0.2143  0.9060  0.1960
 8228SOL    HW125369   3.862   4.729   4.611 -0.5816  0.4516  0.2539
 8228SOL    HW225370   3.904   4.585   4.624 -0.2490  0.6626  1.6618
 8229SOL     OW25371   7.500   1.879   1.981  0.0670 -0.2292 -0.0197
 8229SOL    HW125372   7.501   1.795   1.934  0.5568 -0.8522  1.0446
 8229SOL    HW225373   7.589   1.889   2.013 -0.0442  0.6071  0.0391
 8230SOL     OW25374   5.027   0.214   4.437  0.2875  0.3766 -0.1012
 8230SOL    HW125375   5.052   0.150   4.504  2.1683  1.1352  0.0064
 8230SOL    HW225376   5.066   0.180   4.356 -1.3387 -0.1546 -0.6934
 8231SOL     OW25377   6.135   7.429   6.263  0.3005 -0.1812  0.0094
 8231SOL    HW125378   6.102   7.356   6.210 -0.3940 -0.5307  0.8987
 8231SOL    HW225379   6.111   7.507   6.213 -1.4060 -0.4536  0.3590
 8232SOL     OW25380   5.990   4.022   2.358  0.0964 -0.1993 -0.1375
 8232SOL    HW125381   6.021   4.020   2.449 -0.5992 -0.2329  0.1006
 8232SOL    HW225382   5.974   4.115   2.340  0.8897 -0.1133 -0.4588
 8233SOL     OW25383   1.502   3.016   2.489 -0.0598  0.0543  0.7452
 8233SOL    HW125384   1.510   2.964   2.409  0.8194  0.5371  0.4987
 8233SOL    HW225385   1.550   3.097   2.469  1.1443 -0.2833  2.1339
 8234SOL     OW25386   2.450   2.813   1.041 -0.1614  0.4596  0.3335
 8234SOL    HW125387   2.396   2.791   0.965 -0.3377  0.1189  0.5562
 8234SOL    HW225388   2.538   2.825   1.004  0.2022 -1.7213  0.3112
 8235SOL     OW25389   5.443   6.385   3.596 -0.0303 -0.1499  0.0377
 8235SOL    HW125390   5.459   6.306   3.648 -0.7226 -0.3184 -0.0044
 8235SOL    HW225391   5.521   6.439   3.611 -0.9535  0.5890  2.6992
 8236SOL     OW25392   4.109   3.727   2.982  0.1435  0.1068  0.1103
 8236SOL    HW125393   4.178   3.731   3.049 -0.1409  1.0749  0.3686
 8236SOL    HW225394   4.088   3.634   2.975  0.9798 -0.1316  0.5389
 8237SOL     OW25395   5.019   6.241   3.732 -0.2303 -0.3544  0.0850
 8237SOL    HW125396   4.962   6.318   3.727 -0.7928 -0.6036  1.7743
 8237SOL    HW225397   5.090   6.267   3.790 -0.4393 -1.0944  0.6943
 8238SOL     OW25398   6.752   7.386   6.599 -0.3701  0.0024 -0.0758
 8238SOL    HW125399   6.808   7.412   6.526 -0.3561 -2.1368 -0.8885
 8238SOL    HW225400   6.803   7.321   6.647 -1.9336 -1.7280 -0.6244
 8239SOL     OW25401   1.628   3.978   4.299  0.5955 -0.5387 -0.1840
 8239SOL    HW125402   1.698   3.978   4.235 -0.1880  1.2806 -1.1156
 8239SOL    HW225403   1.547   3.984   4.247 -0.0696  0.7552  0.9421
 8240SOL     OW25404   5.076   4.540   0.233  0.2083 -0.4131 -0.0824
 8240SOL    HW125405   4.994   4.491   0.241 -0.0268  0.0722  0.5863
 8240SOL    HW225406   5.091   4.575   0.321 -0.0774  1.4047 -0.7117
 8241SOL     OW25407   3.914   1.622   1.900 -0.1298  0.5008 -0.3802
 8241SOL    HW125408   3.921   1.676   1.822  0.3569  1.2439  0.1675
 8241SOL    HW225409   3.999   1.579   1.908  0.4096  1.6891  0.6286
 8242SOL     OW25410   2.721   2.794   4.432  0.2230  0.2333 -0.5897
 8242SOL    HW125411   2.631   2.805   4.461 -0.0276 -0.7434 -0.9844
 8242SOL    HW225412   2.724   2.834   4.345 -0.1815 -0.9044 -1.1505
 8243SOL     OW25413   6.418   7.405   6.288 -0.2720  0.1557  0.2537
 8243SOL    HW125414   6.413   7.362   6.202  0.8920  2.1390 -0.8797
 8243SOL    HW225415   6.332   7.444   6.300 -0.2531  0.3851 -0.3134
 8244SOL     OW25416   4.876   0.213   6.947 -0.4109  0.0085 -0.1655
 8244SOL    HW125417   4.858   0.286   7.006  0.6059 -0.3651  0.6311
 8244SOL    HW225418   4.794   0.200   6.899 -1.6329 -0.3305  1.8787
 8245SOL     OW25419   0.548   4.828   7.565  0.8572  0.2632  0.1012
 8245SOL    HW125420   0.524   4.914   7.601  1.2935  0.4551 -0.0585
 8245SOL    HW225421   0.600   4.787   7.633  2.6430  1.0802 -0.7103
 8246SOL     OW25422   7.193   7.414   4.653 -0.0305 -0.3059  0.2532
 8246SOL    HW125423   7.208   7.402   4.747  1.0455 -0.7702  0.0337
 8246SOL    HW225424   7.098   7.405   4.643 -0.1394 -0.4135  1.2697
 8247SOL     OW25425   4.491   4.653   5.484  0.3462 -0.2767  0.3786
 8247SOL    HW125426   4.542   4.729   5.458 -0.3392 -0.3769 -1.4080
 8247SOL    HW225427   4.418   4.689   5.534  0.4629  0.1564  0.2433
 8248SOL     OW25428   0.298   5.852   0.109 -0.0416  0.2392 -0.4013
 8248SOL    HW125429   0.267   5.925   0.056  2.1730  0.7867 -1.0794
 8248SOL    HW225430   0.394   5.858   0.103  0.2279 -2.6610 -0.4061
 8249SOL     OW25431   5.253   5.119   0.718 -0.0891 -0.7031 -0.8204
 8249SOL    HW125432   5.285   5.185   0.657 -1.3014 -0.2048 -0.9363
 8249SOL    HW225433   5.329   5.064   0.736  1.8439  2.4332  1.5963
 8250SOL     OW25434   1.361   0.043   6.078 -0.6307 -0.6342  0.3777
 8250SOL    HW125435   1.287   0.011   6.129 -0.8406  2.2809  2.1956
 8250SOL    HW225436   1.418   0.085   6.143  0.4026  1.0235 -1.4731
 8251SOL     OW25437   5.313   4.849   5.592 -1.0217  0.4245 -0.1738
 8251SOL    HW125438   5.289   4.917   5.655  1.2481 -0.4259  1.7641
 8251SOL    HW225439   5.237   4.790   5.590 -2.7806  2.6009 -1.4425
 8252SOL     OW25440   7.035   4.442   0.612  0.3074  0.4908 -0.1282
 8252SOL    HW125441   7.019   4.360   0.659 -1.1011 -0.3806 -2.0105
 8252SOL    HW225442   7.005   4.510   0.672 -0.2126 -0.4853  0.7622
 8253SOL     OW25443   1.885   0.793   5.431  0.1914 -0.0725  0.4050
 8253SOL    HW125444   1.906   0.704   5.459  1.6555 -0.0476 -0.5705
 8253SOL    HW225445   1.947   0.813   5.362  0.0924  1.8354  0.8052
 8254SOL     OW25446   0.163   6.682   1.734  0.9244  0.0809  0.3140
 8254SOL    HW125447   0.106   6.606   1.748  0.4099  0.2697 -0.6383
 8254SOL    HW225448   0.179   6.717   1.822  0.3266 -0.5307  0.6771
 8255SOL     OW25449   5.890   7.183   4.979 -0.1595  0.1918 -0.0861
 8255SOL    HW125450   5.951   7.231   5.035  0.3408  2.7050 -2.5671
 8255SOL    HW225451   5.817   7.160   5.038  1.1317  1.0287  1.9614
 8256SOL     OW25452   4.303   7.368   1.951 -0.0632  0.1646 -0.3363
 8256SOL    HW125453   4.290   7.326   1.865  0.8816  0.0210 -0.4287
 8256SOL    HW225454   4.306   7.295   2.013 -1.9828  0.3455  0.0075
 8257SOL     OW25455   1.561   1.461   4.189 -0.2823  0.1968  0.7839
 8257SOL    HW125456   1.648   1.486   4.159  0.0080  0.5066  1.8702
 8257SOL    HW225457   1.531   1.535   4.242 -1.2947  0.1848  0.2692
 8258SOL     OW25458   1.456   2.599   4.626 -0.0253  0.2443  0.0037
 8258SOL    HW125459   1.415   2.610   4.541 -1.6522  1.2516  0.8657
 8258SOL    HW225460   1.538   2.553   4.608  0.1140  1.2440 -2.1919
 8259SOL     OW25461   0.986   5.832   6.966  0.1132  0.0513  0.2221
 8259SOL    HW125462   1.021   5.829   6.877  0.8019  0.1499  0.4831
 8259SOL    HW225463   0.959   5.742   6.984  0.3255 -0.0492  0.0437
 8260SOL     OW25464   3.682   7.180   3.682  0.0182  0.5830  0.1836
 8260SOL    HW125465   3.609   7.177   3.621  0.8804 -0.4851 -0.8349
 8260SOL    HW225466   3.734   7.256   3.654  0.5048 -0.0074 -0.5402
 8261SOL     OW25467   4.683   7.095   1.438 -0.2684 -0.2657 -0.1019
 8261SOL    HW125468   4.723   7.148   1.507  0.7549 -1.0317 -0.0823
 8261SOL    HW225469   4.683   7.152   1.361  1.2184 -0.3515 -0.1971
 8262SOL     OW25470   2.928   3.287   3.778  0.1522  0.0541 -0.6797
 8262SOL    HW125471   2.978   3.218   3.733  0.3365  0.9390 -1.8825
 8262SOL    HW225472   2.976   3.367   3.759  1.3400  0.3084  2.7092
 8263SOL     OW25473   4.391   0.949   2.199 -0.1254 -0.6712 -0.4147
 8263SOL    HW125474   4.486   0.951   2.210 -0.3358  0.9463  1.9622
 8263SOL    HW225475   4.367   1.040   2.179 -1.2025 -0.9434 -0.4283
 8264SOL     OW25476   7.128   0.838   3.992 -0.4004 -0.4381 -0.0407
 8264SOL    HW125477   7.112   0.744   3.981  1.9125 -1.1196  1.5007
 8264SOL    HW225478   7.223   0.846   3.987 -0.4853  1.6721  0.8943
 8265SOL     OW25479   2.987   3.532   7.045  0.1510  0.0849 -0.1437
 8265SOL    HW125480   3.050   3.520   6.974 -0.2008  1.1851 -0.6619
 8265SOL    HW225481   3.031   3.495   7.122  0.1241 -2.0951 -1.0867
 8266SOL     OW25482   6.849   5.543   3.853 -0.0955 -0.6955 -0.1517
 8266SOL    HW125483   6.901   5.584   3.922 -0.4572 -1.2336  0.4475
 8266SOL    HW225484   6.809   5.467   3.895 -1.5005 -0.2052 -0.5690
 8267SOL     OW25485   6.069   4.706   4.225  0.0706 -0.5313 -0.2982
 8267SOL    HW125486   5.987   4.734   4.265  0.5219 -1.1070  1.0891
 8267SOL    HW225487   6.042   4.648   4.153 -0.7410 -1.5937  0.8237
 8268SOL     OW25488   6.731   2.020   1.513  0.3145  0.1303 -0.0133
 8268SOL    HW125489   6.802   2.053   1.458 -0.3803  1.5013 -0.1209
 8268SOL    HW225490   6.762   1.934   1.543  1.8681  0.5545 -0.3131
 8269SOL     OW25491   1.629   6.715   6.869 -0.0481 -0.5727 -0.0510
 8269SOL    HW125492   1.639   6.720   6.965 -0.2709 -0.8326 -0.0163
 8269SOL    HW225493   1.716   6.691   6.838  0.7799  2.1027 -0.1214
 8270SOL     OW25494   6.052   7.464   5.434  0.2099 -0.0139 -0.4389
 8270SOL    HW125495   6.122   7.400   5.423  2.2506  2.0093 -0.1206
 8270SOL    HW225496   6.072   7.532   5.370 -0.7231  1.2260  0.5414
 8271SOL     OW25497   2.536   5.208   1.167 -0.3298 -0.0303  0.3375
 8271SOL    HW125498   2.602   5.139   1.170 -1.2270 -0.9561 -0.4664
 8271SOL    HW225499   2.507   5.219   1.258 -2.5392 -3.0932  0.1350
 8272SOL     OW25500   6.994   4.806   5.469  0.3158 -0.1578  0.4164
 8272SOL    HW125501   7.063   4.868   5.443  0.9561 -1.3431 -0.8401
 8272SOL    HW225502   7.024   4.771   5.553  0.9481 -0.2045  0.1806
 8273SOL     OW25503   4.110   6.252   1.444 -0.5837 -0.1271 -0.0315
 8273SOL    HW125504   4.027   6.205   1.439 -0.1109 -1.0810  0.7353
 8273SOL    HW225505   4.153   6.217   1.522  0.5504  0.3319 -0.4232
 8274SOL     OW25506   4.802   5.085   6.309 -0.3432  0.3475  0.0950
 8274SOL    HW125507   4.708   5.100   6.319 -0.4770 -1.4228  2.4447
 8274SOL    HW225508   4.842   5.171   6.317 -1.7360  1.1143 -0.8800
 8275SOL     OW25509   4.889   2.184   2.097  0.5513  0.2274 -0.3381
 8275SOL    HW125510   4.839   2.244   2.152  1.9443  0.0905  1.1540
 8275SOL    HW225511   4.832   2.108   2.087  0.7271 -0.3024  2.0730
 8276SOL     OW25512   3.620   1.819   3.001  0.1361  0.4603  0.3727
 8276SOL    HW125513   3.663   1.735   3.017 -1.4639 -0.9127 -1.9822
 8276SOL    HW225514   3.533   1.809   3.040  0.1357  1.2791  0.6002
 8277SOL     OW25515   0.156   3.973   1.929 -0.0427 -0.1296 -0.5244
 8277SOL    HW125516   0.147   3.883   1.898 -0.9959 -0.6787  1.2133
 8277SOL    HW225517   0.068   4.011   1.919  0.0379  0.1906 -0.0472
 8278SOL     OW25518   4.525   2.230   3.564  0.0669 -0.1311  0.4556
 8278SOL    HW125519   4.556   2.203   3.650  0.7895  1.5141  0.7447
 8278SOL    HW225520   4.453   2.291   3.582 -0.4765 -0.5750 -0.1447
 8279SOL     OW25521   2.663   6.277   1.135 -0.2793 -0.1119 -0.1270
 8279SOL    HW125522   2.685   6.188   1.107 -1.2704 -0.2666 -0.4462
 8279SOL    HW225523   2.714   6.333   1.077 -2.6501 -0.4138 -2.7333
 8280SOL     OW25524   3.286   1.071   4.140  0.0864 -0.0609  0.0336
 8280SOL    HW125525   3.364   1.093   4.190  1.1388 -0.4620 -1.3716
 8280SOL    HW225526   3.307   0.988   4.097 -0.5195  0.5890 -1.5792
 8281SOL     OW25527   4.693   5.518   0.223  0.0266 -0.2366  0.2915
 8281SOL    HW125528   4.778   5.561   0.236 -0.7185  1.5189 -0.3229
 8281SOL    HW225529   4.629   5.587   0.243 -1.2760 -1.6219  1.0845
 8282SOL     OW25530   6.437   4.595   3.513 -0.2779  0.6362 -0.4119
 8282SOL    HW125531   6.362   4.649   3.539 -0.8332 -0.7766  1.0446
 8282SOL    HW225532   6.512   4.638   3.554 -0.7870  0.0182  1.2088
 8283SOL     OW25533   5.839   7.447   4.953 -0.2485 -0.2342 -0.2242
 8283SOL    HW125534   5.839   7.355   4.926 -0.7324 -0.1978 -0.3583
 8283SOL    HW225535   5.800   7.494   4.879 -2.0960 -0.1953  0.6929
 8284SOL     OW25536   2.207   7.296   3.441 -0.0960  0.5064 -0.4089
 8284SOL    HW125537   2.115   7.319   3.428 -0.3739 -0.6420 -0.5908
 8284SOL    HW225538   2.216   7.288   3.536 -1.2512 -3.2380 -0.4413
 8285SOL     OW25539   3.879   0.284   6.090 -0.6597 -0.7216  0.0432
 8285SOL    HW125540   3.892   0.356   6.029 -2.1103  0.0655  0.6181
 8285SOL    HW225541   3.879   0.205   6.035  0.0390 -0.2139 -0.7029
 8286SOL     OW25542   1.183   3.437   4.475 -0.0687  0.0832  0.2144
 8286SOL    HW125543   1.151   3.492   4.403  1.5808  0.8947  0.0600
 8286SOL    HW225544   1.135   3.468   4.552 -0.1409  0.8111 -0.1165
 8287SOL     OW25545   4.141   5.733   1.093  0.0729  0.2595 -0.6732
 8287SOL    HW125546   4.108   5.693   1.013 -1.6018  2.0535 -0.9611
 8287SOL    HW225547   4.217   5.784   1.065  0.6028 -0.5680 -0.7696
 8288SOL     OW25548   6.048   0.075   1.231 -0.2202 -0.6602  0.3844
 8288SOL    HW125549   6.005   0.141   1.286  0.4022 -0.6748  0.9001
 8288SOL    HW225550   6.045   0.113   1.143  0.8772  0.4761  0.7961
 8289SOL     OW25551   0.872   3.682   3.093  0.2994 -0.0568  0.4010
 8289SOL    HW125552   0.869   3.594   3.056  0.9520 -0.2809  0.8726
 8289SOL    HW225553   0.962   3.693   3.122  1.0946  1.8982 -2.3732
 8290SOL     OW25554   1.622   6.498   1.397 -0.0806  0.1962 -0.1069
 8290SOL    HW125555   1.611   6.564   1.330  3.1605  0.0572 -0.9003
 8290SOL    HW225556   1.612   6.545   1.480 -0.0861  1.1777 -0.6601
 8291SOL     OW25557   0.043   3.364   5.894  0.1639  0.2710  0.3604
 8291SOL    HW125558   0.121   3.338   5.945  0.3243 -1.0890 -0.5350
 8291SOL    HW225559   0.012   3.282   5.855  0.2247  1.2896 -1.9863
 8292SOL     OW25560   7.526   2.563   2.247  0.2590 -0.1081  0.3591
 8292SOL    HW125561   7.616   2.574   2.279  0.2808 -1.7632  1.0079
 8292SOL    HW225562   7.478   2.530   2.323 -0.5447 -0.6619 -0.3683
 8293SOL     OW25563   4.526   7.054   0.318 -0.0578  0.3821 -0.2900
 8293SOL    HW125564   4.541   7.142   0.284  0.4943  0.1855 -0.5715
 8293SOL    HW225565   4.533   6.997   0.242 -1.9861  0.2308 -0.3881
 8294SOL     OW25566   2.245   0.867   6.801  0.0880  0.2250 -0.3565
 8294SOL    HW125567   2.251   0.780   6.760  0.4063  0.0507  0.0506
 8294SOL    HW225568   2.255   0.928   6.729 -0.3151 -0.0754 -0.6758
 8295SOL     OW25569   2.545   6.662   5.807  0.5243  0.4616 -0.5891
 8295SOL    HW125570   2.489   6.623   5.875 -1.9893 -0.5111 -3.0227
 8295SOL    HW225571   2.495   6.737   5.776  2.0251  1.3973 -0.8486
 8296SOL     OW25572   1.481   0.690   2.929  0.5682 -0.1843  0.0672
 8296SOL    HW125573   1.544   0.693   2.857 -1.0194  2.0241 -1.3501
 8296SOL    HW225574   1.497   0.770   2.979 -1.0292  0.4058 -0.3016
 8297SOL     OW25575   2.079   2.170   6.280 -0.3354  0.1642 -0.4827
 8297SOL    HW125576   2.020   2.213   6.342 -0.0784  1.6920 -1.2588
 8297SOL    HW225577   2.154   2.144   6.334 -0.0485  1.6007 -0.1241
 8298SOL     OW25578   5.571   3.484   1.609  0.2293  0.0651 -0.1594
 8298SOL    HW125579   5.488   3.485   1.562 -1.1001  1.4972  2.0600
 8298SOL    HW225580   5.637   3.499   1.541 -1.3210 -0.5765 -1.9011
 8299SOL     OW25581   1.554   5.897   6.638  0.3626 -0.3520 -0.2328
 8299SOL    HW125582   1.646   5.879   6.655  0.4761 -0.1267 -0.6268
 8299SOL    HW225583   1.515   5.905   6.726  0.6552 -0.7408 -0.0632
 8300SOL     OW25584   0.947   1.232   3.167  0.1022 -0.3738  0.4627
 8300SOL    HW125585   0.963   1.189   3.251  1.3922 -1.5972 -0.3477
 8300SOL    HW225586   1.002   1.310   3.169  0.2572 -0.4867  0.6995
 8301SOL     OW25587   3.827   6.751   3.136  0.1185  0.1630 -0.0679
 8301SOL    HW125588   3.842   6.755   3.231  1.0833  1.1917 -0.2367
 8301SOL    HW225589   3.735   6.774   3.126  0.1723  0.7100  0.5822
 8302SOL     OW25590   7.710   2.788   6.455 -0.9211  0.2327 -0.5330
 8302SOL    HW125591   7.661   2.783   6.536 -0.0504  2.1698  0.1662
 8302SOL    HW225592   7.752   2.702   6.447 -0.5033  0.2129  1.4097
 8303SOL     OW25593   3.310   4.184   3.608 -0.3496 -0.0061 -0.2712
 8303SOL    HW125594   3.317   4.256   3.670 -2.7674  1.0069 -1.0685
 8303SOL    HW225595   3.358   4.213   3.531  2.0869 -0.9956  0.7413
 8304SOL     OW25596   7.334   4.812   0.589 -0.1547  0.5935 -0.4467
 8304SOL    HW125597   7.254   4.806   0.641 -0.1171 -0.9505 -0.5415
 8304SOL    HW225598   7.398   4.761   0.637  0.6877  1.4767 -0.5901
 8305SOL     OW25599   6.800   1.050   5.161  0.5575  0.0089  0.7871
 8305SOL    HW125600   6.831   1.058   5.251 -2.7378  1.8945  1.9290
 8305SOL    HW225601   6.707   1.026   5.170  0.1156  0.2936 -2.1231
 8306SOL     OW25602   4.414   4.806   3.246  0.0788  0.3363  0.1535
 8306SOL    HW125603   4.372   4.721   3.240  0.7931 -0.0381  0.4284
 8306SOL    HW225604   4.368   4.860   3.181 -1.5329  0.2569  1.1637
 8307SOL     OW25605   3.203   5.655   5.494  0.0422  0.2591 -0.0786
 8307SOL    HW125606   3.191   5.746   5.467  0.9783 -0.1492 -1.9756
 8307SOL    HW225607   3.139   5.606   5.443  0.5702 -0.3115 -0.2079
 8308SOL     OW25608   5.367   4.670   1.708 -0.5579 -0.7063 -0.2251
 8308SOL    HW125609   5.329   4.716   1.633 -0.3781 -0.3694 -0.1098
 8308SOL    HW225610   5.453   4.642   1.678 -0.9504 -1.6180 -0.5432
 8309SOL     OW25611   1.594   5.997   0.740  0.0655  0.1605 -0.0096
 8309SOL    HW125612   1.611   6.084   0.704 -2.7924  1.0401  0.5628
 8309SOL    HW225613   1.569   5.944   0.664 -0.6970  0.5574 -0.0435
 8310SOL     OW25614   2.248   0.307   4.040  0.3587  0.3188 -0.3295
 8310SOL    HW125615   2.217   0.308   3.949  4.0648  1.5206 -1.7839
 8310SOL    HW225616   2.261   0.399   4.061 -1.0196  0.0952  1.7336
 8311SOL     OW25617   2.605   6.332   0.622 -0.1611  0.1959 -0.2996
 8311SOL    HW125618   2.571   6.284   0.698 -1.8762 -1.2399 -1.8576
 8311SOL    HW225619   2.542   6.402   0.607  0.1998  0.5120 -0.3508
 8312SOL     OW25620   1.859   5.899   5.165  0.0029  0.3076 -0.1043
 8312SOL    HW125621   1.786   5.930   5.218 -0.3861 -0.7156 -0.0148
 8312SOL    HW225622   1.933   5.897   5.225  0.5778  2.9981 -0.6018
 8313SOL     OW25623   3.169   0.341   5.465 -0.3732 -0.1262 -0.2820
 8313SOL    HW125624   3.230   0.274   5.496  1.0070  0.7471 -1.0111
 8313SOL    HW225625   3.148   0.391   5.544  0.0973 -0.2496 -0.0707
 8314SOL     OW25626   7.408   7.233   6.498 -0.1601 -0.0970  0.0729
 8314SOL    HW125627   7.329   7.262   6.453  0.5248 -1.6427 -2.2908
 8314SOL    HW225628   7.391   7.142   6.520  0.5613 -0.1190  0.5748
 8315SOL     OW25629   3.404   6.068   6.563 -0.7852 -0.4062 -0.0994
 8315SOL    HW125630   3.330   6.087   6.621 -0.8199  0.8031 -0.5098
 8315SOL    HW225631   3.448   5.994   6.604 -1.6708 -0.5270  0.6669
 8316SOL     OW25632   0.842   2.596   6.795 -0.7764 -0.3251  0.0753
 8316SOL    HW125633   0.809   2.521   6.745 -0.8375 -0.0769 -0.2651
 8316SOL    HW225634   0.803   2.586   6.882  1.5538 -2.3166  0.9983
 8317SOL     OW25635   1.050   3.631   6.113  0.1710 -0.6481 -0.3364
 8317SOL    HW125636   1.068   3.634   6.019 -0.2958  1.4697 -0.4153
 8317SOL    HW225637   1.000   3.711   6.131  1.0771 -0.4972  1.8828
 8318SOL     OW25638   3.932   5.459   2.864  0.4163  0.1030  0.4120
 8318SOL    HW125639   3.932   5.534   2.924  1.3448  0.5667 -0.1356
 8318SOL    HW225640   3.971   5.494   2.783 -2.8566  0.1497 -1.2897
 8319SOL     OW25641   4.342   7.118   1.488 -0.2698 -0.1589  0.2244
 8319SOL    HW125642   4.344   7.182   1.417 -1.5168 -1.1096 -0.7114
 8319SOL    HW225643   4.384   7.040   1.452 -0.1822 -0.3830  0.8027
 8320SOL     OW25644   3.823   2.613   0.508  0.2567 -0.1445 -0.0048
 8320SOL    HW125645   3.799   2.671   0.581  3.0126 -0.6735  1.4461
 8320SOL    HW225646   3.795   2.526   0.537 -0.1897 -0.1219 -0.3605
 8321SOL     OW25647   3.091   0.903   7.091 -0.6094 -0.2006  0.1357
 8321SOL    HW125648   3.176   0.941   7.112  1.0923 -4.0876  1.2371
 8321SOL    HW225649   3.045   0.971   7.042  3.7555  1.6057 -1.9487
 8322SOL     OW25650   5.846   6.848   6.882 -0.4343  0.0424  0.8837
 8322SOL    HW125651   5.789   6.902   6.828 -0.8784 -0.7837  0.5034
 8322SOL    HW225652   5.887   6.787   6.821 -1.5832 -1.4661  1.5393
 8323SOL     OW25653   7.066   6.153   0.617  0.3630  0.0002  0.5588
 8323SOL    HW125654   6.970   6.150   0.627  0.1275  1.1398 -0.9258
 8323SOL    HW225655   7.098   6.077   0.666 -1.4082 -1.1976 -0.0396
 8324SOL     OW25656   0.907   4.534   3.962 -0.6803  0.0806 -0.1029
 8324SOL    HW125657   0.824   4.580   3.976  0.2066  2.1948 -1.3247
 8324SOL    HW225658   0.973   4.603   3.961  0.8283 -1.2918 -1.4273
 8325SOL     OW25659   6.440   5.248   1.971 -0.8281  0.2642  0.2769
 8325SOL    HW125660   6.411   5.277   2.057 -1.4731  1.2133 -0.2460
 8325SOL    HW225661   6.455   5.329   1.922  0.9713 -0.2200 -0.0532
 8326SOL     OW25662   6.047   7.244   3.999  0.3885  0.2993  0.4293
 8326SOL    HW125663   5.963   7.203   4.021  0.8253 -0.9704 -0.1385
 8326SOL    HW225664   6.108   7.210   4.065  0.8467 -0.3341 -0.3044
 8327SOL     OW25665   2.493   2.759   4.147  0.4173 -0.2485  0.0039
 8327SOL    HW125666   2.565   2.696   4.151 -0.0111 -0.7093  0.5611
 8327SOL    HW225667   2.422   2.719   4.198  0.5784  1.2454  1.5263
 8328SOL     OW25668   5.409   5.406   4.964  0.3564  0.0454 -0.2104
 8328SOL    HW125669   5.503   5.386   4.957  1.1245  2.5566  1.5072
 8328SOL    HW225670   5.389   5.391   5.057 -0.6681  0.5341 -0.3491
 8329SOL     OW25671   2.256   4.529   1.204 -0.1150 -0.1271 -0.3751
 8329SOL    HW125672   2.328   4.512   1.144  0.6561  0.3491  0.3935
 8329SOL    HW225673   2.275   4.472   1.279 -0.9136 -0.5125 -0.4609
 8330SOL     OW25674   3.695   2.827   2.280 -0.0510  0.1427 -0.1967
 8330SOL    HW125675   3.612   2.780   2.293 -0.3205  0.9590  1.3110
 8330SOL    HW225676   3.762   2.764   2.307 -0.2006 -0.3230 -0.8749
 8331SOL     OW25677   4.729   2.583   2.866 -0.0644 -0.1878  0.3735
 8331SOL    HW125678   4.759   2.649   2.804 -0.9378 -0.2029 -0.0810
 8331SOL    HW225679   4.674   2.632   2.928  0.2053 -0.3006  0.7085
 8332SOL     OW25680   5.462   3.465   0.824  0.3248  0.1868 -0.2214
 8332SOL    HW125681   5.380   3.514   0.832  0.8953  0.9027  1.8167
 8332SOL    HW225682   5.517   3.520   0.769  0.3842  1.0970  0.7135
 8333SOL     OW25683   3.472   7.688   6.534  0.4658  0.3810  0.2481
 8333SOL    HW125684   3.437   7.699   6.623 -0.6744 -0.8635 -0.0030
 8333SOL    HW225685   3.403   7.723   6.477  0.1940 -0.8414 -0.2096
 8334SOL     OW25686   2.553   3.427   3.482  0.0539 -0.4505  0.0976
 8334SOL    HW125687   2.561   3.334   3.504  1.3546 -0.4620 -0.3488
 8334SOL    HW225688   2.488   3.429   3.412  1.8018 -1.3432 -1.6527
 8335SOL     OW25689   3.059   0.780   6.039  0.0725 -0.1236 -0.3982
 8335SOL    HW125690   2.989   0.784   5.975  0.8044  1.4756 -1.1565
 8335SOL    HW225691   3.069   0.687   6.059 -0.0635 -0.6980 -2.7413
 8336SOL     OW25692   1.191   0.157   4.447  0.2172  0.0751  0.7071
 8336SOL    HW125693   1.219   0.116   4.529  1.0100 -0.1079  0.3584
 8336SOL    HW225694   1.180   0.249   4.469 -1.1334 -0.2148  1.3899
 8337SOL     OW25695   5.130   5.789   1.757 -0.2368 -0.0939  0.0794
 8337SOL    HW125696   5.130   5.740   1.839  1.9174  2.3519  1.7202
 8337SOL    HW225697   5.218   5.778   1.722 -0.3939  0.7977 -0.6366
 8338SOL     OW25698   3.690   3.275   5.882  0.2891  0.0158  0.2659
 8338SOL    HW125699   3.780   3.281   5.917  0.2099  0.0554  0.4667
 8338SOL    HW225700   3.634   3.287   5.959  0.1069 -1.9874  0.5008
 8339SOL     OW25701   6.896   3.416   4.562  0.1114  0.5608 -0.2255
 8339SOL    HW125702   6.820   3.428   4.505 -0.3889  1.5944  0.6241
 8339SOL    HW225703   6.858   3.397   4.649  0.8538 -0.6803 -0.1470
 8340SOL     OW25704   4.857   6.161   4.186  0.1051 -0.1129  0.6387
 8340SOL    HW125705   4.774   6.191   4.223  0.1983 -1.3558  1.9816
 8340SOL    HW225706   4.920   6.170   4.258  1.1100  0.6486 -0.3067
 8341SOL     OW25707   2.195   3.465   6.052  0.0059 -0.4986  0.0001
 8341SOL    HW125708   2.201   3.394   5.988  1.5880 -1.4879  1.1783
 8341SOL    HW225709   2.102   3.471   6.073 -0.0267 -3.4244  1.1200
 8342SOL     OW25710   6.251   4.187   6.286 -0.3662 -0.1297  0.2009
 8342SOL    HW125711   6.202   4.117   6.243 -1.3412  0.8854 -0.3894
 8342SOL    HW225712   6.256   4.159   6.378 -0.4570 -1.1149 -0.0826
 8343SOL     OW25713   3.770   3.143   6.913  0.3144  0.3367 -0.2788
 8343SOL    HW125714   3.855   3.138   6.956  0.4251 -1.8627 -0.6317
 8343SOL    HW225715   3.714   3.084   6.963 -0.4384  0.2047 -1.2359
 8344SOL     OW25716   4.835   6.668   3.521 -0.2090  0.3515  0.0085
 8344SOL    HW125717   4.807   6.705   3.437 -2.4403 -0.4781  0.3001
 8344SOL    HW225718   4.879   6.739   3.566 -0.6183  1.3658 -1.1420
 8345SOL     OW25719   3.293   5.542   2.797 -0.7829 -0.1693  0.4392
 8345SOL    HW125720   3.332   5.461   2.828  1.8446  1.3201  1.3354
 8345SOL    HW225721   3.246   5.577   2.872  1.6773  1.1290  1.5102
 8346SOL     OW25722   1.511   6.576   0.415 -0.2785 -0.2036  0.5075
 8346SOL    HW125723   1.495   6.649   0.355 -3.3945 -2.4739 -1.7510
 8346SOL    HW225724   1.465   6.601   0.496  0.5467  1.1852  0.5746
 8347SOL     OW25725   7.352   2.338   3.452 -0.5582 -0.1531 -0.3446
 8347SOL    HW125726   7.396   2.416   3.418  1.6077 -1.2882 -0.3469
 8347SOL    HW225727   7.326   2.289   3.374 -2.6960  0.9050 -0.3584
 8348SOL     OW25728   2.755   3.619   4.457 -0.2418  0.3462 -0.1106
 8348SOL    HW125729   2.732   3.664   4.376  0.6495 -1.2251 -1.2937
 8348SOL    HW225730   2.850   3.614   4.455 -0.1668  0.7237  1.3162
 8349SOL     OW25731   6.104   6.244   4.127  0.2528  0.0537  0.4302
 8349SOL    HW125732   6.102   6.339   4.117  1.6378 -0.0535 -1.4359
 8349SOL    HW225733   6.136   6.211   4.043  3.4564 -1.8083  2.1666
 8350SOL     OW25734   3.139   0.825   4.896  0.3331 -0.3779 -0.0358
 8350SOL    HW125735   3.153   0.827   4.802  2.1771 -0.6538  0.1925
 8350SOL    HW225736   3.212   0.773   4.930 -1.9979 -3.1289  1.2753
 8351SOL     OW25737   1.894   5.792   7.697 -0.2173  0.2171 -0.1818
 8351SOL    HW125738   1.811   5.817   7.657  0.1194  0.1242 -0.9410
 8351SOL    HW225739   1.918   5.711   7.652  0.7479  0.7373 -0.6068
 8352SOL     OW25740   3.740   3.637   7.240  0.1383  0.5944 -0.3406
 8352SOL    HW125741   3.743   3.618   7.146 -5.1936 -0.2959 -0.6556
 8352SOL    HW225742   3.707   3.727   7.245 -2.0471 -0.1819  0.4780
 8353SOL     OW25743   6.777   2.720   1.193  0.1191  0.2713  0.1838
 8353SOL    HW125744   6.703   2.695   1.137  0.1287  0.5723  0.0385
 8353SOL    HW225745   6.847   2.742   1.132 -0.3940  2.2792  0.2516
 8354SOL     OW25746   4.420   0.517   6.944  0.1316  0.3483 -0.0709
 8354SOL    HW125747   4.500   0.477   6.909  0.0021  0.8836 -0.9844
 8354SOL    HW225748   4.448   0.603   6.974  0.2562 -0.1240  1.2392
 8355SOL     OW25749   2.076   6.429   3.372 -0.0729  0.2645 -0.6202
 8355SOL    HW125750   2.036   6.408   3.288 -0.8330 -1.2724  0.0877
 8355SOL    HW225751   2.005   6.418   3.436  0.8857 -0.1663  0.3975
 8356SOL     OW25752   0.911   2.862   4.625  0.2974 -0.3369  0.2705
 8356SOL    HW125753   0.967   2.910   4.686  2.0949 -0.6731 -1.0452
 8356SOL    HW225754   0.943   2.886   4.538 -0.2029 -2.1737 -0.4836
 8357SOL     OW25755   0.583   2.944   2.024 -0.3198 -0.0360  0.0076
 8357SOL    HW125756   0.500   2.990   2.006 -0.2743  0.4729  1.0396
 8357SOL    HW225757   0.592   2.948   2.119  1.9668  1.8364 -0.2060
 8358SOL     OW25758   4.348   5.023   0.448 -0.6468  0.1327 -0.2623
 8358SOL    HW125759   4.348   5.025   0.544 -1.9897 -0.3058 -0.2369
 8358SOL    HW225760   4.344   5.115   0.422 -0.9339  0.2264  0.1076
 8359SOL     OW25761   5.036   7.252   4.093 -0.1147 -0.2648  0.1490
 8359SOL    HW125762   5.122   7.219   4.067 -1.0188 -1.2763 -1.8444
 8359SOL    HW225763   5.016   7.206   4.174  1.0364 -0.3420  0.4050
 8360SOL     OW25764   3.483   1.142   5.218  0.2918 -0.1465 -0.8321
 8360SOL    HW125765   3.458   1.170   5.306 -0.3069  0.4930 -1.2011
 8360SOL    HW225766   3.501   1.223   5.171  2.7743 -0.5303 -0.6990
 8361SOL     OW25767   5.714   1.440   6.300 -0.1353 -0.0759  0.2434
 8361SOL    HW125768   5.806   1.445   6.275  0.4633  1.4430  2.4461
 8361SOL    HW225769   5.672   1.511   6.251 -0.1300 -0.6605 -0.6298
 8362SOL     OW25770   6.458   3.838   5.275  0.1679 -0.0827 -0.2501
 8362SOL    HW125771   6.540   3.888   5.273 -0.5918  1.2272  0.0010
 8362SOL    HW225772   6.417   3.858   5.191 -2.2011  3.4204  1.5020
 8363SOL     OW25773   6.257   5.524   4.655 -0.8575 -0.4747  0.0458
 8363SOL    HW125774   6.323   5.594   4.657  0.4972 -1.6813 -0.5958
 8363SOL    HW225775   6.274   5.478   4.573 -2.2482 -1.0739  0.0763
 8364SOL     OW25776   3.008   0.651   5.423  0.2395 -0.2344 -0.0949
 8364SOL    HW125777   3.018   0.732   5.474 -2.2317 -0.0507  0.2060
 8364SOL    HW225778   3.017   0.678   5.332  1.3251  0.0192  0.0732
 8365SOL     OW25779   0.203   2.063   3.689  0.3242  0.0976 -0.7650
 8365SOL    HW125780   0.156   1.980   3.674 -0.3792  0.4476 -0.5313
 8365SOL    HW225781   0.178   2.089   3.777  1.7256 -0.1878 -0.2723
 8366SOL     OW25782   4.501   1.161   5.413  0.7683 -0.3757 -0.2406
 8366SOL    HW125783   4.545   1.076   5.409  0.8788 -0.2974 -0.7854
 8366SOL    HW225784   4.410   1.140   5.433  1.2920 -0.4569  2.3342
 8367SOL     OW25785   3.036   5.213   3.657  0.1103  0.2872  0.1176
 8367SOL    HW125786   2.973   5.162   3.606  0.4351 -0.4164  0.4179
 8367SOL    HW225787   3.110   5.226   3.598  0.0772  0.3062  0.0804
 8368SOL     OW25788   2.986   2.849   5.079 -0.1527  0.0588  0.0418
 8368SOL    HW125789   3.029   2.931   5.104  0.7039 -0.3300 -0.1116
 8368SOL    HW225790   3.053   2.782   5.094 -0.7044 -0.5602 -0.2315
 8369SOL     OW25791   7.070   7.283   2.222 -0.2981  0.0418  0.0699
 8369SOL    HW125792   7.070   7.378   2.210 -0.1297  0.1141  0.6072
 8369SOL    HW225793   7.121   7.269   2.302 -0.5010 -0.4834  0.1109
 8370SOL     OW25794   6.222   3.794   0.779  0.0978  0.0202 -0.5363
 8370SOL    HW125795   6.237   3.700   0.790 -1.3053 -0.2858 -1.1022
 8370SOL    HW225796   6.267   3.816   0.697 -1.5407 -0.6795 -1.6814
 8371SOL     OW25797   6.802   6.453   3.468  0.0637  0.7916  0.2312
 8371SOL    HW125798   6.749   6.381   3.434  1.2131  0.2677 -0.5080
 8371SOL    HW225799   6.768   6.531   3.426  1.4467  0.1658 -2.2363
 8372SOL     OW25800   4.245   4.590   4.617 -0.4098 -0.0079  0.2551
 8372SOL    HW125801   4.187   4.514   4.618 -1.3720  0.7058  0.2088
 8372SOL    HW225802   4.187   4.664   4.631  0.4303  0.7781 -0.3241
 8373SOL     OW25803   5.332   1.184   1.951 -0.5269 -0.0180 -0.0287
 8373SOL    HW125804   5.284   1.102   1.939 -1.2680  0.5365 -1.0091
 8373SOL    HW225805   5.280   1.233   2.015 -0.9626  0.3395 -0.6482
 8374SOL     OW25806   0.737   0.767   3.557 -0.2585  1.1333  0.4782
 8374SOL    HW125807   0.750   0.830   3.486 -1.3461 -0.5274 -1.2947
 8374SOL    HW225808   0.686   0.815   3.623  0.2077  2.5265 -0.1456
 8375SOL     OW25809   7.718   2.878   1.395 -0.1166  0.5759  0.2669
 8375SOL    HW125810   7.677   2.844   1.316 -1.3676  0.1645  1.0704
 8375SOL    HW225811   7.812   2.871   1.378 -0.3549  0.9207 -1.3462
 8376SOL     OW25812   5.127   5.488   4.426 -0.1560  0.0668  0.2363
 8376SOL    HW125813   5.074   5.568   4.430  0.8307  0.7298  0.3688
 8376SOL    HW225814   5.171   5.484   4.511  2.4835  1.3142 -0.9341
 8377SOL     OW25815   6.546   4.071   4.263 -0.0402 -0.3276 -0.1260
 8377SOL    HW125816   6.456   4.091   4.289  0.7213  1.5015  1.3420
 8377SOL    HW225817   6.563   3.984   4.301 -1.4811 -1.1912 -1.3444
 8378SOL     OW25818   4.687   0.068   3.737  0.2065  0.1083 -0.3319
 8378SOL    HW125819   4.731   0.076   3.821  0.4754 -1.1491 -0.3322
 8378SOL    HW225820   4.758   0.076   3.672  0.0091  1.0191 -0.4384
 8379SOL     OW25821   6.404   6.107   6.339 -0.6648  0.1214  0.3200
 8379SOL    HW125822   6.338   6.128   6.406 -3.4034 -1.1748 -1.7910
 8379SOL    HW225823   6.434   6.019   6.362 -0.8820  0.0590  0.3675
 8380SOL     OW25824   4.099   4.581   2.206 -0.2674  0.0224  0.3061
 8380SOL    HW125825   4.021   4.528   2.216 -0.1657 -0.1505  0.1890
 8380SOL    HW225826   4.147   4.541   2.133  0.1209 -0.1045  0.6287
 8381SOL     OW25827   6.049   4.260   5.937 -0.2155 -0.2089 -0.1611
 8381SOL    HW125828   6.084   4.240   5.850  1.2238  1.5149 -0.0374
 8381SOL    HW225829   5.976   4.319   5.921 -0.3109 -0.3406 -0.2158
 8382SOL     OW25830   3.333   3.831   5.335  0.1225  0.6437 -0.4157
 8382SOL    HW125831   3.387   3.910   5.327 -0.7648  1.1272 -2.2512
 8382SOL    HW225832   3.386   3.762   5.295  0.7748  0.3565  0.9162
 8383SOL     OW25833   1.734   2.112   0.243  0.0001 -0.0670 -0.2832
 8383SOL    HW125834   1.733   2.188   0.184 -1.9929  0.1219 -0.0829
 8383SOL    HW225835   1.794   2.136   0.313 -1.1121  1.6410  0.1313
 8384SOL     OW25836   7.123   2.268   2.817  0.0282  0.1952 -0.2197
 8384SOL    HW125837   7.212   2.238   2.834 -0.5636 -0.6631  1.6885
 8384SOL    HW225838   7.117   2.275   2.722  2.5504  1.6481 -0.3541
 8385SOL     OW25839   1.937   6.986   1.741  0.1510  0.9685 -0.4750
 8385SOL    HW125840   1.896   6.933   1.672 -0.0898  0.1197  0.3165
 8385SOL    HW225841   1.935   7.075   1.705  1.4916  0.3531 -2.2680
 8386SOL     OW25842   5.911   5.304   6.990 -0.4070  0.2077  0.4211
 8386SOL    HW125843   5.818   5.309   7.012 -0.3010  0.6912  0.7789
 8386SOL    HW225844   5.951   5.262   7.066 -0.1816  0.9834  0.7373
 8387SOL     OW25845   4.358   5.325   2.030  0.4773  0.1476 -0.0212
 8387SOL    HW125846   4.282   5.320   1.972  0.1499  0.4744  0.3734
 8387SOL    HW225847   4.325   5.367   2.109  0.9512 -0.1804  0.3562
 8388SOL     OW25848   1.970   3.244   1.736 -0.1762  0.4004 -0.1673
 8388SOL    HW125849   1.909   3.174   1.759 -1.0203  1.6659  1.7170
 8388SOL    HW225850   2.037   3.201   1.682 -0.3610 -1.9672  1.3356
 8389SOL     OW25851   5.084   1.775   4.728  0.7576 -0.2813 -0.7640
 8389SOL    HW125852   5.073   1.797   4.820  1.5351 -0.8455 -0.5217
 8389SOL    HW225853   5.086   1.859   4.683 -0.5329 -0.0332 -0.3813
 8390SOL     OW25854   2.196   7.198   0.931 -0.0465  0.4257  0.0676
 8390SOL    HW125855   2.108   7.174   0.959  1.6417 -3.6633  2.7997
 8390SOL    HW225856   2.205   7.159   0.844 -0.4870 -0.5887  0.4615
 8391SOL     OW25857   6.056   0.957   6.778 -0.2699  0.2612 -0.4317
 8391SOL    HW125858   6.050   0.865   6.751  1.9034 -0.1593  0.3513
 8391SOL    HW225859   6.122   0.995   6.721  0.5742  0.6850  0.7768
 8392SOL     OW25860   5.868   1.366   7.509  0.1801  0.4273  0.4550
 8392SOL    HW125861   5.931   1.328   7.448  0.5790 -0.2818  1.2860
 8392SOL    HW225862   5.784   1.358   7.463  0.4924  0.0767 -0.0773
 8393SOL     OW25863   4.587   6.756   6.789 -0.2778 -0.4171  0.1030
 8393SOL    HW125864   4.569   6.665   6.811 -1.9904  0.0169  0.7311
 8393SOL    HW225865   4.599   6.799   6.873 -1.5464  0.2813 -0.0354
 8394SOL     OW25866   3.544   5.313   6.628  0.4527  0.0428 -0.0387
 8394SOL    HW125867   3.449   5.321   6.640  0.4705 -1.6761  1.7866
 8394SOL    HW225868   3.559   5.336   6.536 -1.8917 -0.9205 -0.7253
 8395SOL     OW25869   3.518   7.728   5.798  0.1704  0.1392  0.1786
 8395SOL    HW125870   3.601   7.768   5.821 -0.0274  0.5750  0.1314
 8395SOL    HW225871   3.489   7.684   5.878  0.6753 -0.4197  0.0634
 8396SOL     OW25872   2.103   7.544   5.953  0.1568 -0.2582  0.3383
 8396SOL    HW125873   2.113   7.449   5.948  0.6720 -0.3060  1.7407
 8396SOL    HW225874   2.168   7.578   5.892 -0.3740 -0.8042 -0.5503
 8397SOL     OW25875   5.062   6.055   2.827  0.2114  0.2031 -0.5782
 8397SOL    HW125876   5.019   6.021   2.748 -0.9831  0.6492 -0.1466
 8397SOL    HW225877   5.050   5.986   2.892  1.7252 -0.4285 -0.9159
 8398SOL     OW25878   7.239   0.996   7.184 -0.1240  0.0971 -0.4647
 8398SOL    HW125879   7.180   1.007   7.109 -0.2651 -0.0637 -0.3797
 8398SOL    HW225880   7.223   1.073   7.239 -1.8031 -0.9301  0.6005
 8399SOL     OW25881   3.682   2.480   5.398 -0.2435  0.3077  0.3862
 8399SOL    HW125882   3.745   2.421   5.440  0.0263  0.2267 -0.1250
 8399SOL    HW225883   3.627   2.511   5.470  0.5525  0.5943  0.8899
 8400SOL     OW25884   0.243   3.210   3.967 -0.0406 -0.1852 -0.6179
 8400SOL    HW125885   0.224   3.130   3.918 -0.1013  0.4247 -1.6231
 8400SOL    HW225886   0.169   3.219   4.027 -0.5034 -0.3973 -1.1411
 8401SOL     OW25887   3.180   6.303   3.682 -0.0349  0.0757 -0.2426
 8401SOL    HW125888   3.111   6.359   3.646 -1.4309 -1.3357  0.1142
 8401SOL    HW225889   3.228   6.360   3.742 -1.4247  0.9046  0.1332
 8402SOL     OW25890   3.090   1.521   4.399 -0.3617 -0.2755  0.7041
 8402SOL    HW125891   3.016   1.516   4.459 -0.3636 -1.6811  0.5985
 8402SOL    HW225892   3.051   1.547   4.316 -0.5802  0.0134  0.8903
 8403SOL     OW25893   1.268   4.666   2.193 -0.1090 -0.0641 -0.1501
 8403SOL    HW125894   1.323   4.744   2.189  0.5922 -0.5778 -0.8411
 8403SOL    HW225895   1.197   4.690   2.252  0.2256  1.0112 -0.1604
 8404SOL     OW25896   3.655   6.085   6.484 -0.1544 -0.0261 -0.4592
 8404SOL    HW125897   3.674   6.046   6.569  0.1433  0.5275 -0.2644
 8404SOL    HW225898   3.564   6.115   6.491  0.6367  2.3874  0.6292
 8405SOL     OW25899   1.763   2.371   6.551  0.4896  0.0691  0.1147
 8405SOL    HW125900   1.826   2.443   6.545  1.6473 -0.9705 -0.5539
 8405SOL    HW225901   1.816   2.292   6.555 -0.7671 -0.8153  0.0727
 8406SOL     OW25902   1.775   2.820   0.582  0.3172  0.0871  0.3834
 8406SOL    HW125903   1.684   2.799   0.560  0.2344 -1.5230  1.9520
 8406SOL    HW225904   1.822   2.814   0.499 -0.4748 -2.4586  0.0305
 8407SOL     OW25905   2.719   1.981   0.955  0.2118  0.7794  0.2528
 8407SOL    HW125906   2.733   2.053   0.895  1.2434  0.4900  0.1291
 8407SOL    HW225907   2.783   1.995   1.025  0.0397  0.2965  0.5142
 8408SOL     OW25908   2.318   0.521   6.476  0.1292 -0.3919  0.2837
 8408SOL    HW125909   2.271   0.589   6.429  1.6762  0.7805  0.3483
 8408SOL    HW225910   2.308   0.543   6.569  2.6785  1.3149  0.2697
 8409SOL     OW25911   0.388   5.621   4.714 -0.2537  0.6196 -0.1135
 8409SOL    HW125912   0.378   5.550   4.778  0.8181 -0.0134 -0.6297
 8409SOL    HW225913   0.390   5.577   4.629  0.1820  1.2926 -0.4602
 8410SOL     OW25914   4.945   2.133   7.323 -0.5501 -0.0001  0.0715
 8410SOL    HW125915   4.981   2.121   7.411  0.6128 -1.4179 -0.5499
 8410SOL    HW225916   4.907   2.221   7.324 -1.7305 -0.4575  2.3697
 8411SOL     OW25917   2.517   6.085   2.401  0.0029 -0.6269  0.3765
 8411SOL    HW125918   2.596   6.113   2.447  0.3079  0.5322 -0.8002
 8411SOL    HW225919   2.545   6.069   2.311 -1.1446  0.1426 -0.1527
 8412SOL     OW25920   2.626   6.885   3.352 -0.1320  0.2029  0.5508
 8412SOL    HW125921   2.554   6.849   3.404  0.1481  1.0960  1.6024
 8412SOL    HW225922   2.630   6.829   3.275 -0.5418 -1.2084  1.5052
 8413SOL     OW25923   1.256   3.073   6.329  0.5442 -0.1407 -0.6270
 8413SOL    HW125924   1.195   3.143   6.355  0.1011 -0.0238 -1.9154
 8413SOL    HW225925   1.300   3.049   6.411  0.5088  1.4419 -0.0941
 8414SOL     OW25926   0.388   1.100   3.726  0.1208  0.5203 -0.1179
 8414SOL    HW125927   0.364   1.126   3.637  1.0908  1.2590 -0.1800
 8414SOL    HW225928   0.351   1.169   3.781  0.8862  0.9317 -0.1014
 8415SOL     OW25929   6.885   0.762   3.133 -0.0982 -0.0490  0.6845
 8415SOL    HW125930   6.978   0.768   3.156  0.1312 -2.3202  0.4949
 8415SOL    HW225931   6.871   0.670   3.111 -2.3467  0.3008  0.4330
 8416SOL     OW25932   7.170   5.300   0.390  0.6864  0.2602  0.0527
 8416SOL    HW125933   7.196   5.278   0.301  0.5656  0.5340 -0.0535
 8416SOL    HW225934   7.105   5.370   0.379 -0.6374 -0.8914  0.2729
 8417SOL     OW25935   4.546   4.547   5.883 -0.1168 -0.7718 -0.0408
 8417SOL    HW125936   4.479   4.565   5.949 -0.6419 -2.5244 -0.0666
 8417SOL    HW225937   4.551   4.628   5.832  0.6617  0.8472  2.3942
 8418SOL     OW25938   1.726   6.950   4.106 -0.1797  0.0848 -0.1355
 8418SOL    HW125939   1.639   6.980   4.081  0.6916  1.0792 -2.2145
 8418SOL    HW225940   1.717   6.855   4.114 -1.8665  0.3450  1.6636
 8419SOL     OW25941   7.328   4.035   7.118  0.0928  0.5438 -0.6611
 8419SOL    HW125942   7.260   3.971   7.098  0.4968 -0.0753 -0.1302
 8419SOL    HW225943   7.367   4.057   7.033  0.4450 -0.4956 -0.7861
 8420SOL     OW25944   6.095   4.383   5.465  0.1767  0.1593 -0.4454
 8420SOL    HW125945   6.110   4.347   5.377  0.8951  0.7124 -0.5532
 8420SOL    HW225946   6.002   4.367   5.481  0.3723 -1.4239 -0.6365
 8421SOL     OW25947   3.264   2.349   2.767  0.1928  0.0095 -0.1479
 8421SOL    HW125948   3.227   2.425   2.722  1.9233  0.9273 -0.0710
 8421SOL    HW225949   3.224   2.274   2.722 -0.2282  0.9302 -1.3712
 8422SOL     OW25950   3.937   3.724   3.289  0.8498  0.2585  0.3512
 8422SOL    HW125951   3.956   3.727   3.195  1.0796 -0.2710  0.3794
 8422SOL    HW225952   3.869   3.790   3.302 -0.6026 -1.0349 -0.5067
 8423SOL     OW25953   5.146   3.825   0.334 -0.4416  0.0262  0.4762
 8423SOL    HW125954   5.140   3.762   0.406  0.2194 -0.5412  0.0426
 8423SOL    HW225955   5.165   3.772   0.257 -0.2683  0.7223  0.0317
 8424SOL     OW25956   4.796   3.035   3.152 -0.6674  0.1959  0.2288
 8424SOL    HW125957   4.810   3.001   3.063 -1.0623 -0.3757  0.3796
 8424SOL    HW225958   4.784   3.129   3.140 -1.3010  0.0403 -0.3895
 8425SOL     OW25959   1.348   5.342   2.486  0.4661 -0.6371 -0.4241
 8425SOL    HW125960   1.268   5.395   2.485  0.3169 -0.8556 -0.1778
 8425SOL    HW225961   1.409   5.393   2.539 -0.4713 -1.8325  1.9382
 8426SOL     OW25962   7.228   0.680   5.225  0.0120 -0.4238  0.0291
 8426SOL    HW125963   7.276   0.645   5.151 -0.1113  1.0801 -0.8117
 8426SOL    HW225964   7.181   0.606   5.262 -2.7295 -0.7123 -3.5057
 8427SOL     OW25965   2.439   3.495   2.438 -0.0844  0.3268 -0.0270
 8427SOL    HW125966   2.399   3.429   2.494  0.6900 -0.4043 -0.3111
 8427SOL    HW225967   2.526   3.462   2.420  0.6125  1.7994  0.4398
 8428SOL     OW25968   3.617   0.203   1.064 -0.1137 -0.0124 -0.2182
 8428SOL    HW125969   3.669   0.186   1.143 -0.5444 -0.1720  0.0342
 8428SOL    HW225970   3.592   0.295   1.072 -0.3338 -0.0855 -0.0635
 8429SOL     OW25971   5.940   0.676   4.529  0.4138  0.6200  0.3914
 8429SOL    HW125972   6.017   0.731   4.518  1.5661 -0.9036  0.4908
 8429SOL    HW225973   5.920   0.645   4.441  1.6917 -1.2116  0.6728
 8430SOL     OW25974   7.673   1.093   2.637  0.4243 -0.2315  0.3552
 8430SOL    HW125975   7.637   1.092   2.725 -0.0344  0.5019  0.1812
 8430SOL    HW225976   7.690   1.001   2.616 -1.1786 -0.5801  0.5078
 8431SOL     OW25977   7.284   0.371   4.673 -0.2026 -0.2490  0.2079
 8431SOL    HW125978   7.352   0.357   4.740  1.1211 -1.3619 -1.2942
 8431SOL    HW225979   7.272   0.466   4.671 -0.3024 -0.1848  2.0161
 8432SOL     OW25980   2.491   5.950   0.325  0.5121 -0.5693 -0.4993
 8432SOL    HW125981   2.448   5.962   0.410  1.8682 -2.1517  0.4894
 8432SOL    HW225982   2.504   6.038   0.292  0.3054  0.1138  1.1369
 8433SOL     OW25983   0.769   3.257   1.615  0.2092 -0.5167  0.1431
 8433SOL    HW125984   0.839   3.196   1.589  1.2487  0.6872  0.0077
 8433SOL    HW225985   0.689   3.206   1.606  1.1224 -2.2943  1.3009
 8434SOL     OW25986   1.640   6.864   6.442 -0.0791 -0.2084 -0.2105
 8434SOL    HW125987   1.721   6.817   6.463  0.5357 -1.0824 -3.8612
 8434SOL    HW225988   1.612   6.827   6.358 -2.3014  2.5675 -0.8284
 8435SOL     OW25989   2.523   5.553   7.116 -0.0552 -0.8887  0.4325
 8435SOL    HW125990   2.428   5.558   7.121 -0.1737  0.2857 -1.7468
 8435SOL    HW225991   2.553   5.583   7.202 -1.6415 -0.0987  0.7504
 8436SOL     OW25992   7.680   4.909   3.244 -0.1592 -0.1009 -0.1005
 8436SOL    HW125993   7.656   4.902   3.152 -0.2734  2.1874 -0.3088
 8436SOL    HW225994   7.602   4.879   3.291  0.1488 -1.9654 -0.6949
 8437SOL     OW25995   4.527   3.172   3.129  0.1606  0.4659 -0.1567
 8437SOL    HW125996   4.603   3.226   3.151 -0.0760  0.0158  2.0104
 8437SOL    HW225997   4.562   3.084   3.119 -0.0905  0.2018  1.1621
 8438SOL     OW25998   6.168   6.824   5.442  0.1859  0.5338  0.3529
 8438SOL    HW125999   6.134   6.806   5.354  0.9451 -2.2545  0.5142
 8438SOL    HW226000   6.094   6.809   5.500 -0.2184  2.0050  0.2397
 8439SOL     OW26001   6.654   5.724   5.760 -0.4591 -0.1462  0.2455
 8439SOL    HW126002   6.697   5.789   5.705 -0.0892 -1.5253 -1.1964
 8439SOL    HW226003   6.700   5.727   5.843  0.5462  0.3813 -0.3157
 8440SOL     OW26004   5.368   5.891   3.637  0.8343  0.0084 -0.0255
 8440SOL    HW126005   5.463   5.904   3.632  0.6046  2.1326  0.3493
 8440SOL    HW226006   5.341   5.935   3.717 -0.2843 -2.1269  0.8490
 8441SOL     OW26007   4.745   0.680   1.709  0.0983  0.3673 -0.1273
 8441SOL    HW126008   4.721   0.755   1.764  0.9522  0.4137  0.1855
 8441SOL    HW226009   4.769   0.611   1.771  1.2724  0.4882 -0.4401
 8442SOL     OW26010   0.644   7.205   7.238 -0.7214 -0.2464  0.2596
 8442SOL    HW126011   0.702   7.263   7.288 -1.0663 -0.6935  1.2177
 8442SOL    HW226012   0.559   7.250   7.239 -0.5313  0.1418 -0.6573
 8443SOL     OW26013   5.927   1.276   1.251 -0.0592 -0.1043 -0.1661
 8443SOL    HW126014   5.978   1.200   1.220 -0.6364 -0.3047 -0.6419
 8443SOL    HW226015   5.929   1.337   1.177 -0.4785 -0.0968 -0.1719
 8444SOL     OW26016   5.837   4.799   4.386  0.2169 -0.0463  0.2691
 8444SOL    HW126017   5.743   4.799   4.370  0.1769  2.3534  0.2587
 8444SOL    HW226018   5.870   4.876   4.340  1.7847  0.6356  2.3965
 8445SOL     OW26019   0.949   6.609   7.211  0.0594  0.2735  0.2741
 8445SOL    HW126020   0.985   6.523   7.233 -0.8155  0.0280  0.7971
 8445SOL    HW226021   0.991   6.669   7.273  1.9406  0.5291 -1.1594
 8446SOL     OW26022   0.864   7.302   0.513  0.2513 -0.4043 -0.0628
 8446SOL    HW126023   0.838   7.394   0.507  1.8145 -0.0682 -3.2097
 8446SOL    HW226024   0.814   7.258   0.445  0.0945 -1.7796  0.8973
 8447SOL     OW26025   6.634   7.279   1.469 -0.2764 -0.2185 -0.1499
 8447SOL    HW126026   6.645   7.194   1.512 -0.9539 -0.1688  0.1253
 8447SOL    HW226027   6.580   7.331   1.529  1.8065  1.1397  0.6463
 8448SOL     OW26028   0.829   4.561   3.416 -0.3615  0.5502  0.3612
 8448SOL    HW126029   0.904   4.594   3.466  0.6970  0.1705 -0.9399
 8448SOL    HW226030   0.823   4.619   3.340 -1.9231  1.0841  0.8449
 8449SOL     OW26031   7.111   3.534   4.368  0.1214  0.0092  0.1419
 8449SOL    HW126032   7.053   3.473   4.414  1.3271 -1.1598  0.1706
 8449SOL    HW226033   7.196   3.490   4.367  1.0594  1.7613  0.2553
 8450SOL     OW26034   2.732   0.184   3.921 -0.3342 -0.2470  0.3251
 8450SOL    HW126035   2.678   0.235   3.981 -0.6076  3.6401 -2.7848
 8450SOL    HW226036   2.822   0.211   3.941 -0.1516 -1.2402  0.8831
 8451SOL     OW26037   5.272   4.283   0.804  0.7824 -0.1702  0.1648
 8451SOL    HW126038   5.204   4.351   0.803  0.3201 -0.4896  2.7881
 8451SOL    HW226039   5.350   4.328   0.836  1.5809 -0.0466 -1.8385
 8452SOL     OW26040   5.070   7.409   6.673  0.0562 -0.2746 -0.3603
 8452SOL    HW126041   5.094   7.491   6.716  0.3095  0.0982 -1.1830
 8452SOL    HW226042   5.001   7.434   6.611 -0.3318 -0.8031 -0.1453
 8453SOL     OW26043   1.949   3.157   0.443 -0.0705  0.1617 -0.1176
 8453SOL    HW126044   2.000   3.235   0.463  0.7963 -0.8474  1.9485
 8453SOL    HW226045   1.920   3.125   0.529 -1.1815 -1.2678 -0.9764
 8454SOL     OW26046   5.802   4.919   6.685 -0.5188  0.3117 -0.5633
 8454SOL    HW126047   5.769   4.999   6.643  0.5284 -0.3404 -2.7841
 8454SOL    HW226048   5.890   4.908   6.650 -0.0932 -1.0330  0.8473
 8455SOL     OW26049   6.545   5.809   1.244  0.7646 -0.4128 -0.5750
 8455SOL    HW126050   6.571   5.748   1.312  2.3255  0.9477  0.1166
 8455SOL    HW226051   6.559   5.761   1.162 -1.5945 -2.2307  0.0038
 8456SOL     OW26052   4.436   3.760   6.278 -0.0921  0.2503  0.4578
 8456SOL    HW126053   4.524   3.763   6.316  0.8319  0.9170 -1.5721
 8456SOL    HW226054   4.448   3.792   6.189 -1.9289 -2.2432 -0.8008
 8457SOL     OW26055   1.371   7.300   3.392  0.0818  0.2864 -0.0260
 8457SOL    HW126056   1.305   7.299   3.322 -0.9690  0.9951  0.9189
 8457SOL    HW226057   1.330   7.349   3.463  0.9828 -0.7046  1.2331
 8458SOL     OW26058   2.458   0.949   6.969 -0.2791 -0.6321 -0.0480
 8458SOL    HW126059   2.440   1.041   6.989  0.3200 -0.7970  1.3827
 8458SOL    HW226060   2.397   0.928   6.898 -2.2240  0.1820  1.2810
 8459SOL     OW26061   4.575   7.340   3.858  0.2253 -0.3310  0.0083
 8459SOL    HW126062   4.622   7.380   3.784 -0.8390 -1.2576 -1.2211
 8459SOL    HW226063   4.637   7.276   3.894  1.8436  2.0636  1.8209
 8460SOL     OW26064   5.305   0.747   7.258  0.2359  0.1371  0.6834
 8460SOL    HW126065   5.370   0.701   7.205 -0.9426 -0.1023 -0.6103
 8460SOL    HW226066   5.260   0.677   7.305 -0.1418  0.1636  0.3591
 8461SOL     OW26067   4.414   4.853   0.265  0.8107  0.3019 -0.0388
 8461SOL    HW126068   4.384   4.919   0.326  2.9907  1.2633  0.0891
 8461SOL    HW226069   4.342   4.843   0.203 -0.5318  0.9627  1.3515
 8462SOL     OW26070   1.221   5.727   0.190  0.3365 -0.2209 -0.6788
 8462SOL    HW126071   1.161   5.800   0.205  0.6130 -0.4457  1.8905
 8462SOL    HW226072   1.269   5.717   0.272  1.6682 -2.0828 -1.5960
 8463SOL     OW26073   2.359   2.172   1.958  0.3781  0.4351  0.3853
 8463SOL    HW126074   2.285   2.113   1.976 -1.4030  2.6232  0.6260
 8463SOL    HW226075   2.352   2.191   1.865  0.5707  0.7651  0.4382
 8464SOL     OW26076   7.368   4.130   6.393  1.1436  0.2120 -0.4946
 8464SOL    HW126077   7.362   4.112   6.299  0.8391 -2.0931 -0.1052
 8464SOL    HW226078   7.454   4.171   6.405  1.8220 -0.8244 -1.6122
 8465SOL     OW26079   4.693   0.078   0.560 -0.2445 -0.1069  0.0844
 8465SOL    HW126080   4.719   0.115   0.475  0.9966  0.2419  0.5893
 8465SOL    HW226081   4.723  -0.013   0.556 -1.3942 -0.4807 -0.3487
 8466SOL     OW26082   4.843   7.085   6.697  0.2524  0.0414 -0.2482
 8466SOL    HW126083   4.934   7.077   6.670  0.5912  0.2600  0.7639
 8466SOL    HW226084   4.839   7.167   6.746 -1.0795  1.4103 -2.4904
 8467SOL     OW26085   1.961   7.246   4.849  0.0889  0.1508  0.3678
 8467SOL    HW126086   1.982   7.337   4.828  1.2527  0.0551  1.0929
 8467SOL    HW226087   1.998   7.231   4.935  0.2007 -1.1168  0.1218
 8468SOL     OW26088   1.386   6.976   5.648 -0.4515 -0.5256  0.4510
 8468SOL    HW126089   1.345   6.890   5.656 -0.3212 -0.5321  1.0697
 8468SOL    HW226090   1.382   6.995   5.554  0.5705 -1.7267  0.1249
 8469SOL     OW26091   1.301   3.696   6.818 -0.1849 -0.2953  0.4659
 8469SOL    HW126092   1.394   3.688   6.842  0.0542 -0.0800 -0.3586
 8469SOL    HW226093   1.283   3.617   6.767  0.0270  0.4854 -0.8668
 8470SOL     OW26094   3.669   2.275   1.092 -1.0675  0.2650  0.7235
 8470SOL    HW126095   3.608   2.227   1.148  0.0607 -1.7928  0.2585
 8470SOL    HW226096   3.625   2.280   1.007 -1.0998 -0.1409  0.7161
 8471SOL     OW26097   0.026   4.326   3.954 -0.2223  0.5431 -0.0164
 8471SOL    HW126098   0.111   4.348   3.916 -0.8358 -0.3074 -2.0070
 8471SOL    HW226099   0.044   4.255   4.015  0.6506  1.1354  0.4185
 8472SOL     OW26100   2.696   0.521   6.129  0.6836  0.1234  0.2410
 8472SOL    HW126101   2.760   0.464   6.087 -0.4495 -0.9393 -0.1116
 8472SOL    HW226102   2.691   0.490   6.219  1.7650  1.2163  0.7128
 8473SOL     OW26103   4.414   1.888   1.495 -0.2176 -0.1497  0.4370
 8473SOL    HW126104   4.476   1.820   1.471 -0.2382 -0.6952  1.8438
 8473SOL    HW226105   4.467   1.967   1.504  0.2117 -0.5098  1.1561
 8474SOL     OW26106   0.473   6.991   2.224 -0.0745  0.4203  0.9481
 8474SOL    HW126107   0.526   6.924   2.180 -0.1387  0.9335  0.0561
 8474SOL    HW226108   0.409   6.942   2.276  0.3445 -0.2034  0.8796
 8475SOL     OW26109   3.067   5.324   4.577  0.0213 -0.2260 -0.5217
 8475SOL    HW126110   3.154   5.292   4.599 -0.3397 -1.1065 -0.3377
 8475SOL    HW226111   3.017   5.245   4.555 -0.5907  0.3103 -1.1117
 8476SOL     OW26112   1.049   1.712   5.310  0.2288 -0.5498  0.6925
 8476SOL    HW126113   1.079   1.799   5.283 -0.6224 -0.6228 -0.5984
 8476SOL    HW226114   1.028   1.721   5.402  0.5700  0.5034  0.6793
 8477SOL     OW26115   3.632   3.210   3.750 -0.0867 -0.0068 -0.0545
 8477SOL    HW126116   3.649   3.303   3.764 -1.3120  0.3709 -0.8989
 8477SOL    HW226117   3.541   3.207   3.721 -0.7941 -1.6829  2.0736
 8478SOL     OW26118   2.964   6.037   4.497  0.0429 -0.0846 -0.2628
 8478SOL    HW126119   3.056   6.051   4.520  0.0104  1.1769 -0.7831
 8478SOL    HW226120   2.932   6.125   4.475 -1.4701 -0.3960  0.5544
 8479SOL     OW26121   5.851   0.031   0.496 -0.6591  0.5174  0.3132
 8479SOL    HW126122   5.903   0.016   0.417 -0.3515 -0.9124  0.7617
 8479SOL    HW226123   5.912   0.071   0.558 -0.1027 -0.9515  0.7627
 8480SOL     OW26124   5.857   3.238   6.494  0.5187  0.4320  0.2243
 8480SOL    HW126125   5.841   3.262   6.585 -0.2157 -0.8124  0.4435
 8480SOL    HW226126   5.809   3.303   6.443  0.0058  0.4868  0.7622
 8481SOL     OW26127   0.457   7.126   3.695  0.0723 -0.0849 -0.5763
 8481SOL    HW126128   0.503   7.051   3.657  0.0330 -0.5931  0.3451
 8481SOL    HW226129   0.368   7.120   3.660  0.4372  0.3421 -1.6011
 8482SOL     OW26130   0.284   6.134   0.838  0.0113  0.0121  0.3212
 8482SOL    HW126131   0.350   6.170   0.897 -0.5515 -0.6613  1.4056
 8482SOL    HW226132   0.298   6.039   0.841  0.2623 -0.0124 -1.0046
 8483SOL     OW26133   0.528   0.408   6.607 -0.4083 -0.1109  0.0780
 8483SOL    HW126134   0.451   0.380   6.657 -0.5603  2.8975  1.7383
 8483SOL    HW226135   0.492   0.453   6.531 -0.2383 -0.3599 -0.1522
 8484SOL     OW26136   2.923   3.770   1.151  0.4495  0.1256  0.1867
 8484SOL    HW126137   2.963   3.689   1.183 -0.4720  0.0537  1.2201
 8484SOL    HW226138   2.887   3.811   1.229  1.0201  1.6246 -0.3014
 8485SOL     OW26139   0.116   0.801   7.643 -0.1330  0.5402 -0.7197
 8485SOL    HW126140   0.120   0.778   7.550  2.0627  0.4271 -0.6508
 8485SOL    HW226141   0.184   0.746   7.684  1.2869  2.9761  0.3748
 8486SOL     OW26142   7.080   2.629   5.306 -0.4274  0.2395  0.2653
 8486SOL    HW126143   7.151   2.693   5.299 -0.5594  0.3326 -0.2703
 8486SOL    HW226144   7.080   2.583   5.222 -0.5355 -0.2549  0.5336
 8487SOL     OW26145   7.570   2.349   0.916 -0.4128  0.1492 -0.5239
 8487SOL    HW126146   7.581   2.428   0.863  0.1431  1.1657  1.0316
 8487SOL    HW226147   7.642   2.292   0.889 -1.1688 -0.1101 -2.0880
 8488SOL     OW26148   7.300   6.182   0.861  0.3213  0.1163  0.7240
 8488SOL    HW126149   7.342   6.097   0.867  1.1419  0.5860  1.9850
 8488SOL    HW226150   7.210   6.166   0.889  0.1433 -0.5304 -0.1567
 8489SOL     OW26151   4.119   3.616   6.954 -0.1600 -0.4485 -0.6153
 8489SOL    HW126152   4.089   3.603   7.045 -0.3230 -2.2852 -0.8802
 8489SOL    HW226153   4.110   3.529   6.914  3.5018 -0.6870 -1.3179
 8490SOL     OW26154   3.743   0.884   1.727  0.5729 -0.1614  0.1140
 8490SOL    HW126155   3.813   0.848   1.781  1.5968  1.1960 -0.2498
 8490SOL    HW226156   3.722   0.814   1.665  2.5209 -0.1856 -0.5958
 8491SOL     OW26157   6.321   1.454   6.276  0.1663 -0.4803  0.3410
 8491SOL    HW126158   6.231   1.465   6.306  0.8712 -0.8402  2.7684
 8491SOL    HW226159   6.339   1.360   6.287  0.9215 -0.3696  0.1394
 8492SOL     OW26160   6.766   1.329   0.037  0.4906  0.0705 -0.0626
 8492SOL    HW126161   6.859   1.354   0.035  0.3702  1.0263  2.1896
 8492SOL    HW226162   6.720   1.404  -0.002  0.6152 -0.1943 -0.7325
 8493SOL     OW26163   2.028   0.711   6.496 -0.3110 -0.4310 -0.0226
 8493SOL    HW126164   2.090   0.775   6.461 -0.3294  0.3530  1.3038
 8493SOL    HW226165   2.036   0.635   6.438  0.6104  0.3165 -0.8991
 8494SOL     OW26166   2.045   2.522   6.487 -0.5802 -0.3009 -0.8188
 8494SOL    HW126167   2.066   2.432   6.511 -0.9275 -0.4258 -0.9713
 8494SOL    HW226168   2.029   2.519   6.393 -2.1165 -0.3938 -0.5807
 8495SOL     OW26169   4.891   6.438   4.302  0.0163  0.1792  0.3270
 8495SOL    HW126170   4.812   6.456   4.353 -1.6008 -0.1291 -1.9077
 8495SOL    HW226171   4.929   6.360   4.343  0.0239  1.1993  2.3390
 8496SOL     OW26172   3.704   5.411   5.991  0.0617 -0.4783  0.3467
 8496SOL    HW126173   3.774   5.474   6.012 -1.3100  0.6426  1.8091
 8496SOL    HW226174   3.727   5.378   5.904  2.0783  0.3048  0.5291
 8497SOL     OW26175   1.653   4.943   6.587 -0.2891  0.0556 -0.0573
 8497SOL    HW126176   1.748   4.932   6.597 -0.1361 -0.2445 -1.5266
 8497SOL    HW226177   1.626   4.866   6.537 -1.3957 -0.1049  0.7660
 8498SOL     OW26178   5.847   6.048   0.365  0.1984  0.2541  0.0817
 8498SOL    HW126179   5.763   6.002   0.353  1.4022 -1.6010 -2.2301
 8498SOL    HW226180   5.848   6.113   0.295  0.6300  0.3802  0.2072
 8499SOL     OW26181   5.357   6.654   6.420 -0.3638  0.1313  0.3717
 8499SOL    HW126182   5.315   6.693   6.496 -1.1893  0.0970 -0.0553
 8499SOL    HW226183   5.285   6.621   6.366  0.1996  0.1530 -0.4258
 8500SOL     OW26184   1.019   2.732   3.923  0.6508  0.2680  0.2316
 8500SOL    HW126185   0.959   2.661   3.901 -0.3357  0.5436  1.8444
 8500SOL    HW226186   1.002   2.800   3.857 -0.9640  0.3998  0.7390
 8501SOL     OW26187   2.342   7.605   4.670 -0.0414 -0.5088  0.2997
 8501SOL    HW126188   2.373   7.546   4.739 -0.2645 -1.9470 -0.7969
 8501SOL    HW226189   2.375   7.567   4.589  1.9052  2.2009 -0.3185
 8502SOL     OW26190   1.962   2.372   3.412  0.1580 -0.0831  0.3246
 8502SOL    HW126191   1.922   2.451   3.448 -2.1247 -1.4903  1.1324
 8502SOL    HW226192   1.968   2.389   3.318 -1.7538  0.5333  0.2626
 8503SOL     OW26193   5.024   7.648   1.953 -0.1706 -0.1856 -0.9202
 8503SOL    HW126194   5.029   7.730   2.002  2.6134 -0.8111  0.0522
 8503SOL    HW226195   5.057   7.671   1.866 -1.2817  0.0878 -1.2887
 8504SOL     OW26196   6.730   4.303   6.516 -0.2213 -0.0191 -0.1515
 8504SOL    HW126197   6.663   4.235   6.520 -0.9752  0.7475  0.5673
 8504SOL    HW226198   6.714   4.358   6.593  0.8815  0.5102 -0.2709
 8505SOL     OW26199   6.238   4.290   2.832 -0.7287  0.6491 -0.0583
 8505SOL    HW126200   6.279   4.349   2.769 -0.4620 -0.5676 -1.0617
 8505SOL    HW226201   6.173   4.242   2.781 -1.6183  0.7394  0.9538
 8506SOL     OW26202   7.518   0.308   6.843  0.0950 -0.4232  0.1761
 8506SOL    HW126203   7.481   0.353   6.919  0.1806 -0.4054  0.2068
 8506SOL    HW226204   7.609   0.335   6.841 -0.2798  0.9134 -0.8951
 8507SOL     OW26205   3.342   6.446   6.012  0.7186  0.0388  0.9411
 8507SOL    HW126206   3.314   6.358   6.038  1.4683 -0.1907  1.0077
 8507SOL    HW226207   3.327   6.500   6.090  2.5067 -0.5458  1.7381
 8508SOL     OW26208   4.321   6.567   7.290  0.4308 -0.0918 -0.0633
 8508SOL    HW126209   4.360   6.481   7.306 -1.2047 -0.5261  2.1716
 8508SOL    HW226210   4.349   6.620   7.365 -0.7954  0.4718  0.0216
 8509SOL     OW26211   0.261   7.069   3.080 -0.0329 -0.2874  0.2096
 8509SOL    HW126212   0.259   7.161   3.054 -0.8204 -0.1926  0.5966
 8509SOL    HW226213   0.354   7.047   3.080  0.0800 -0.0099 -1.6565
 8510SOL     OW26214   2.915   7.065   7.665 -0.3913 -0.3310 -1.0137
 8510SOL    HW126215   2.823   7.087   7.648  0.2310  3.0560 -0.6969
 8510SOL    HW226216   2.963   7.105   7.593  0.8648 -3.0146 -1.7927
 8511SOL     OW26217   3.628   7.379   2.724 -0.3612  0.2475 -0.1690
 8511SOL    HW126218   3.671   7.393   2.639  0.7630  0.0307  0.3486
 8511SOL    HW226219   3.546   7.429   2.718 -0.1073  0.5615 -1.2300
 8512SOL     OW26220   0.110   4.280   4.600  0.2807 -0.4872 -0.6506
 8512SOL    HW126221   0.054   4.223   4.548 -1.1601 -1.1193  1.4786
 8512SOL    HW226222   0.064   4.364   4.601  0.3680 -0.4412 -0.4874
 8513SOL     OW26223   1.427   3.271   2.357 -0.0875 -0.0154 -0.0973
 8513SOL    HW126224   1.414   3.341   2.422 -0.4869 -0.5231  0.3808
 8513SOL    HW226225   1.343   3.225   2.354 -0.5492  0.8494 -2.0212
 8514SOL     OW26226   1.697   3.532   7.198 -0.3931 -0.0187  0.1537
 8514SOL    HW126227   1.680   3.440   7.175  0.3453 -0.1539  0.1291
 8514SOL    HW226228   1.792   3.541   7.190 -0.6626  1.3966 -2.2785
 8515SOL     OW26229   1.274   1.133   7.377  0.4560 -0.0315  0.1928
 8515SOL    HW126230   1.195   1.178   7.406 -0.3660 -0.1893 -1.6743
 8515SOL    HW226231   1.315   1.192   7.314  1.8206  0.0100  1.0635
 8516SOL     OW26232   1.337   0.074   2.156 -0.1962  0.2428 -0.4694
 8516SOL    HW126233   1.327   0.119   2.072  1.4888  0.4515 -0.6033
 8516SOL    HW226234   1.326  -0.019   2.135 -1.7707  0.4254 -0.5396
 8517SOL     OW26235   6.837   4.142   6.856  0.2731  0.4964  0.1632
 8517SOL    HW126236   6.881   4.117   6.937  0.5650 -0.5912 -0.3049
 8517SOL    HW226237   6.807   4.232   6.871  3.1932  1.5732  0.3219
 8518SOL     OW26238   1.180   5.082   6.624  0.2812  0.4260  0.3474
 8518SOL    HW126239   1.124   5.159   6.625  1.2474  1.1668 -0.6472
 8518SOL    HW226240   1.228   5.085   6.707 -0.2418  0.4533  0.6528
 8519SOL     OW26241   7.372   6.451   2.564 -0.3072  0.0856  0.5605
 8519SOL    HW126242   7.438   6.518   2.546 -1.0657  0.4635 -0.9018
 8519SOL    HW226243   7.313   6.454   2.489 -0.2629 -2.3445  0.3520
 8520SOL     OW26244   2.845   0.981   2.768  0.1333 -0.1333 -0.0527
 8520SOL    HW126245   2.862   0.902   2.716 -0.4043 -0.9612  0.9942
 8520SOL    HW226246   2.767   0.959   2.819  1.8941 -0.2409  2.7773
 8521SOL     OW26247   3.475   6.715   7.293 -0.3220 -0.2621  0.7983
 8521SOL    HW126248   3.436   6.705   7.380 -0.1888 -0.0428  0.8830
 8521SOL    HW226249   3.480   6.625   7.258 -2.8152 -0.1232 -0.0630
 8522SOL     OW26250   4.573   6.340   7.630 -0.0405 -0.3923  0.2374
 8522SOL    HW126251   4.586   6.433   7.650  0.6468 -0.3323 -0.4707
 8522SOL    HW226252   4.624   6.325   7.551  1.4015 -1.8114  1.3933
 8523SOL     OW26253   5.378   1.249   3.352  0.3794  0.2359 -0.4406
 8523SOL    HW126254   5.405   1.193   3.425  1.9378  3.7706  1.9483
 8523SOL    HW226255   5.284   1.260   3.364  0.2970 -0.6948 -0.1283
 8524SOL     OW26256   5.414   7.195   2.543  1.2080 -0.2805 -0.4528
 8524SOL    HW126257   5.467   7.233   2.613  1.6548  0.5448 -1.2177
 8524SOL    HW226258   5.466   7.120   2.513  1.1126 -0.5120 -0.0545
 8525SOL     OW26259   3.078   4.320   5.393  0.1524 -0.5145 -0.5602
 8525SOL    HW126260   3.165   4.353   5.368  0.9368 -0.0103  2.4498
 8525SOL    HW226261   3.091   4.226   5.408  1.2552  0.0912  3.3841
 8526SOL     OW26262   3.526   4.982   3.188 -0.1155 -0.2306  0.2957
 8526SOL    HW126263   3.529   4.972   3.283  2.3171 -1.2771  0.1823
 8526SOL    HW226264   3.588   5.052   3.170 -1.4860  0.8262 -0.4800
 8527SOL     OW26265   0.301   1.710   2.158 -0.5037 -0.4339  0.1211
 8527SOL    HW126266   0.289   1.626   2.115  1.0124  0.4004 -2.0846
 8527SOL    HW226267   0.364   1.693   2.228  1.6718 -0.7720 -1.8068
 8528SOL     OW26268   6.438   1.044   2.023  0.2859  0.0830  0.2332
 8528SOL    HW126269   6.400   1.128   2.049  1.7558  1.2439 -1.1524
 8528SOL    HW226270   6.367   0.998   1.978  0.1301  1.6632 -1.2139
 8529SOL     OW26271   0.257   2.203   0.306 -0.0129  0.0875 -0.2747
 8529SOL    HW126272   0.334   2.179   0.253  0.6814 -2.2824  1.6498
 8529SOL    HW226273   0.294   2.240   0.386 -1.0286  2.4588 -0.8178
 8530SOL     OW26274   4.890   2.193   3.913  0.4064 -0.5727 -0.2117
 8530SOL    HW126275   4.960   2.258   3.905  0.1784 -0.2316  0.4913
 8530SOL    HW226276   4.810   2.246   3.920  0.0034 -0.9597 -1.5625
 8531SOL     OW26277   0.510   6.029   3.850  0.2857  0.0261 -0.1240
 8531SOL    HW126278   0.433   6.083   3.866  1.2074  1.3852 -0.0798
 8531SOL    HW226279   0.484   5.968   3.782 -1.0193  0.0332  0.3523
 8532SOL     OW26280   3.422   6.494   4.440 -0.0325 -0.4267  0.3414
 8532SOL    HW126281   3.508   6.454   4.426 -0.3004 -0.3889 -1.8388
 8532SOL    HW226282   3.429   6.536   4.526  2.2276 -0.2060  0.1302
 8533SOL     OW26283   6.147   4.442   6.318  0.5421  0.0956  0.2538
 8533SOL    HW126284   6.201   4.366   6.337  1.5037  0.8048  0.4620
 8533SOL    HW226285   6.058   4.413   6.335  1.0481 -0.3481  2.6226
 8534SOL     OW26286   1.440   4.075   7.613  0.4221  0.2783 -0.2850
 8534SOL    HW126287   1.421   3.985   7.637 -2.1933  0.7212 -0.4389
 8534SOL    HW226288   1.484   4.112   7.690 -0.7882 -0.4492  0.7891
 8535SOL     OW26289   3.978   3.171   2.128 -0.2364 -0.4122  0.1654
 8535SOL    HW126290   3.979   3.076   2.122 -2.6237 -0.5324  0.8611
 8535SOL    HW226291   3.946   3.200   2.042 -1.2670 -0.3486  0.5635
 8536SOL     OW26292   2.479   2.163   3.753 -0.5685 -0.0436  0.2492
 8536SOL    HW126293   2.546   2.100   3.780 -0.2416  0.6281  1.0459
 8536SOL    HW226294   2.396   2.117   3.770 -0.3390 -1.0844 -1.2529
 8537SOL     OW26295   4.498   3.302   4.732  0.5425 -0.3849  0.9221
 8537SOL    HW126296   4.523   3.246   4.659  0.9273 -0.1623  0.8829
 8537SOL    HW226297   4.417   3.344   4.702  0.9901  0.1208  0.3986
 8538SOL     OW26298   3.170   3.330   6.675 -0.3360 -0.0756 -0.4207
 8538SOL    HW126299   3.206   3.410   6.638  0.8383 -1.1895 -1.8268
 8538SOL    HW226300   3.216   3.319   6.758 -0.9827  1.0232  0.1014
 8539SOL     OW26301   3.904   1.726   2.229 -0.2907 -0.3847  0.1390
 8539SOL    HW126302   3.844   1.754   2.160  0.6715  0.2932 -0.4554
 8539SOL    HW226303   3.848   1.684   2.294 -1.1788 -1.7159 -1.3780
 8540SOL     OW26304   6.238   2.045   5.947  0.2560  0.2918 -0.0426
 8540SOL    HW126305   6.294   2.010   5.878  1.8132 -2.7983  2.5146
 8540SOL    HW226306   6.149   2.030   5.915  0.9246 -1.2400 -1.3570
 8541SOL     OW26307   2.373   5.083   6.731 -0.1571 -0.5565  0.1855
 8541SOL    HW126308   2.415   5.167   6.748 -1.3358 -0.3301  2.3852
 8541SOL    HW226309   2.297   5.104   6.678 -0.3082 -0.2481  0.5205
 8542SOL     OW26310   1.755   1.642   7.547 -0.4417 -0.2656 -0.0333
 8542SOL    HW126311   1.723   1.578   7.484  0.0235  1.1624 -1.8332
 8542SOL    HW226312   1.715   1.725   7.520 -0.8098  0.2892  2.0410
 8543SOL     OW26313   7.356   0.066   6.248  0.5337  0.0891 -0.9662
 8543SOL    HW126314   7.397   0.042   6.165  0.1097 -1.7832 -0.6701
 8543SOL    HW226315   7.269   0.026   6.244  0.0784  0.9389 -0.0680
 8544SOL     OW26316   4.217   7.385   7.138  0.3331 -0.6024 -0.4852
 8544SOL    HW126317   4.217   7.456   7.202 -0.7432 -2.4422  1.7080
 8544SOL    HW226318   4.156   7.414   7.070 -1.9669 -0.3567  1.5673
 8545SOL     OW26319   6.128   7.737   3.362  0.0504  1.2204  0.3093
 8545SOL    HW126320   6.151   7.761   3.451 -1.7225  0.0955  1.1278
 8545SOL    HW226321   6.075   7.810   3.330  0.4966  1.5215  0.2529
 8546SOL     OW26322   7.162   5.012   5.453 -0.4233  0.4248 -0.3164
 8546SOL    HW126323   7.088   5.066   5.425 -0.0209  0.9289 -0.4291
 8546SOL    HW226324   7.235   5.074   5.459  0.4472 -0.3622 -2.0456
 8547SOL     OW26325   1.725   7.589   6.816  0.0006 -0.0046 -0.0526
 8547SOL    HW126326   1.778   7.526   6.865  0.3547  0.3149 -0.0231
 8547SOL    HW226327   1.787   7.631   6.756 -0.0733  0.8848  0.4827
 8548SOL     OW26328   4.389   5.902   1.108 -0.3564  0.4271 -0.1637
 8548SOL    HW126329   4.430   5.924   1.192  1.3758  2.1299 -1.3711
 8548SOL    HW226330   4.346   5.982   1.081 -1.8661 -0.4327 -0.4432
 8549SOL     OW26331   0.737   0.477   0.478  0.6316 -0.2694 -0.0224
 8549SOL    HW126332   0.666   0.503   0.536  0.1296 -1.0965 -0.2396
 8549SOL    HW226333   0.808   0.451   0.536  0.2417 -0.7955  0.2382
 8550SOL     OW26334   5.618   7.323   0.462  0.1697  0.3431 -0.1094
 8550SOL    HW126335   5.690   7.386   0.462  0.8483 -0.4027  0.8032
 8550SOL    HW226336   5.639   7.262   0.391  0.4020  0.1754  0.1012
 8551SOL     OW26337   3.027   7.642   5.950 -0.1794  0.4827 -0.0348
 8551SOL    HW126338   3.058   7.563   5.993 -0.5377  0.2313 -0.2319
 8551SOL    HW226339   3.085   7.712   5.982 -1.6359  0.6632  2.3429
 8552SOL     OW26340   3.268   1.494   4.154 -0.1330 -0.0204  0.1228
 8552SOL    HW126341   3.222   1.454   4.228 -0.9285  0.0428 -0.3356
 8552SOL    HW226342   3.356   1.512   4.188  0.2430 -2.0942  0.3802
 8553SOL     OW26343   2.138   3.607   6.930  0.3472 -0.2521 -0.0944
 8553SOL    HW126344   2.200   3.678   6.947  0.7415  0.0215 -2.3747
 8553SOL    HW226345   2.193   3.531   6.914  0.0858 -0.2091 -1.2678
 8554SOL     OW26346   5.791   3.877   4.373  0.1759  0.2609 -0.0305
 8554SOL    HW126347   5.697   3.867   4.362  0.1214 -0.7575  1.1730
 8554SOL    HW226348   5.808   3.851   4.463  1.8040 -1.1270 -0.6751
 8555SOL     OW26349   2.086   2.985   0.243 -0.0665 -0.6490 -0.1287
 8555SOL    HW126350   2.173   2.963   0.276 -0.2340  1.0199  1.6046
 8555SOL    HW226351   2.048   3.040   0.311 -3.0058 -2.3748 -0.2221
 8556SOL     OW26352   6.062   0.186   6.542  0.0251 -0.0483  0.2474
 8556SOL    HW126353   6.038   0.129   6.615  0.1986  0.6868  0.8913
 8556SOL    HW226354   6.061   0.274   6.579 -1.8621  0.5773 -1.1207
 8557SOL     OW26355   3.167   7.448   4.680 -0.1538  0.0924  0.0921
 8557SOL    HW126356   3.086   7.436   4.631 -0.2676 -0.9229  0.4936
 8557SOL    HW226357   3.215   7.516   4.632 -0.2593 -0.8617 -1.4322
 8558SOL     OW26358   5.942   4.485   1.091  0.1710 -0.2174  0.1180
 8558SOL    HW126359   6.006   4.414   1.101 -0.3090 -0.6619  0.0926
 8558SOL    HW226360   5.859   4.440   1.079 -0.1859  0.3601  0.4006
 8559SOL     OW26361   3.094   1.750   1.822  0.1274 -0.0582 -0.2533
 8559SOL    HW126362   3.051   1.835   1.821  0.0437 -0.0618  1.1479
 8559SOL    HW226363   3.035   1.694   1.873 -0.8233 -1.5407 -2.7460
 8560SOL     OW26364   5.984   3.977   3.427  0.1825 -0.0307  0.0864
 8560SOL    HW126365   5.889   3.973   3.415  0.1002 -1.8742  0.9041
 8560SOL    HW226366   6.020   3.941   3.346  0.1894  0.4206 -0.1157
 8561SOL     OW26367   5.354   3.634   2.231 -0.3300  0.2215 -0.1427
 8561SOL    HW126368   5.293   3.564   2.206 -1.4208  0.7327  0.9877
 8561SOL    HW226369   5.357   3.692   2.155 -2.4065  0.9490  0.2576
 8562SOL     OW26370   6.625   2.054   2.223 -0.3262  0.2660  0.3400
 8562SOL    HW126371   6.685   2.055   2.298  0.5552  1.5226 -0.3374
 8562SOL    HW226372   6.611   1.961   2.205  1.7670 -0.0833  0.2836
 8563SOL     OW26373   3.587   1.167   6.265 -0.2707  0.2115 -0.1399
 8563SOL    HW126374   3.675   1.202   6.256  0.9544 -2.4953  0.3434
 8563SOL    HW226375   3.549   1.171   6.177  0.5247  0.8811 -0.4599
 8564SOL     OW26376   4.875   5.066   0.904 -0.6025 -0.0204 -0.2230
 8564SOL    HW126377   4.930   5.075   0.981 -0.6702 -1.9768  0.1148
 8564SOL    HW226378   4.928   5.099   0.832 -0.2340  1.0773  0.5269
 8565SOL     OW26379   5.398   2.108   2.928  0.1654 -0.0923  0.2063
 8565SOL    HW126380   5.363   2.056   2.856 -1.8170 -0.6359  1.4730
 8565SOL    HW226381   5.493   2.112   2.912  0.3287 -3.4357 -0.3888
 8566SOL     OW26382   7.775   2.363   6.588  0.3335  0.0962 -0.6941
 8566SOL    HW126383   7.835   2.384   6.660  0.2251 -3.1015  0.5057
 8566SOL    HW226384   7.696   2.413   6.607  0.7917  0.3621  0.6286
 8567SOL     OW26385   4.005   2.984   6.359 -0.6725  0.0561  0.3596
 8567SOL    HW126386   4.060   3.060   6.339  0.8687 -0.6117  1.7714
 8567SOL    HW226387   4.061   2.909   6.339 -0.9203 -0.6468  2.1706
 8568SOL     OW26388   3.193   3.820   6.203  0.4507  0.4636  0.0712
 8568SOL    HW126389   3.224   3.731   6.220 -2.9645 -1.0019 -0.6475
 8568SOL    HW226390   3.143   3.843   6.281 -0.3107  0.9724 -0.5577
 8569SOL     OW26391   4.431   4.098   1.805  0.1111  0.2854 -0.1368
 8569SOL    HW126392   4.497   4.145   1.855 -0.4825 -0.9856  1.9384
 8569SOL    HW226393   4.391   4.165   1.749  0.9292  1.7314  0.9531
 8570SOL     OW26394   6.949   6.063   6.465  1.1096 -0.6932  0.0438
 8570SOL    HW126395   6.939   5.973   6.494 -0.3692 -0.6868 -0.3644
 8570SOL    HW226396   7.030   6.093   6.506  0.9332 -1.7884  1.2477
 8571SOL     OW26397   6.870   4.421   7.620 -0.4672 -0.7710  0.2480
 8571SOL    HW126398   6.893   4.417   7.527  2.2276  0.7396  0.7494
 8571SOL    HW226399   6.914   4.345   7.659  1.2711  0.4584  0.7614
 8572SOL     OW26400   1.207   1.996   2.073  0.0030 -0.2003  0.2371
 8572SOL    HW126401   1.288   1.951   2.050  1.1220  2.1152 -0.6092
 8572SOL    HW226402   1.230   2.089   2.075 -2.8305  0.6342 -0.8995
 8573SOL     OW26403   3.114   3.494   0.084 -0.0029 -0.3549  0.6662
 8573SOL    HW126404   3.024   3.481   0.116  0.1230 -0.5173  0.9616
 8573SOL    HW226405   3.113   3.461  -0.005 -0.0023 -1.2454  0.9859
 8574SOL     OW26406   0.173   2.314   4.491 -0.4337 -0.0873  0.4751
 8574SOL    HW126407   0.138   2.234   4.528  0.3252 -0.5902  0.1258
 8574SOL    HW226408   0.128   2.323   4.406  1.5168 -1.7113 -0.8225
 8575SOL     OW26409   2.242   4.648   5.522 -0.4537  0.4466 -0.2301
 8575SOL    HW126410   2.177   4.581   5.546  0.2115 -1.2279 -2.7114
 8575SOL    HW226411   2.315   4.632   5.581 -0.5727 -0.5894 -0.3478
 8576SOL     OW26412   3.004   0.639   4.315  0.3325  0.5448 -0.3356
 8576SOL    HW126413   2.998   0.637   4.219  0.1697 -0.6208 -0.3149
 8576SOL    HW226414   2.968   0.724   4.339 -1.9480 -0.1247 -1.1701
 8577SOL     OW26415   2.050   5.316   1.380  0.5628  0.7849  0.3229
 8577SOL    HW126416   2.087   5.303   1.467 -0.1907 -0.7102  0.4527
 8577SOL    HW226417   2.066   5.234   1.334 -0.8782  0.7872 -0.2442
 8578SOL     OW26418   5.688   1.524   4.320 -0.8668 -0.0093 -0.0928
 8578SOL    HW126419   5.735   1.607   4.309 -0.3733 -0.5611 -2.6857
 8578SOL    HW226420   5.608   1.548   4.368 -0.4077  1.8283 -0.1676
 8579SOL     OW26421   7.672   4.210   3.169  0.1052 -0.2033 -0.5362
 8579SOL    HW126422   7.759   4.201   3.206 -1.2823 -2.1733  2.7043
 8579SOL    HW226423   7.617   4.234   3.243 -2.2691  0.2333 -2.3081
 8580SOL     OW26424   2.673   2.121   5.136 -0.2176  0.3225  0.4875
 8580SOL    HW126425   2.591   2.080   5.107 -0.9135  0.7790  1.7119
 8580SOL    HW226426   2.694   2.077   5.219 -0.5819  1.8599  1.4421
 8581SOL     OW26427   2.768   4.054   7.117  0.0376 -0.5081  0.0536
 8581SOL    HW126428   2.699   4.116   7.142 -0.1782 -1.0399  0.8062
 8581SOL    HW226429   2.731   3.968   7.135  0.4469 -0.8537 -0.7043
 8582SOL     OW26430   6.882   2.680   4.715 -0.2884 -0.1543  0.5843
 8582SOL    HW126431   6.826   2.630   4.656 -0.3896 -0.6224  1.0669
 8582SOL    HW226432   6.862   2.772   4.695 -1.1658 -0.3153  0.6901
 8583SOL     OW26433   3.266   6.830   6.875  0.2557 -0.5880  0.1478
 8583SOL    HW126434   3.342   6.845   6.931 -0.1905  2.1773  0.1662
 8583SOL    HW226435   3.281   6.888   6.800 -1.2017 -1.0217 -0.5013
 8584SOL     OW26436   2.343   2.449   0.651 -0.1188  0.2079  0.1086
 8584SOL    HW126437   2.370   2.385   0.585  0.5875 -0.7507  1.2813
 8584SOL    HW226438   2.255   2.423   0.675 -0.6077  0.9098 -0.8338
 8585SOL     OW26439   3.756   6.549   5.162  0.3427  0.0734 -0.1949
 8585SOL    HW126440   3.841   6.532   5.122  0.2015  0.3109 -0.5945
 8585SOL    HW226441   3.746   6.644   5.159  1.0028  0.2607  1.7604
 8586SOL     OW26442   0.633   6.552   2.853 -0.2831 -0.2374 -0.4580
 8586SOL    HW126443   0.574   6.571   2.780 -0.7312  0.4023  0.0608
 8586SOL    HW226444   0.584   6.579   2.931 -0.3443 -2.1302  0.2035
 8587SOL     OW26445   3.497   2.460   5.188  0.1352  0.3205  0.2431
 8587SOL    HW126446   3.553   2.458   5.266  1.8843  1.0050 -0.9368
 8587SOL    HW226447   3.485   2.553   5.170 -1.6837  0.1917  0.6272
 8588SOL     OW26448   5.785   6.761   2.493 -0.5981 -0.2634 -0.4257
 8588SOL    HW126449   5.831   6.757   2.409  1.9084  0.4257  0.8176
 8588SOL    HW226450   5.751   6.673   2.505  1.1474 -1.0904 -1.0913
 8589SOL     OW26451   3.920   7.198   5.895  0.9006  0.0779 -0.1298
 8589SOL    HW126452   3.838   7.221   5.938  0.6142  1.1051 -1.1656
 8589SOL    HW226453   3.987   7.246   5.945  0.5369  1.5225 -0.9711
 8590SOL     OW26454   6.767   0.728   4.164  0.0230 -0.4197 -0.4134
 8590SOL    HW126455   6.860   0.746   4.178  0.1305 -1.4929  0.4370
 8590SOL    HW226456   6.763   0.691   4.076  0.2038  0.8105 -0.9613
 8591SOL     OW26457   4.280   3.562   0.018 -0.0639 -0.2527  0.2634
 8591SOL    HW126458   4.266   3.627  -0.051  1.1022  0.1388  0.3769
 8591SOL    HW226459   4.373   3.542   0.013  0.0699 -0.1024  1.8411
 8592SOL     OW26460   0.666   0.730   7.482  0.1813  0.0873  0.0275
 8592SOL    HW126461   0.709   0.709   7.400 -1.8491  1.0369 -1.3629
 8592SOL    HW226462   0.577   0.695   7.473 -0.4291  1.1614  1.3549
 8593SOL     OW26463   6.869   0.148   6.996 -0.0352 -0.0091  0.0925
 8593SOL    HW126464   6.919   0.120   7.073 -0.8802  0.9775  1.0375
 8593SOL    HW226465   6.780   0.115   7.012 -0.2701  0.4012 -0.3494
 8594SOL     OW26466   5.281   4.749   5.056  0.4811 -0.2327 -0.0426
 8594SOL    HW126467   5.212   4.696   5.016  0.9831 -0.6931 -0.3116
 8594SOL    HW226468   5.234   4.818   5.104 -0.1567 -0.4605 -0.3326
 8595SOL     OW26469   3.452   6.317   1.534 -0.5167 -0.2960 -0.6031
 8595SOL    HW126470   3.452   6.302   1.629 -0.3253  2.0517 -0.1783
 8595SOL    HW226471   3.360   6.326   1.511 -0.6823 -2.4429 -0.9779
 8596SOL     OW26472   2.468   4.717   4.258 -0.4413  0.5178 -0.1807
 8596SOL    HW126473   2.548   4.747   4.300 -1.0034 -2.5845  3.6701
 8596SOL    HW226474   2.400   4.774   4.293 -0.6247 -0.7411  1.6355
 8597SOL     OW26475   5.962   0.122   5.512 -0.2842  0.2037 -0.0678
 8597SOL    HW126476   5.914   0.113   5.430 -2.5266 -0.0054  1.1794
 8597SOL    HW226477   5.902   0.170   5.570  2.1450  2.4854  0.7530
 8598SOL     OW26478   5.208   4.594   7.083  0.0042 -0.2251  0.2231
 8598SOL    HW126479   5.116   4.610   7.106  0.6345  1.8628  1.5298
 8598SOL    HW226480   5.238   4.532   7.150 -0.0832  0.2516  0.7154
 8599SOL     OW26481   7.155   3.326   1.804  0.0767 -0.0934  0.6216
 8599SOL    HW126482   7.167   3.232   1.790  3.3126  0.4410 -1.1533
 8599SOL    HW226483   7.197   3.343   1.889 -0.7872 -0.2563  1.0932
 8600SOL     OW26484   1.217   7.563   4.703  0.0787  0.0810 -0.0926
 8600SOL    HW126485   1.164   7.517   4.637 -1.6971  0.2898  1.1077
 8600SOL    HW226486   1.272   7.495   4.740 -0.4372 -0.4868 -0.3405
 8601SOL     OW26487   3.110   6.244   5.804  0.2705 -0.2515  0.1098
 8601SOL    HW126488   3.023   6.247   5.845  0.4572  0.0869  0.4852
 8601SOL    HW226489   3.170   6.229   5.877  0.7891  2.0570  0.2164
 8602SOL     OW26490   4.929   0.220   1.334  0.0991 -0.2096  0.2814
 8602SOL    HW126491   5.023   0.233   1.318  0.2771 -1.2743  0.3844
 8602SOL    HW226492   4.894   0.195   1.248  0.1486 -1.0143  0.4815
 8603SOL     OW26493   0.924   0.789   3.082 -0.3063  0.0945 -0.0972
 8603SOL    HW126494   0.932   0.834   3.166 -0.8730 -0.9566  0.5434
 8603SOL    HW226495   0.908   0.859   3.019  1.0872  1.0018  0.4994
 8604SOL     OW26496   4.198   6.552   4.186 -0.7402  0.3581 -0.1940
 8604SOL    HW126497   4.111   6.557   4.147 -0.7365 -0.3112 -0.3093
 8604SOL    HW226498   4.205   6.630   4.241 -1.2778  0.5918 -0.4539
 8605SOL     OW26499   3.867   0.425   0.679  0.2223 -0.2138  0.0133
 8605SOL    HW126500   3.903   0.361   0.741 -0.9999  0.5795  1.6311
 8605SOL    HW226501   3.774   0.430   0.702 -0.4864 -0.5657 -2.5555
 8606SOL     OW26502   5.530   7.402   2.240 -0.1492 -0.5944  0.2463
 8606SOL    HW126503   5.511   7.430   2.150  0.3479  0.7737  0.5495
 8606SOL    HW226504   5.444   7.392   2.280 -0.4929  3.6441  1.0242
 8607SOL     OW26505   6.592   0.567   7.519  0.4110  0.2559 -0.7564
 8607SOL    HW126506   6.638   0.484   7.505  1.7291  0.7060  0.5402
 8607SOL    HW226507   6.518   0.544   7.574 -1.2275 -0.5362 -3.1487
 8608SOL     OW26508   3.416   2.603   7.143 -0.2709 -0.4474  0.0747
 8608SOL    HW126509   3.411   2.599   7.239  0.5128 -2.5797  0.0775
 8608SOL    HW226510   3.509   2.616   7.125 -0.0616 -2.2887 -0.3782
 8609SOL     OW26511   6.382   7.112   6.877  0.1810 -0.4447 -0.0250
 8609SOL    HW126512   6.415   7.125   6.788  1.3719 -1.0175  0.3067
 8609SOL    HW226513   6.295   7.151   6.877  0.0535 -0.6987 -1.5181
 8610SOL     OW26514   0.418   0.664   5.292  0.3436  0.1627  0.1897
 8610SOL    HW126515   0.358   0.721   5.339  0.6244  2.1554 -1.7030
 8610SOL    HW226516   0.385   0.576   5.308 -1.5300  1.0083  1.2982
 8611SOL     OW26517   2.922   2.709   1.357 -0.1141 -0.0143 -0.5142
 8611SOL    HW126518   2.872   2.743   1.431  0.1816 -0.7665  0.0425
 8611SOL    HW226519   3.013   2.710   1.387 -0.0957 -1.2959 -0.4697
 8612SOL     OW26520   1.556   7.564   0.700 -0.4039 -0.1543  0.6961
 8612SOL    HW126521   1.616   7.534   0.632 -0.0029  1.2587  0.4068
 8612SOL    HW226522   1.605   7.556   0.782  0.3207  1.2934  0.4270
 8613SOL     OW26523   1.665   2.008   2.451  0.0943  0.3158 -0.7315
 8613SOL    HW126524   1.637   2.050   2.370  0.9753 -0.1115 -1.2687
 8613SOL    HW226525   1.696   1.922   2.424 -0.8602 -0.3646  0.2372
 8614SOL     OW26526   6.190   0.213   0.109 -0.0402  0.0163 -0.0556
 8614SOL    HW126527   6.143   0.285   0.067 -0.2040 -0.1534 -0.1638
 8614SOL    HW226528   6.160   0.214   0.199 -0.7380 -0.4982 -0.2774
 8615SOL     OW26529   2.731   3.394   6.812 -0.4290 -0.4732  0.6005
 8615SOL    HW126530   2.819   3.407   6.778  0.2884  0.3032  2.5688
 8615SOL    HW226531   2.691   3.328   6.755  1.2569 -0.5010 -0.5923
 8616SOL     OW26532   7.172   7.163   1.256  0.0714  0.4094 -0.0928
 8616SOL    HW126533   7.128   7.091   1.209  2.1020 -0.6561 -0.4584
 8616SOL    HW226534   7.156   7.144   1.348 -0.4557  0.2058 -0.2164
 8617SOL     OW26535   6.269   7.603   0.309  0.0290 -0.2296 -0.1140
 8617SOL    HW126536   6.272   7.589   0.403  0.1108  0.9146  0.0566
 8617SOL    HW226537   6.355   7.637   0.286 -0.4314  0.7941 -0.3778
 8618SOL     OW26538   5.882   2.210   6.853 -0.1809 -0.1986 -0.2655
 8618SOL    HW126539   5.808   2.209   6.915 -0.1795  2.8925 -0.0804
 8618SOL    HW226540   5.850   2.162   6.777 -1.5649 -0.8121  0.6582
 8619SOL     OW26541   7.217   4.615   6.969  0.4167 -0.2740  0.1997
 8619SOL    HW126542   7.296   4.594   7.019  0.8141 -0.3913 -0.4733
 8619SOL    HW226543   7.243   4.604   6.877 -0.0477  0.7873 -0.0713
 8620SOL     OW26544   6.096   5.880   4.455  0.1165 -0.1725 -0.1145
 8620SOL    HW126545   6.016   5.897   4.505  0.1554  0.6718 -0.3267
 8620SOL    HW226546   6.114   5.962   4.409  0.4613 -0.7261 -0.9841
 8621SOL     OW26547   4.143   1.081   7.081  0.8360  0.5552  0.1706
 8621SOL    HW126548   4.175   1.106   7.168  1.1020  1.0969 -0.0779
 8621SOL    HW226549   4.154   1.159   7.027  1.0254  0.1175 -0.4474
 8622SOL     OW26550   1.180   3.684   1.794  0.5098  0.5970  0.6191
 8622SOL    HW126551   1.127   3.635   1.857  0.4378  1.9035  1.6222
 8622SOL    HW226552   1.140   3.771   1.791  1.6669  1.1394  0.2235
 8623SOL     OW26553   6.341   6.400   0.332 -0.1971  0.0297  0.2700
 8623SOL    HW126554   6.309   6.310   0.335 -3.0037  0.8575 -1.0576
 8623SOL    HW226555   6.274   6.451   0.376  0.8443  1.6074  0.1132
 8624SOL     OW26556   0.443   1.575   2.808 -0.1042 -0.0054  0.0616
 8624SOL    HW126557   0.518   1.529   2.773  0.2525  0.2653  0.4535
 8624SOL    HW226558   0.368   1.542   2.759  0.3211  0.0087 -0.5987
 8625SOL     OW26559   4.422   3.554   3.429  1.0978  0.2223  0.3182
 8625SOL    HW126560   4.351   3.494   3.406  2.0143 -0.3061 -1.3803
 8625SOL    HW226561   4.382   3.619   3.486 -0.7897  0.0574 -0.7381
 8626SOL     OW26562   1.811   0.878   5.055 -0.9780 -0.5559 -0.2827
 8626SOL    HW126563   1.812   0.816   4.982 -0.5287 -1.0096  0.0975
 8626SOL    HW226564   1.854   0.956   5.020  0.4144 -1.2243 -0.1358
 8627SOL     OW26565   0.449   5.759   1.369  1.1461 -0.6141 -0.0060
 8627SOL    HW126566   0.411   5.840   1.335  0.2126 -0.9982  0.1014
 8627SOL    HW226567   0.542   5.766   1.349  0.8912 -0.0420 -1.0574
 8628SOL     OW26568   5.343   0.202   3.888 -0.3291  0.1895 -0.0868
 8628SOL    HW126569   5.288   0.128   3.862 -0.9619  0.4165  0.5452
 8628SOL    HW226570   5.280   0.266   3.923  0.4777 -0.3164  2.4897
 8629SOL     OW26571   1.162   7.151   1.582 -0.0430 -0.2633 -0.4223
 8629SOL    HW126572   1.103   7.082   1.550  0.1054  0.3092 -2.0273
 8629SOL    HW226573   1.216   7.108   1.649 -1.0559 -1.2612 -0.2120
 8630SOL     OW26574   0.793   5.859   5.861  0.1352  0.3011  0.7581
 8630SOL    HW126575   0.807   5.894   5.772  1.4755 -0.9406  0.4463
 8630SOL    HW226576   0.866   5.894   5.912 -0.0123  0.0995  1.1101
 8631SOL     OW26577   6.271   4.125   3.879  0.4191  0.1061  0.0167
 8631SOL    HW126578   6.205   4.180   3.922  0.9803 -0.8850  2.2537
 8631SOL    HW226579   6.261   4.039   3.919  1.3435 -0.7686 -1.5088
 8632SOL     OW26580   5.279   5.029   5.793 -0.2096  0.3444  0.3898
 8632SOL    HW126581   5.256   5.117   5.820 -0.0394  0.1223  1.2672
 8632SOL    HW226582   5.232   4.971   5.853 -0.8990 -0.1946 -0.6163
 8633SOL     OW26583   4.702   0.962   4.707  0.0190 -0.4640 -0.5237
 8633SOL    HW126584   4.728   0.870   4.712 -0.7389 -0.7535 -1.5101
 8633SOL    HW226585   4.636   0.964   4.638 -0.9464  0.6123  0.4021
 8634SOL     OW26586   1.301   5.066   6.069  0.3968  0.5151  0.0060
 8634SOL    HW126587   1.273   5.106   6.151  1.1949  0.6479  0.2194
 8634SOL    HW226588   1.347   4.986   6.095  1.1465  0.8461 -0.2700
 8635SOL     OW26589   6.537   5.011   2.948 -0.1742  0.0331  0.6265
 8635SOL    HW126590   6.510   4.953   2.877  3.2198 -1.5489  0.4590
 8635SOL    HW226591   6.585   5.082   2.905  1.2285 -0.5201  1.2136
 8636SOL     OW26592   2.949   4.153   6.918  0.9045  0.8590 -0.1842
 8636SOL    HW126593   2.891   4.136   6.992  4.1679  0.1701  2.4657
 8636SOL    HW226594   2.934   4.245   6.896 -0.4935  0.9412  0.9868
 8637SOL     OW26595   7.155   1.989   6.605 -0.1609  0.7130 -0.1459
 8637SOL    HW126596   7.166   1.928   6.678 -3.0167  0.1759 -0.0677
 8637SOL    HW226597   7.202   1.948   6.532 -1.1512 -1.0845  0.1878
 8638SOL     OW26598   2.175   4.371   7.274 -0.6543  0.1495 -0.2760
 8638SOL    HW126599   2.126   4.307   7.222  0.9968 -0.5223 -1.0763
 8638SOL    HW226600   2.226   4.318   7.335  0.2458  0.7418 -0.5019
 8639SOL     OW26601   3.935   2.090   4.726  0.6304  0.1099  0.5734
 8639SOL    HW126602   3.938   2.046   4.641  0.6555 -0.4540  0.8632
 8639SOL    HW226603   4.012   2.147   4.726  2.2834 -1.9708  1.3192
 8640SOL     OW26604   1.138   0.406   5.552  0.3342 -0.4035 -0.1290
 8640SOL    HW126605   1.092   0.429   5.471 -0.4340 -2.0736 -0.2202
 8640SOL    HW226606   1.135   0.485   5.606 -1.7829 -0.1515 -0.5428
 8641SOL     OW26607   5.231   5.257   0.068 -0.0943 -0.1975  0.1251
 8641SOL    HW126608   5.298   5.255  -0.000 -0.6387 -1.4905 -0.4218
 8641SOL    HW226609   5.205   5.348   0.075  0.2260  0.0060 -1.1549
 8642SOL     OW26610   7.180   2.365   0.774 -0.4506  0.0868  0.4456
 8642SOL    HW126611   7.166   2.337   0.864  0.0967  0.1356  0.5496
 8642SOL    HW226612   7.243   2.302   0.738 -2.4408 -1.3783 -0.6620
 8643SOL     OW26613   6.090   6.121   7.207 -0.0128  0.1221  0.3729
 8643SOL    HW126614   6.157   6.081   7.152 -1.0565 -0.5642 -0.4597
 8643SOL    HW226615   6.031   6.048   7.230 -0.8610  0.8213  0.4835
 8644SOL     OW26616   4.370   4.160   3.496 -0.5178  0.0678  0.2665
 8644SOL    HW126617   4.438   4.226   3.485 -1.5176  1.0965 -0.0568
 8644SOL    HW226618   4.368   4.140   3.589  2.6950 -2.7800 -0.0919
 8645SOL     OW26619   7.750   6.613   4.496 -0.3412  0.4353 -0.1807
 8645SOL    HW126620   7.821   6.565   4.454 -0.6986 -0.6794  0.4538
 8645SOL    HW226621   7.760   6.703   4.464  0.6014  0.0426 -1.0592
 8646SOL     OW26622   6.883   1.350   2.581 -0.1169  0.6303 -0.6039
 8646SOL    HW126623   6.829   1.273   2.599  1.2609  0.0409  1.4128
 8646SOL    HW226624   6.835   1.423   2.620  1.0816 -0.1113  2.6154
 8647SOL     OW26625   6.984   5.640   4.078 -0.2913 -0.3062  0.1648
 8647SOL    HW126626   7.011   5.558   4.120 -0.7988 -1.1365 -1.0799
 8647SOL    HW226627   7.047   5.705   4.109  0.2146 -1.1945  1.0512
 8648SOL     OW26628   0.983   4.650   0.919  0.0410  0.4995  0.2528
 8648SOL    HW126629   0.909   4.590   0.926 -2.0434  2.9379  0.5693
 8648SOL    HW226630   0.975   4.689   0.832 -0.5045  2.4447  1.1028
 8649SOL     OW26631   2.994   4.116   0.623 -0.3325  0.5718 -0.1940
 8649SOL    HW126632   2.916   4.156   0.662  0.3163  0.6949  1.0210
 8649SOL    HW226633   3.032   4.064   0.694 -0.5471 -1.3373 -1.4109
 8650SOL     OW26634   0.231   6.391   1.654 -0.2539 -0.0167 -0.6708
 8650SOL    HW126635   0.138   6.377   1.671 -0.3291  0.9536 -0.1989
 8650SOL    HW226636   0.239   6.485   1.640  0.4085 -0.2840 -2.3581
 8651SOL     OW26637   6.449   5.080   4.560  0.2201 -0.3794  0.2301
 8651SOL    HW126638   6.456   4.988   4.538 -1.2465 -0.1155 -1.6148
 8651SOL    HW226639   6.401   5.119   4.486 -1.1673  1.4243  1.9561
 8652SOL     OW26640   2.804   7.751   3.212 -0.0914 -0.4066  0.1364
 8652SOL    HW126641   2.810   7.845   3.195  0.1227 -0.5944 -0.8686
 8652SOL    HW226642   2.890   7.716   3.188  0.2634 -0.6928  1.7156
 8653SOL     OW26643   2.035   6.430   4.635  0.9845 -0.2851  0.1529
 8653SOL    HW126644   2.102   6.379   4.680 -1.3654 -3.2520  0.6040
 8653SOL    HW226645   2.018   6.382   4.553 -1.4967 -0.5200  0.7131
 8654SOL     OW26646   6.582   6.891   5.758 -0.2668 -0.7649 -0.5418
 8654SOL    HW126647   6.572   6.986   5.765 -1.5681 -1.0121  1.8210
 8654SOL    HW226648   6.629   6.878   5.675  2.1464  2.0629  0.2020
 8655SOL     OW26649   6.620   5.139   3.378 -0.0728 -0.0572  0.7050
 8655SOL    HW126650   6.531   5.156   3.409 -1.1239 -2.0291 -0.9443
 8655SOL    HW226651   6.629   5.194   3.300  0.5056  0.7919  1.3567
 8656SOL     OW26652   1.878   0.067   5.955 -0.0229  0.3047  0.2298
 8656SOL    HW126653   1.865  -0.028   5.957 -0.6488  0.3635 -0.5532
 8656SOL    HW226654   1.965   0.080   5.917 -0.4424  0.0641 -0.8533
 8657SOL     OW26655   4.754   3.979   2.300 -0.0877  0.3441 -0.0344
 8657SOL    HW126656   4.673   3.978   2.250 -0.8429 -1.5082  1.1114
 8657SOL    HW226657   4.772   3.887   2.319  0.5976  0.8992  2.3585
 8658SOL     OW26658   1.221   0.583   7.071  0.0812  0.6680 -0.4200
 8658SOL    HW126659   1.180   0.520   7.129  1.6620 -1.7588 -1.7650
 8658SOL    HW226660   1.297   0.615   7.120  1.3920 -1.3444 -1.0214
 8659SOL     OW26661   1.091   4.501   5.242  0.6975 -0.6621 -0.5048
 8659SOL    HW126662   1.107   4.423   5.295 -1.3267 -1.6483 -1.2361
 8659SOL    HW226663   1.178   4.526   5.210  1.2798 -3.7957 -1.8268
 8660SOL     OW26664   5.243   5.951   0.890  0.6610  0.3291 -0.3909
 8660SOL    HW126665   5.278   5.899   0.963  2.3892  0.1091 -1.3156
 8660SOL    HW226666   5.198   5.888   0.834 -2.9308  0.8276  1.6058
 8661SOL     OW26667   5.220   0.206   1.011  0.3310 -0.0399  0.0014
 8661SOL    HW126668   5.132   0.169   1.001  0.3392 -0.0079 -0.1830
 8661SOL    HW226669   5.278   0.142   0.971  0.5112 -0.6150  1.1339
 8662SOL     OW26670   5.587   3.927   2.687 -0.4314 -0.6782 -0.0885
 8662SOL    HW126671   5.535   3.989   2.738 -0.5308 -0.6116 -0.2701
 8662SOL    HW226672   5.541   3.844   2.696 -1.8924 -0.1592 -2.1425
 8663SOL     OW26673   1.127   6.247   5.078  0.1915 -0.0620  0.0717
 8663SOL    HW126674   1.163   6.248   5.167 -0.9271 -0.1058  0.5460
 8663SOL    HW226675   1.196   6.209   5.024  0.9593  0.1376  0.8860
 8664SOL     OW26676   6.367   4.058   5.893  0.8709 -0.0243 -0.4744
 8664SOL    HW126677   6.290   4.082   5.841  0.8725  1.5923  0.2141
 8664SOL    HW226678   6.356   3.964   5.910  0.7204 -0.5531 -3.0906
 8665SOL     OW26679   0.547   1.971   6.055 -0.1198  0.1393 -0.1959
 8665SOL    HW126680   0.521   1.915   6.129 -0.8137 -0.4281 -0.8520
 8665SOL    HW226681   0.581   1.910   5.990  4.5245  0.9149  1.1580
 8666SOL     OW26682   1.622   6.923   5.939 -0.1021 -0.6098 -0.2650
 8666SOL    HW126683   1.633   6.904   5.846  0.6768  0.0312 -0.3186
 8666SOL    HW226684   1.574   7.006   5.941  1.0484  0.0755 -0.1335
 8667SOL     OW26685   2.010   6.118   4.613 -0.9888 -0.6901  0.1989
 8667SOL    HW126686   2.013   6.066   4.532 -1.6057 -1.5436  0.7053
 8667SOL    HW226687   2.102   6.125   4.640 -0.5687  1.0100 -1.4080
 8668SOL     OW26688   5.098   6.176   4.848 -0.2874  0.0161  0.8639
 8668SOL    HW126689   5.029   6.202   4.908 -2.4887 -2.8824 -0.1813
 8668SOL    HW226690   5.117   6.085   4.871  2.3037  0.2979  0.2173
 8669SOL     OW26691   2.197   4.454   4.502 -0.5845 -0.0363 -0.0580
 8669SOL    HW126692   2.292   4.459   4.516 -0.3223  0.6979 -1.8415
 8669SOL    HW226693   2.159   4.507   4.572  0.2226 -1.3293  1.4137
 8670SOL     OW26694   7.387   7.365   2.135  0.3848  0.3776  0.2743
 8670SOL    HW126695   7.338   7.428   2.083  2.9834  1.9810 -0.4022
 8670SOL    HW226696   7.376   7.395   2.226  0.5846  1.0386  0.0807
 8671SOL     OW26697   1.398   0.348   5.192  0.1198  0.3990 -0.2822
 8671SOL    HW126698   1.380   0.259   5.222  1.2162 -0.6343 -2.4739
 8671SOL    HW226699   1.442   0.390   5.265  0.2724 -1.1032  0.5168
 8672SOL     OW26700   7.301   5.792   6.366  0.4424 -0.4793 -0.4897
 8672SOL    HW126701   7.370   5.732   6.393  0.1128 -0.6086  0.0868
 8672SOL    HW226702   7.337   5.839   6.291  0.9349 -0.9564 -0.5537
 8673SOL     OW26703   4.773   4.772   2.017  0.1629  0.3253 -0.5198
 8673SOL    HW126704   4.836   4.751   1.948  0.7884  0.1737  0.0872
 8673SOL    HW226705   4.718   4.840   1.979  1.8246  1.7763 -0.4498
 8674SOL     OW26706   3.535   5.618   7.165  0.0155 -0.3294 -0.1714
 8674SOL    HW126707   3.557   5.546   7.224 -0.7348 -0.3230  0.1358
 8674SOL    HW226708   3.439   5.626   7.171  0.1135  0.9483  0.1264
 8675SOL     OW26709   5.796   6.692   7.112  0.6608  0.2546 -0.1991
 8675SOL    HW126710   5.795   6.755   7.040  1.2681  0.7472  0.2062
 8675SOL    HW226711   5.873   6.639   7.095  0.1911 -0.3395 -0.4980
 8676SOL     OW26712   3.592   3.426   1.924  0.3740  0.5643  0.2008
 8676SOL    HW126713   3.503   3.441   1.890 -0.3066 -0.3605  1.4846
 8676SOL    HW226714   3.618   3.511   1.959 -0.4622  0.6001  0.7781
 8677SOL     OW26715   4.598   2.676   6.964 -0.1718 -0.5040  0.4057
 8677SOL    HW126716   4.516   2.696   6.920  0.9201  0.1835 -1.4137
 8677SOL    HW226717   4.600   2.580   6.971 -1.0357 -0.5300  0.3290
 8678SOL     OW26718   3.207   1.884   1.329  0.2970 -0.4001 -0.0962
 8678SOL    HW126719   3.261   1.856   1.402 -0.2076 -1.6540 -0.1797
 8678SOL    HW226720   3.117   1.877   1.361  0.1272  1.3645 -0.0556
 8679SOL     OW26721   2.522   0.342   3.173  0.0339 -0.0216 -0.0574
 8679SOL    HW126722   2.456   0.405   3.144  0.1124 -0.0765 -0.3578
 8679SOL    HW226723   2.490   0.312   3.258 -0.4424 -0.2137 -0.2997
 8680SOL     OW26724   7.339   5.787   1.656 -0.2673 -0.1912  0.2601
 8680SOL    HW126725   7.395   5.848   1.704 -0.2929  0.7022 -0.8269
 8680SOL    HW226726   7.330   5.712   1.715  0.8999  0.2591  1.0373
 8681SOL     OW26727   1.628   1.526   5.773 -0.2226  0.4239  0.2393
 8681SOL    HW126728   1.595   1.542   5.684  0.4755 -0.7736 -0.2673
 8681SOL    HW226729   1.597   1.438   5.794  1.5201 -0.2315  0.2392
 8682SOL     OW26730   3.680   4.714   7.153 -0.3388 -0.3844 -0.2285
 8682SOL    HW126731   3.687   4.626   7.116 -1.6417 -0.0990 -1.2304
 8682SOL    HW226732   3.629   4.703   7.233 -0.3381 -0.5638 -0.2526
 8683SOL     OW26733   2.917   7.553   5.708  0.3691  0.7010  0.3334
 8683SOL    HW126734   2.850   7.496   5.746 -1.5153  2.3033 -0.4128
 8683SOL    HW226735   2.962   7.590   5.784 -0.9543  1.1145  0.9526
 8684SOL     OW26736   4.222   2.618   3.163 -0.0826  0.5346 -0.0806
 8684SOL    HW126737   4.249   2.689   3.222 -0.1476 -1.0162  1.9118
 8684SOL    HW226738   4.273   2.542   3.192  0.4104 -0.1499 -2.5333
 8685SOL     OW26739   4.067   6.793   3.535 -0.3241 -0.1854  0.0591
 8685SOL    HW126740   4.019   6.716   3.504  0.3813 -0.5572 -0.1287
 8685SOL    HW226741   4.093   6.772   3.624  0.6303 -0.5403 -0.2888
 8686SOL     OW26742   4.643   3.896   7.297 -0.3770 -0.0306  0.1831
 8686SOL    HW126743   4.643   3.897   7.202  0.6223  0.3664  0.1769
 8686SOL    HW226744   4.552   3.911   7.322 -0.6026  0.0822 -0.7038
 8687SOL     OW26745   5.075   7.054   0.293  0.6481 -0.7240  0.4646
 8687SOL    HW126746   5.064   7.112   0.217  1.2252 -0.5267  0.5281
 8687SOL    HW226747   5.050   7.109   0.368  2.6923 -0.0253  0.6896
 8688SOL     OW26748   2.381   7.366   6.065  0.4891  0.3259  0.1427
 8688SOL    HW126749   2.416   7.322   5.987 -1.6240  3.3459 -2.8355
 8688SOL    HW226750   2.437   7.443   6.077 -1.0872  1.6519 -0.5731
 8689SOL     OW26751   0.733   1.123   6.953 -0.0828  0.6155 -0.3861
 8689SOL    HW126752   0.792   1.095   6.884 -2.8262  0.1642 -2.7152
 8689SOL    HW226753   0.653   1.074   6.938 -1.2972  1.5612  2.3048
 8690SOL     OW26754   7.531   3.017   2.844  0.1767  0.2484  0.0698
 8690SOL    HW126755   7.480   3.063   2.911 -0.8224 -1.8757  0.8726
 8690SOL    HW226756   7.477   3.021   2.765  0.4440  1.0682 -0.0756
 8691SOL     OW26757   6.393   5.359   6.514  0.9272 -0.0910 -0.3205
 8691SOL    HW126758   6.472   5.413   6.517  0.8179  0.1241 -1.0475
 8691SOL    HW226759   6.413   5.293   6.448  1.0948 -1.0098  0.6251
 8692SOL     OW26760   2.620   7.192   0.195 -0.5796  0.3247  0.1937
 8692SOL    HW126761   2.656   7.226   0.277 -1.7687  0.6242  0.6166
 8692SOL    HW226762   2.665   7.241   0.126  1.6389 -1.0756  0.5623
 8693SOL     OW26763   2.443   6.079   1.642 -0.2123 -0.3098  0.1033
 8693SOL    HW126764   2.489   6.040   1.567  0.5326 -0.2895  0.5391
 8693SOL    HW226765   2.392   6.150   1.605  1.9006  1.1883 -0.1285
 8694SOL     OW26766   4.925   4.025   4.611  0.1124  0.5556 -0.3927
 8694SOL    HW126767   4.832   4.018   4.630  0.0166  1.1726 -0.5807
 8694SOL    HW226768   4.934   4.112   4.572  0.8556  0.7366  0.1597
 8695SOL     OW26769   3.928   1.540   0.607 -0.3933  0.7394  0.1276
 8695SOL    HW126770   3.918   1.562   0.700 -1.3229 -0.6728  0.3878
 8695SOL    HW226771   3.998   1.475   0.606 -0.5985  0.5212 -0.1179
 8696SOL     OW26772   3.413   0.070   7.314  0.6358  0.0859 -0.5651
 8696SOL    HW126773   3.438   0.039   7.402 -2.7449  0.0661  0.5065
 8696SOL    HW226774   3.447   0.002   7.255  1.0932 -1.0366  0.9219
 8697SOL     OW26775   3.164   4.669   5.898  0.1068 -0.0532 -0.0552
 8697SOL    HW126776   3.237   4.651   5.839 -0.4718  2.4088 -1.6751
 8697SOL    HW226777   3.202   4.725   5.966 -0.2284  1.3530 -0.9806
 8698SOL     OW26778   6.454   7.325   1.679 -0.0764  0.0767  0.1179
 8698SOL    HW126779   6.359   7.317   1.670 -0.1119  1.1441 -0.6662
 8698SOL    HW226780   6.475   7.278   1.759 -1.6169  2.0884  1.8085
 8699SOL     OW26781   0.700   1.563   7.303  0.4654  0.1374  0.3857
 8699SOL    HW126782   0.664   1.499   7.241 -0.3057 -0.5476  1.4961
 8699SOL    HW226783   0.794   1.560   7.289  0.5790 -2.1869  1.2387
 8700SOL     OW26784   6.511   7.131   3.331 -0.3108 -0.1127  0.0292
 8700SOL    HW126785   6.495   7.224   3.315  1.0802  0.0201 -0.7928
 8700SOL    HW226786   6.473   7.087   3.255  0.0997 -0.0997 -0.1870
 8701SOL     OW26787   5.095   1.902   4.336 -0.4765 -0.4295 -0.0187
 8701SOL    HW126788   5.004   1.931   4.347  0.6035  2.9483  1.5549
 8701SOL    HW226789   5.118   1.929   4.247 -0.9417 -1.1716 -0.3724
 8702SOL     OW26790   1.396   1.911   6.704 -0.3026 -0.0488 -0.2079
 8702SOL    HW126791   1.307   1.946   6.701 -1.1405 -1.9640  0.4757
 8702SOL    HW226792   1.389   1.825   6.662  0.6518 -1.2714  1.9590
 8703SOL     OW26793   7.102   5.857   7.534 -0.1002 -0.1885 -0.1616
 8703SOL    HW126794   7.040   5.809   7.590 -0.7476  0.5920 -0.1944
 8703SOL    HW226795   7.117   5.939   7.580  0.1036  0.0648 -0.6728
 8704SOL     OW26796   6.704   2.748   5.326  1.0520 -0.0663  0.4762
 8704SOL    HW126797   6.708   2.658   5.296  3.6941  0.3493 -0.6620
 8704SOL    HW226798   6.649   2.745   5.405  2.3074 -2.9113  1.3500
 8705SOL     OW26799   1.357   1.825   7.292  0.3745  0.4577  0.0864
 8705SOL    HW126800   1.438   1.872   7.273  0.1499  1.0839  0.6734
 8705SOL    HW226801   1.292   1.866   7.236  0.5820 -0.4895 -0.8908
 8706SOL     OW26802   1.110   0.563   3.072  0.4945 -0.1047 -0.0942
 8706SOL    HW126803   1.034   0.620   3.076 -1.6862 -2.7005 -1.0809
 8706SOL    HW226804   1.102   0.518   2.988  2.3371 -1.4921  0.3921
 8707SOL     OW26805   0.858   2.067   1.370  0.3640  0.5538  0.5929
 8707SOL    HW126806   0.897   2.133   1.312 -0.1962  0.8534  0.5552
 8707SOL    HW226807   0.826   2.116   1.445  0.0978  0.3031  0.6454
 8708SOL     OW26808   6.666   4.825   2.172  0.0902  0.2427 -0.1307
 8708SOL    HW126809   6.709   4.838   2.087  0.4690  1.0803  0.1778
 8708SOL    HW226810   6.723   4.765   2.219  1.9475  2.6564  0.9360
 8709SOL     OW26811   3.747   0.370   6.338 -1.0829  0.2219  0.3619
 8709SOL    HW126812   3.800   0.326   6.272  0.8770  2.8573  0.0265
 8709SOL    HW226813   3.674   0.408   6.288  0.0416  1.6527 -0.2985
 8710SOL     OW26814   5.142   4.740   4.390 -0.1739  0.3251 -0.1388
 8710SOL    HW126815   5.091   4.792   4.451 -0.9228 -0.6465  0.0863
 8710SOL    HW226816   5.233   4.757   4.414 -0.4189  1.1060  0.2658
 8711SOL     OW26817   1.930   3.399   4.788  0.2165  0.2395  0.4000
 8711SOL    HW126818   1.994   3.336   4.753 -0.6791 -0.7927  0.5943
 8711SOL    HW226819   1.906   3.364   4.873 -1.3824  0.0534 -0.1031
 8712SOL     OW26820   1.177   2.533   1.791 -0.0803  0.3779  0.0982
 8712SOL    HW126821   1.179   2.484   1.873  0.3557 -0.7016 -0.5484
 8712SOL    HW226822   1.145   2.620   1.816 -1.3459 -0.3635  1.1841
 8713SOL     OW26823   1.646   0.244   7.146 -0.2523  0.2324  0.3480
 8713SOL    HW126824   1.595   0.178   7.194 -1.8556  0.3144 -1.1655
 8713SOL    HW226825   1.664   0.311   7.211 -1.5146 -0.1194  1.1068
 8714SOL     OW26826   1.355   3.155   1.368  0.2261  0.4551  0.2515
 8714SOL    HW126827   1.273   3.205   1.357 -0.6643 -0.6031  1.7310
 8714SOL    HW226828   1.391   3.149   1.279 -2.2120 -0.5358 -0.7554
 8715SOL     OW26829   5.588   3.716   6.280 -0.4985 -0.0230 -0.4726
 8715SOL    HW126830   5.547   3.656   6.217 -2.7932  1.8286 -0.8688
 8715SOL    HW226831   5.612   3.792   6.228  1.4186 -0.0862  0.2203
 8716SOL     OW26832   6.754   7.509   2.202 -0.4831  0.3097  0.0497
 8716SOL    HW126833   6.703   7.557   2.268  0.0303  1.6596 -0.5026
 8716SOL    HW226834   6.812   7.575   2.164  0.8132 -0.9210 -0.2029
 8717SOL     OW26835   0.456   7.277   5.453 -0.3967 -0.0106 -0.4479
 8717SOL    HW126836   0.462   7.182   5.468  0.4599  0.1074  0.0473
 8717SOL    HW226837   0.406   7.285   5.373 -0.9265 -0.8718 -0.2239
 8718SOL     OW26838   0.408   1.078   4.768  0.4900 -0.1474 -0.0701
 8718SOL    HW126839   0.331   1.023   4.781  0.2617  0.6845  2.9407
 8718SOL    HW226840   0.400   1.111   4.679 -1.5325 -1.6627 -0.5201
 8719SOL     OW26841   0.312   6.769   4.708 -0.9709 -0.4251 -0.0195
 8719SOL    HW126842   0.352   6.704   4.650 -1.5885  0.5179 -1.5605
 8719SOL    HW226843   0.370   6.773   4.784  0.0312 -1.4755 -0.7086
 8720SOL     OW26844   2.884   4.994   0.169  0.1081 -0.4742  0.0183
 8720SOL    HW126845   2.863   4.920   0.112  0.5848  0.1712 -1.0264
 8720SOL    HW226846   2.954   5.040   0.123 -0.7044  1.0667  0.2647
 8721SOL     OW26847   7.284   1.615   4.788  0.0570 -0.1643 -0.1657
 8721SOL    HW126848   7.357   1.678   4.785 -1.0877  1.3851  1.7149
 8721SOL    HW226849   7.212   1.661   4.745 -0.7257 -0.2592  1.0096
 8722SOL     OW26850   1.631   0.828   3.109  0.6054  0.1485 -0.5322
 8722SOL    HW126851   1.598   0.743   3.138  1.3049  0.4662  1.3266
 8722SOL    HW226852   1.726   0.821   3.119  0.7846  0.7172 -1.6560
 8723SOL     OW26853   1.629   1.966   7.152 -0.1319  0.6880 -0.2351
 8723SOL    HW126854   1.587   1.937   7.071 -2.4769 -0.0284  1.1425
 8723SOL    HW226855   1.700   1.903   7.165 -1.7399 -1.2079 -0.1299
 8724SOL     OW26856   5.429   6.050   7.268 -0.8032  0.0656  0.2287
 8724SOL    HW126857   5.388   6.066   7.353 -0.7426  1.3254  0.0450
 8724SOL    HW226858   5.517   6.086   7.278 -0.8115  0.2577 -0.3714
 8725SOL     OW26859   0.762   5.420   0.605  0.1906 -0.4804 -0.1116
 8725SOL    HW126860   0.714   5.356   0.658 -0.7861  0.7585  0.5417
 8725SOL    HW226861   0.741   5.397   0.515  1.3625 -2.2189  0.0071
 8726SOL     OW26862   2.583   2.371   7.307  0.7017 -0.1151 -0.1521
 8726SOL    HW126863   2.639   2.439   7.343 -0.4218  0.4357  0.6102
 8726SOL    HW226864   2.542   2.411   7.231  0.8672 -0.3090 -0.3448
 8727SOL     OW26865   0.372   4.014   2.115  0.7251 -0.0444 -0.5548
 8727SOL    HW126866   0.429   3.942   2.091  0.0702  0.2663 -3.5200
 8727SOL    HW226867   0.286   3.989   2.080 -0.0251  1.2002  0.3183
 8728SOL     OW26868   3.335   5.290   6.953  0.0140 -0.0625 -0.0210
 8728SOL    HW126869   3.290   5.217   6.995  1.4725 -0.3244  1.1408
 8728SOL    HW226870   3.397   5.322   7.019  1.1563  0.6267 -1.3762
 8729SOL     OW26871   0.888   7.693   4.268 -0.2141 -0.1765 -0.5626
 8729SOL    HW126872   0.851   7.668   4.184  2.1717  0.9802 -2.0772
 8729SOL    HW226873   0.836   7.768   4.296  0.3355  0.8367 -2.1551
 8730SOL     OW26874   5.796   5.479   5.509 -0.0725  0.2392  0.2199
 8730SOL    HW126875   5.847   5.490   5.428  0.3539  0.1465  0.4747
 8730SOL    HW226876   5.823   5.552   5.564 -1.9304  1.5737 -0.5181
 8731SOL     OW26877   7.640   0.621   6.510 -0.3736 -0.2876  0.0190
 8731SOL    HW126878   7.573   0.660   6.454  0.2332  0.1164 -0.4443
 8731SOL    HW226879   7.712   0.685   6.509  1.0106 -1.7702 -1.4452
 8732SOL     OW26880   2.695   6.303   4.483 -0.4572  0.0720 -0.2407
 8732SOL    HW126881   2.772   6.304   4.426 -0.4924 -0.3302 -0.3001
 8732SOL    HW226882   2.698   6.386   4.530 -0.3468  0.3446 -0.7227
 8733SOL     OW26883   3.094   7.407   6.083 -0.7132  0.1133 -0.3090
 8733SOL    HW126884   3.095   7.455   6.165 -1.6818 -0.9032  0.3271
 8733SOL    HW226885   3.119   7.318   6.107 -0.7036 -0.1243 -1.1685
 8734SOL     OW26886   2.280   4.925   0.118 -0.3574 -0.4807  0.0253
 8734SOL    HW126887   2.232   4.997   0.076  0.9432 -0.3218 -1.2599
 8734SOL    HW226888   2.243   4.846   0.077 -0.4168 -0.4339 -0.0127
 8735SOL     OW26889   6.146   2.141   6.772 -0.1495  0.0222  0.6540
 8735SOL    HW126890   6.055   2.162   6.796 -0.6393 -0.5324 -0.6060
 8735SOL    HW226891   6.197   2.166   6.849 -1.6039 -1.7364  2.2927
 8736SOL     OW26892   4.288   3.864   0.624  0.1720  0.1677  0.1888
 8736SOL    HW126893   4.231   3.800   0.581  0.5191  0.5921 -0.9239
 8736SOL    HW226894   4.291   3.835   0.715 -0.8719 -0.5419  0.0236
 8737SOL     OW26895   2.403   7.174   0.513  0.2652  0.4374 -0.3268
 8737SOL    HW126896   2.384   7.230   0.437  1.8941 -0.0509 -1.1300
 8737SOL    HW226897   2.490   7.139   0.496  0.3434 -0.3065  1.4185
 8738SOL     OW26898   1.785   3.352   2.683 -0.1381 -0.2980  0.3770
 8738SOL    HW126899   1.783   3.265   2.644  0.6789  0.0029 -0.3699
 8738SOL    HW226900   1.816   3.409   2.613 -0.0747  0.5007  1.0383
 8739SOL     OW26901   4.118   6.289   2.085  0.1000  0.3678  0.0266
 8739SOL    HW126902   4.209   6.316   2.070 -0.1625  2.3790  1.6587
 8739SOL    HW226903   4.118   6.250   2.172 -0.4395 -0.5395 -0.3699
 8740SOL     OW26904   4.823   4.653   3.853 -0.2849  0.0904 -0.6585
 8740SOL    HW126905   4.823   4.749   3.862 -0.7882 -0.0250  0.8020
 8740SOL    HW226906   4.898   4.635   3.797 -0.8975  1.4135 -1.9688
 8741SOL     OW26907   3.098   3.996   3.854  0.2446 -0.3494  0.1707
 8741SOL    HW126908   3.077   4.086   3.829  3.0183  0.6472  1.0251
 8741SOL    HW226909   3.141   3.960   3.777 -1.7499 -1.3758 -0.5370
 8742SOL     OW26910   0.123   4.472   0.061  0.2583 -0.0914  0.1240
 8742SOL    HW126911   0.176   4.503   0.134  1.9323  0.7466 -1.3887
 8742SOL    HW226912   0.110   4.378   0.079  1.0888 -0.0158  1.2054
 8743SOL     OW26913   6.783   5.453   6.947  0.4530  0.3581 -0.4246
 8743SOL    HW126914   6.734   5.398   6.886  0.7795  2.2089 -2.5203
 8743SOL    HW226915   6.872   5.418   6.946  0.4337  0.3121 -1.0011
 8744SOL     OW26916   4.024   4.025   2.176  0.4860  0.2365 -0.9449
 8744SOL    HW126917   4.099   4.078   2.201  0.5448 -0.6991  1.1186
 8744SOL    HW226918   3.952   4.058   2.229 -0.0197 -0.2850 -1.2903
 8745SOL     OW26919   1.198   1.973   6.210  0.4884  0.4415 -0.3076
 8745SOL    HW126920   1.283   1.977   6.252  0.9026 -1.5978 -0.8769
 8745SOL    HW226921   1.136   2.002   6.277  1.2318 -1.7698  1.4230
 8746SOL     OW26922   2.510   3.397   1.797  0.2566  0.2231 -1.2196
 8746SOL    HW126923   2.584   3.454   1.816 -0.8246  1.8796 -1.7760
 8746SOL    HW226924   2.482   3.423   1.709 -1.7848  0.5547 -0.5072
 8747SOL     OW26925   5.055   3.680   5.600 -0.0482  0.2983  0.1153
 8747SOL    HW126926   5.141   3.665   5.561 -1.1992 -1.8306 -1.8598
 8747SOL    HW226927   5.011   3.739   5.539 -0.8260 -0.6523 -0.2748
 8748SOL     OW26928   5.736   6.306   5.782  0.3846  0.4510  0.2234
 8748SOL    HW126929   5.728   6.350   5.697  0.8439 -0.6614 -0.4070
 8748SOL    HW226930   5.827   6.321   5.808  0.9318 -1.2427 -0.6349
 8749SOL     OW26931   1.309   4.258   0.614 -0.0290 -0.1540 -0.3765
 8749SOL    HW126932   1.230   4.211   0.642 -2.5235  2.6838 -2.0002
 8749SOL    HW226933   1.314   4.334   0.672  1.1318  0.0515 -0.7199
 8750SOL     OW26934   2.496   3.835   2.166  0.0423 -0.1218  0.2288
 8750SOL    HW126935   2.463   3.855   2.254  1.3331  2.8194  0.1758
 8750SOL    HW226936   2.419   3.844   2.109 -0.1605  1.4223  0.6977
 8751SOL     OW26937   2.774   5.035   4.238 -0.3858 -0.4485 -0.4670
 8751SOL    HW126938   2.835   4.992   4.177 -2.2237 -1.2113 -1.8687
 8751SOL    HW226939   2.706   4.969   4.253 -2.0035  1.0914 -0.7061
 8752SOL     OW26940   7.108   5.497   3.734 -0.4157 -0.3166  0.0950
 8752SOL    HW126941   7.019   5.531   3.741 -0.6332 -0.6476 -1.0450
 8752SOL    HW226942   7.121   5.448   3.816 -1.5745 -0.9765 -0.1002
 8753SOL     OW26943   5.000   3.309   5.133  0.0424  0.3917  0.4875
 8753SOL    HW126944   5.063   3.380   5.146 -0.7738  0.9567  1.4894
 8753SOL    HW226945   4.926   3.333   5.188 -1.2849  0.0218 -1.0822
 8754SOL     OW26946   6.108   4.136   7.729  0.3903 -0.0751 -0.4249
 8754SOL    HW126947   6.041   4.161   7.793  0.7996 -0.1657  0.0473
 8754SOL    HW226948   6.182   4.105   7.783  0.6891 -0.2749 -0.9453
 8755SOL     OW26949   4.260   4.692   0.818  0.0180 -0.1158 -0.7441
 8755SOL    HW126950   4.251   4.609   0.770 -0.5319 -0.7277  0.3699
 8755SOL    HW226951   4.320   4.744   0.764  0.8388 -1.4549 -1.1901
 8756SOL     OW26952   7.447   2.606   3.568 -0.0537  0.1820  0.1788
 8756SOL    HW126953   7.395   2.551   3.626  0.8500 -2.2353 -1.1727
 8756SOL    HW226954   7.387   2.631   3.498 -0.3209  0.4428  0.4989
 8757SOL     OW26955   5.003   2.461   2.124  0.3357  0.2377 -0.2213
 8757SOL    HW126956   5.089   2.422   2.108  0.4123  0.0731  0.5689
 8757SOL    HW226957   4.943   2.407   2.073  0.5357 -0.4710  0.2798
 8758SOL     OW26958   5.128   4.656   5.588 -0.2610  0.0101 -0.6136
 8758SOL    HW126959   5.131   4.640   5.494  3.7988 -3.7957 -0.1608
 8758SOL    HW226960   5.088   4.577   5.625 -0.5561  0.8490  0.9667
 8759SOL     OW26961   2.643   5.434   1.029 -0.0089 -0.0331 -0.7806
 8759SOL    HW126962   2.670   5.489   1.102  0.7212 -1.4028  0.0233
 8759SOL    HW226963   2.613   5.353   1.070 -0.5352 -0.4516 -1.9517
 8760SOL     OW26964   7.504   4.698   2.772  0.0215  0.4246  0.0463
 8760SOL    HW126965   7.501   4.701   2.676 -0.1758  0.9308  0.0672
 8760SOL    HW226966   7.448   4.624   2.795 -0.2143  0.5197 -0.2151
 8761SOL     OW26967   3.154   2.674   1.515 -0.3188  0.1982  0.2147
 8761SOL    HW126968   3.245   2.706   1.521 -0.2731  0.2929 -0.7652
 8761SOL    HW226969   3.162   2.579   1.523 -0.0913  0.1790 -0.1881
 8762SOL     OW26970   2.846   5.360   4.154 -0.2636 -0.1354  0.2327
 8762SOL    HW126971   2.856   5.268   4.179  3.3956  0.2311  0.7668
 8762SOL    HW226972   2.869   5.361   4.061  2.9912  0.4529  0.8953
 8763SOL     OW26973   7.297   4.916   6.327  0.4797  0.4568 -0.1926
 8763SOL    HW126974   7.300   4.822   6.310 -1.2979  0.5134 -1.0060
 8763SOL    HW226975   7.209   4.943   6.301  0.4829  2.1131  1.3092
 8764SOL     OW26976   1.093   1.589   7.621  0.1442  0.5803 -0.0243
 8764SOL    HW126977   1.154   1.587   7.695 -1.1944 -2.8538  1.1967
 8764SOL    HW226978   1.137   1.539   7.553 -0.4066 -0.0582  0.0824
 8765SOL     OW26979   2.027   3.334   1.127  0.2150 -0.3934  0.3694
 8765SOL    HW126980   1.961   3.282   1.081  0.1939 -1.8641  1.9304
 8765SOL    HW226981   2.088   3.362   1.059 -0.2996 -1.6916 -0.6707
 8766SOL     OW26982   1.296   1.329   3.314 -1.0323  0.2488  0.8137
 8766SOL    HW126983   1.245   1.363   3.388 -0.5786  0.8256  0.8595
 8766SOL    HW226984   1.291   1.234   3.325 -2.2093  0.2914  0.7406
 8767SOL     OW26985   0.731   1.967   4.372 -0.4492  0.5544  0.1973
 8767SOL    HW126986   0.676   2.031   4.326  1.5776  1.1620 -1.5591
 8767SOL    HW226987   0.748   1.898   4.308  1.1086  0.5848  0.5265
 8768SOL     OW26988   2.942   3.850   6.818  0.1460 -0.2557  0.6126
 8768SOL    HW126989   2.957   3.933   6.864 -0.1714  0.2316 -0.1469
 8768SOL    HW226990   3.027   3.806   6.819  0.2929  0.0314  1.1059
 8769SOL     OW26991   3.559   4.503   2.729  0.2180 -0.1251  0.1502
 8769SOL    HW126992   3.572   4.490   2.635 -0.6642 -2.0813  0.2384
 8769SOL    HW226993   3.583   4.418   2.768 -1.0151  0.1146  1.5065
 8770SOL     OW26994   4.559   5.587   3.106 -0.1515 -0.7061  0.2024
 8770SOL    HW126995   4.504   5.664   3.096  0.7414  0.3007  2.3254
 8770SOL    HW226996   4.540   5.533   3.030 -1.5559  1.1404 -0.8235
 8771SOL     OW26997   5.473   4.298   5.094 -0.0067  0.5344  0.0196
 8771SOL    HW126998   5.451   4.386   5.127  1.5719  0.3076  1.8518
 8771SOL    HW226999   5.557   4.278   5.134 -0.7353 -2.1929  0.3589
 8772SOL     OW27000   4.017   3.994   0.175 -0.6967 -0.3204 -0.5543
 8772SOL    HW127001   3.971   3.911   0.189 -0.5536 -0.2140  0.6479
 8772SOL    HW227002   3.982   4.027   0.091 -0.8602 -1.5071 -0.9634
 8773SOL     OW27003   1.261   4.524   0.091 -0.2519  0.2139 -0.0715
 8773SOL    HW127004   1.313   4.604   0.103  0.1675 -0.2085  1.0409
 8773SOL    HW227005   1.295   4.463   0.156 -2.7057  0.1912  1.3180
 8774SOL     OW27006   1.862   7.444   4.209 -0.1969  0.6409  0.4670
 8774SOL    HW127007   1.774   7.474   4.188 -0.5538 -0.8740 -0.3532
 8774SOL    HW227008   1.888   7.393   4.132  0.5679 -0.6725  1.5763
 8775SOL     OW27009   3.485   4.190   3.986 -0.5383  0.2441  0.1527
 8775SOL    HW127010   3.394   4.215   3.999  0.0998  1.3885  3.1927
 8775SOL    HW227011   3.523   4.264   3.938 -0.8238  0.6190  0.4937
 8776SOL     OW27012   1.493   7.768   5.202  0.2143 -0.2917  0.1863
 8776SOL    HW127013   1.530   7.748   5.287  0.7825  0.2182  0.0675
 8776SOL    HW227014   1.568   7.774   5.143 -0.0778  0.3538 -0.1451
 8777SOL     OW27015   6.773   6.673   0.926 -0.2271 -1.0267 -0.3112
 8777SOL    HW127016   6.821   6.599   0.961 -0.7369 -1.0591  0.3377
 8777SOL    HW227017   6.706   6.692   0.992  1.3494  1.4917  0.7109
 8778SOL     OW27018   2.426   1.151   4.094 -0.2842 -0.0815 -0.0641
 8778SOL    HW127019   2.355   1.212   4.113 -0.1227 -0.2625  1.1831
 8778SOL    HW227020   2.405   1.116   4.007 -1.0893  0.7296 -0.2109
 8779SOL     OW27021   5.130   3.797   5.205 -0.0577  0.1387 -0.2182
 8779SOL    HW127022   5.068   3.782   5.276  0.1701  1.1061  0.2031
 8779SOL    HW227023   5.124   3.891   5.188  0.6447  0.0863 -0.7816
 8780SOL     OW27024   3.512   1.270   1.470  0.4301 -0.0124 -0.3191
 8780SOL    HW127025   3.557   1.312   1.544  0.9095 -0.0410 -0.5892
 8780SOL    HW227026   3.452   1.337   1.437  1.1366  0.4539 -0.7021
 8781SOL     OW27027   7.667   1.092   0.231 -0.6517  0.7846  0.1252
 8781SOL    HW127028   7.644   1.176   0.191  0.3510  0.7725 -0.5235
 8781SOL    HW227029   7.620   1.091   0.314 -0.3229  2.1777  0.3485
 8782SOL     OW27030   7.555   7.145   2.451 -0.3765  0.1557 -0.8083
 8782SOL    HW127031   7.567   7.191   2.368  1.6824 -0.3632 -0.8441
 8782SOL    HW227032   7.511   7.063   2.427 -0.8201  0.5105 -1.2157
 8783SOL     OW27033   4.250   7.216   0.598 -0.5173  0.2047 -0.1808
 8783SOL    HW127034   4.204   7.299   0.588 -1.8724 -0.3194  1.3025
 8783SOL    HW227035   4.184   7.156   0.633 -0.5977 -2.5157 -4.3726
 8784SOL     OW27036   3.004   2.672   5.756  0.0340 -0.6732 -0.3249
 8784SOL    HW127037   2.920   2.639   5.790 -1.1896  3.2332  1.0669
 8784SOL    HW227038   2.979   2.723   5.678  1.5430 -1.6535 -1.4824
 8785SOL     OW27039   1.864   5.557   4.323 -0.4863 -0.1073  0.0191
 8785SOL    HW127040   1.805   5.599   4.259 -1.0494  0.1119  0.6654
 8785SOL    HW227041   1.858   5.464   4.303 -0.9651 -0.0771 -0.0111
 8786SOL     OW27042   3.827   1.106   1.570 -0.9099 -0.6179 -0.2598
 8786SOL    HW127043   3.810   1.026   1.620  1.2059 -0.9275  0.1019
 8786SOL    HW227044   3.854   1.170   1.636 -1.2569 -0.0332 -0.6827
 8787SOL     OW27045   1.908   1.662   2.543  0.1196  0.0591  0.5115
 8787SOL    HW127046   1.891   1.722   2.616  2.9912  1.4893  0.1376
 8787SOL    HW227047   1.991   1.692   2.506  0.1308 -2.3146 -1.6579
 8788SOL     OW27048   3.659   5.868   5.993 -0.1779  0.4786  0.7540
 8788SOL    HW127049   3.624   5.808   5.927 -1.0000  1.1763  0.5275
 8788SOL    HW227050   3.745   5.833   6.015  1.2364  1.5316 -2.4797
 8789SOL     OW27051   6.294   1.238   2.176 -0.0545 -0.2061  0.1570
 8789SOL    HW127052   6.332   1.248   2.263 -0.2867 -1.1125  0.3745
 8789SOL    HW227053   6.200   1.247   2.189 -0.0722 -0.0900 -0.0439
 8790SOL     OW27054   0.908   5.086   1.990 -0.2655  0.3879  0.2359
 8790SOL    HW127055   0.899   5.173   1.950 -2.3693  0.9556  1.8080
 8790SOL    HW227056   0.971   5.099   2.061 -1.0965  0.8398  0.9152
 8791SOL     OW27057   6.800   6.639   6.910  0.0669  0.1528 -0.1166
 8791SOL    HW127058   6.889   6.612   6.891 -0.4986 -1.3002 -0.8272
 8791SOL    HW227059   6.749   6.615   6.832 -0.8879  1.3399  0.0920
 8792SOL     OW27060   7.103   0.838   1.543 -0.1243  0.2194  0.4855
 8792SOL    HW127061   7.194   0.815   1.561 -0.2437 -0.0182  0.7896
 8792SOL    HW227062   7.066   0.760   1.501 -0.4752 -0.0831  1.3357
 8793SOL     OW27063   0.052   1.708   6.219 -0.1861  0.4969 -0.1342
 8793SOL    HW127064   0.045   1.634   6.157 -0.6819 -1.0976  1.7280
 8793SOL    HW227065  -0.039   1.732   6.237 -0.0310  2.2737 -1.4360
 8794SOL     OW27066   4.979   2.851   2.251  0.0069  0.3215  0.4025
 8794SOL    HW127067   5.044   2.908   2.291  1.4867 -0.3541 -0.9174
 8794SOL    HW227068   5.020   2.765   2.249 -1.0954 -0.2139 -0.0915
 8795SOL     OW27069   6.472   4.153   0.653  0.1426  0.3962  0.1172
 8795SOL    HW127070   6.388   4.119   0.684 -0.4840  0.0191 -1.8404
 8795SOL    HW227071   6.451   4.238   0.615  0.3426 -0.3510 -1.7289
 8796SOL     OW27072   0.347   4.319   1.353  0.4289  0.6939  0.3804
 8796SOL    HW127073   0.390   4.378   1.291  0.1770  0.8443  0.3463
 8796SOL    HW227074   0.253   4.338   1.342  0.1137 -1.5135 -1.5120
 8797SOL     OW27075   1.683   3.975   5.297  0.2610  1.1921  0.1168
 8797SOL    HW127076   1.589   3.987   5.314  0.4572  0.9150  1.4849
 8797SOL    HW227077   1.687   3.943   5.207 -1.2524 -2.2604  1.1031
 8798SOL     OW27078   5.443   4.973   2.061  0.9117  0.1870  0.2904
 8798SOL    HW127079   5.475   4.987   2.150  1.0415  1.7467  0.0262
 8798SOL    HW227080   5.386   5.048   2.044  0.3899 -0.4161 -0.7171
 8799SOL     OW27081   4.711   7.370   5.866 -0.1906  0.3539  0.3531
 8799SOL    HW127082   4.664   7.304   5.816  1.8860  0.0778 -1.3982
 8799SOL    HW227083   4.792   7.326   5.894  0.0644  1.4111  1.3952
 8800SOL     OW27084   0.098   5.729   6.043 -0.5244 -0.2719 -0.3907
 8800SOL    HW127085   0.173   5.671   6.057 -0.5549 -0.0528  0.8162
 8800SOL    HW227086   0.104   5.756   5.951  2.0175  1.3075  0.1580
 8801SOL     OW27087   1.189   0.982   3.787 -0.2046  0.1019  0.1684
 8801SOL    HW127088   1.125   0.950   3.851 -0.4017  0.2629  0.0536
 8801SOL    HW227089   1.274   0.966   3.828 -0.3020 -0.5420  0.1214
 8802SOL     OW27090   3.028   0.964   4.106 -0.2040  0.3275  0.0835
 8802SOL    HW127091   2.956   1.027   4.100 -1.1986 -0.6142  1.5291
 8802SOL    HW227092   3.100   1.014   4.145 -0.8988  0.6714  0.9687
 8803SOL     OW27093   0.894   1.361   2.570 -0.3020  0.1844  1.2074
 8803SOL    HW127094   0.982   1.339   2.601 -0.0012 -0.7656 -0.2125
 8803SOL    HW227095   0.856   1.277   2.544 -1.5074  0.6266  1.4615
 8804SOL     OW27096   1.334   1.251   4.826  0.0912 -0.0796  0.3997
 8804SOL    HW127097   1.326   1.173   4.772  0.1650  0.1624  0.0380
 8804SOL    HW227098   1.367   1.318   4.767 -0.4576  0.3615  0.5798
 8805SOL     OW27099   3.718   1.362   3.816  0.3638  0.2939  0.5575
 8805SOL    HW127100   3.753   1.428   3.875 -0.3614  0.0112  1.3235
 8805SOL    HW227101   3.693   1.290   3.873  0.4066 -0.3229 -0.1854
 8806SOL     OW27102   3.476   0.524   3.963  0.1382  0.1289  0.4876
 8806SOL    HW127103   3.402   0.493   4.015 -0.3846 -0.1695 -0.4006
 8806SOL    HW227104   3.507   0.446   3.917 -0.3201  0.6397 -0.7272
 8807SOL     OW27105   6.790   2.512   2.243 -0.0279 -0.3746  0.4170
 8807SOL    HW127106   6.738   2.455   2.186 -2.0970  2.4919 -0.8127
 8807SOL    HW227107   6.728   2.547   2.306  0.9341  1.1762  0.5613
 8808SOL     OW27108   6.834   2.268   4.169  0.5092 -0.4815  0.0545
 8808SOL    HW127109   6.923   2.273   4.203  1.3517 -2.0635 -1.7364
 8808SOL    HW227110   6.813   2.175   4.169 -0.6641 -0.2480 -0.7715
 8809SOL     OW27111   4.342   4.269   4.653 -0.5497 -0.4071 -0.6082
 8809SOL    HW127112   4.386   4.350   4.627  0.0925 -0.3180  0.6681
 8809SOL    HW227113   4.413   4.206   4.663 -0.9503 -0.8646 -0.6430
 8810SOL     OW27114   1.347   6.052   2.993  0.7536 -0.4145  0.2878
 8810SOL    HW127115   1.287   6.094   3.053 -0.5186  0.5052 -1.5555
 8810SOL    HW227116   1.295   5.983   2.951  0.1293  1.8753 -3.0263
 8811SOL     OW27117   2.134   6.061   5.845  0.4592 -0.0455  0.6051
 8811SOL    HW127118   2.095   6.000   5.908  0.1063 -0.4491 -0.0004
 8811SOL    HW227119   2.228   6.052   5.859  0.3976 -0.4570  0.7748
 8812SOL     OW27120   2.940   5.446   2.804  0.0132 -0.5011 -0.0898
 8812SOL    HW127121   3.012   5.480   2.749  0.8272 -0.5439  0.9143
 8812SOL    HW227122   2.972   5.361   2.835 -0.4924 -0.5407  0.3299
 8813SOL     OW27123   1.546   3.943   6.769  0.7563  0.9177 -0.0988
 8813SOL    HW127124   1.560   3.943   6.674  1.0561 -0.0811 -0.0605
 8813SOL    HW227125   1.455   3.915   6.780  1.6390 -2.2916 -0.0103
 8814SOL     OW27126   3.416   6.929   4.729 -0.2879  0.0450 -0.6548
 8814SOL    HW127127   3.399   6.988   4.656 -1.3752  0.5578 -0.0026
 8814SOL    HW227128   3.457   6.984   4.795  1.1436 -0.5195 -1.0265
 8815SOL     OW27129   4.732   0.642   2.415 -0.3112 -0.0814  0.4017
 8815SOL    HW127130   4.794   0.574   2.390 -0.5602  0.2366 -1.1638
 8815SOL    HW227131   4.778   0.693   2.482  0.4633 -0.8472  0.4664
 8816SOL     OW27132   4.644   1.767   0.111  0.1983  0.2425 -0.4797
 8816SOL    HW127133   4.692   1.798   0.034  0.6718 -1.2124 -0.8002
 8816SOL    HW227134   4.625   1.675   0.092 -0.7416  0.1839  0.6347
 8817SOL     OW27135   3.238   1.816   5.219 -0.1137 -0.2669 -0.1203
 8817SOL    HW127136   3.233   1.879   5.291 -3.1618 -1.9408  1.3184
 8817SOL    HW227137   3.162   1.836   5.164  0.0204 -1.4198 -0.7464
 8818SOL     OW27138   0.466   4.971   5.257 -0.3389 -0.2186  0.3012
 8818SOL    HW127139   0.538   5.003   5.311  1.2133 -1.1496 -1.0985
 8818SOL    HW227140   0.475   5.018   5.175 -1.6303 -0.0298  0.2533
 8819SOL     OW27141   2.727   1.672   2.969 -0.0971 -0.8734 -0.0077
 8819SOL    HW127142   2.682   1.753   2.991 -1.0809 -1.0982 -1.1078
 8819SOL    HW227143   2.756   1.637   3.054 -2.3359 -0.9229  0.8005
 8820SOL     OW27144   0.220   6.480   5.294 -0.0113  0.2759  0.2100
 8820SOL    HW127145   0.307   6.465   5.332 -0.4541  0.6871  1.4352
 8820SOL    HW227146   0.178   6.541   5.355 -1.3337 -0.2870 -0.1140
 8821SOL     OW27147   5.640   6.466   4.775  0.1007 -0.0985 -0.0204
 8821SOL    HW127148   5.586   6.515   4.838  1.8066  1.9295 -0.0259
 8821SOL    HW227149   5.582   6.451   4.701 -0.3867  2.5362 -0.2688
 8822SOL     OW27150   1.569   1.347   3.534  0.3441  0.5587  0.6581
 8822SOL    HW127151   1.564   1.399   3.614 -0.0661  0.2446  0.8434
 8822SOL    HW227152   1.488   1.296   3.534 -0.5544  1.8875 -0.8795
 8823SOL     OW27153   3.410   4.984   4.361 -0.0900 -0.1189 -0.5087
 8823SOL    HW127154   3.460   4.936   4.295 -1.6016 -1.3607 -0.8244
 8823SOL    HW227155   3.347   4.920   4.394  1.5797 -0.0551  3.3385
 8824SOL     OW27156   5.409   5.747   5.051 -0.3896 -0.0482  0.3263
 8824SOL    HW127157   5.476   5.795   5.100 -1.0151  1.5917 -0.3626
 8824SOL    HW227158   5.441   5.656   5.049  0.9640  0.3760  1.4310
 8825SOL     OW27159   6.240   1.457   1.330  0.2996  0.1418  0.3181
 8825SOL    HW127160   6.164   1.397   1.327  1.7092 -1.7515  0.6913
 8825SOL    HW227161   6.300   1.417   1.392  2.3834  0.6153 -1.2651
 8826SOL     OW27162   6.923   7.683   1.569  0.2755 -0.0037 -0.4024
 8826SOL    HW127163   6.973   7.757   1.604 -0.7914  1.6705 -2.1666
 8826SOL    HW227164   6.833   7.699   1.598  0.2965 -1.5850  0.6238
 8827SOL     OW27165   6.095   4.932   5.595  0.8170  0.2749  0.2647
 8827SOL    HW127166   6.045   4.850   5.593  0.6702  0.3459  0.8955
 8827SOL    HW227167   6.046   4.992   5.539 -0.6306  0.8060  2.0350
 8828SOL     OW27168   3.137   4.746   4.148 -0.0155  0.9047  0.6225
 8828SOL    HW127169   3.076   4.810   4.110  0.3878  1.1146  0.3220
 8828SOL    HW227170   3.164   4.785   4.231 -0.8810  0.4561  1.1298
 8829SOL     OW27171   5.671   0.607   7.746  0.0126  0.3793  0.0172
 8829SOL    HW127172   5.604   0.661   7.702  1.2831  1.2548 -0.9090
 8829SOL    HW227173   5.684   0.650   7.831 -1.2050 -0.3111  0.5800
 8830SOL     OW27174   1.131   4.150   3.991 -0.2055  0.4851 -0.2222
 8830SOL    HW127175   1.070   4.176   3.922  0.3697 -0.5924 -1.1760
 8830SOL    HW227176   1.176   4.073   3.956  0.9190  0.5894  0.9030
 8831SOL     OW27177   0.054   5.064   0.486  0.0837 -0.2919 -0.2122
 8831SOL    HW127178   0.046   4.985   0.540 -0.5930  0.4810  0.8624
 8831SOL    HW227179  -0.035   5.079   0.453  0.7825 -1.7045 -3.0119
 8832SOL     OW27180   7.635   3.904   5.272  0.2706 -0.1244 -0.1849
 8832SOL    HW127181   7.582   3.963   5.219 -1.7346 -1.5538  0.1064
 8832SOL    HW227182   7.608   3.921   5.362  0.4193 -0.7639 -0.0143
 8833SOL     OW27183   2.978   2.940   3.822  0.3278  0.1495  0.0446
 8833SOL    HW127184   3.012   3.011   3.877 -1.0177  1.1985 -0.4091
 8833SOL    HW227185   3.024   2.951   3.738  0.5718  0.0875  0.1679
 8834SOL     OW27186   5.370   2.804   4.065 -0.2196  0.6310  0.5044
 8834SOL    HW127187   5.447   2.860   4.054  0.0543  0.0834 -0.4729
 8834SOL    HW227188   5.326   2.807   3.980 -0.1374 -0.7165  0.3931
 8835SOL     OW27189   7.367   1.603   2.193 -0.1392 -0.2757 -0.9211
 8835SOL    HW127190   7.312   1.661   2.141 -1.1662 -0.8674 -0.5288
 8835SOL    HW227191   7.401   1.540   2.130  1.7958  1.2853 -1.5322
 8836SOL     OW27192   6.321   4.118   4.611  0.6596  0.2561 -0.0763
 8836SOL    HW127193   6.360   4.206   4.608 -0.7916  0.9041 -0.8175
 8836SOL    HW227194   6.275   4.109   4.527  0.4293 -1.0561  0.1619
 8837SOL     OW27195   6.521   0.742   4.837  1.2770 -0.1671 -0.4608
 8837SOL    HW127196   6.476   0.668   4.796 -2.3003  0.4636  1.8627
 8837SOL    HW227197   6.490   0.819   4.790 -1.4722  0.4009  2.0016
 8838SOL     OW27198   0.287   2.599   6.521  0.5213 -0.3768  0.1107
 8838SOL    HW127199   0.283   2.522   6.577 -2.0986 -0.5823 -0.2428
 8838SOL    HW227200   0.261   2.672   6.578  0.7215 -0.1126 -0.1318
 8839SOL     OW27201   0.990   1.656   3.405  0.1320  0.3031 -0.1862
 8839SOL    HW127202   0.907   1.693   3.434  0.3524  0.6534  0.0109
 8839SOL    HW227203   1.050   1.730   3.403  1.2269 -0.3757  2.5189
 8840SOL     OW27204   7.764   1.851   6.919  0.0603 -0.3645  0.0658
 8840SOL    HW127205   7.710   1.929   6.902 -0.2625  0.2019  3.0926
 8840SOL    HW227206   7.704   1.788   6.959  0.7153 -1.4630 -0.6480
 8841SOL     OW27207   5.966   5.468   3.072  0.0225  0.7181  0.2418
 8841SOL    HW127208   6.048   5.515   3.088 -0.1776  0.8548  0.9015
 8841SOL    HW227209   5.923   5.465   3.157 -0.6807  0.6795 -0.1063
 8842SOL     OW27210   7.279   2.108   5.516  0.6286  0.3680  0.3841
 8842SOL    HW127211   7.335   2.039   5.552 -0.4520 -0.4520  0.5570
 8842SOL    HW227212   7.255   2.076   5.429 -0.0483  0.4091  0.5479
 8843SOL     OW27213   7.380   6.068   1.865 -0.2391 -0.3349  0.0325
 8843SOL    HW127214   7.463   6.022   1.851 -0.6017 -0.8199 -0.5779
 8843SOL    HW227215   7.405   6.152   1.903  0.4262 -1.1208  1.4056
 8844SOL     OW27216   4.963   6.038   1.713  0.7089  0.0395  0.3909
 8844SOL    HW127217   4.921   6.023   1.797 -0.0476 -0.1810 -0.0217
 8844SOL    HW227218   5.050   5.998   1.722  0.2993 -0.7885  0.7622
 8845SOL     OW27219   2.688   2.480   0.502 -0.2569  0.0437 -0.2332
 8845SOL    HW127220   2.767   2.502   0.452 -0.2516  0.8589  0.0999
 8845SOL    HW227221   2.715   2.491   0.594 -0.8803  0.8156 -0.1298
 8846SOL     OW27222   5.515   4.781   3.717 -0.1958  0.1293  0.1961
 8846SOL    HW127223   5.470   4.767   3.800  0.3780 -1.4673  0.2687
 8846SOL    HW227224   5.608   4.772   3.738  0.3392  3.8509  0.1543
 8847SOL     OW27225   2.062   7.759   3.767 -0.2779 -0.0895  0.1132
 8847SOL    HW127226   2.038   7.761   3.859 -1.8079  1.0959 -0.2763
 8847SOL    HW227227   1.997   7.700   3.727 -0.0539 -0.0466 -0.3186
 8848SOL     OW27228   6.667   7.535   2.479  0.4308 -0.2084 -0.4527
 8848SOL    HW127229   6.746   7.482   2.482  0.9866  0.6629  1.3596
 8848SOL    HW227230   6.698   7.625   2.489 -0.7656  0.1586  0.1270
 8849SOL     OW27231   4.339   3.796   3.557  0.3473 -0.3882 -0.1440
 8849SOL    HW127232   4.266   3.735   3.549 -0.9319  1.1885 -1.3552
 8849SOL    HW227233   4.302   3.869   3.607  1.3705  0.0616 -0.0302
 8850SOL     OW27234   1.414   4.808   6.848 -0.3839 -0.1536  0.4447
 8850SOL    HW127235   1.356   4.884   6.849 -1.5790 -0.9732 -1.2771
 8850SOL    HW227236   1.397   4.764   6.931 -0.9116  0.5709  0.7326
 8851SOL     OW27237   0.667   0.704   4.828  0.0671  0.3312 -0.2521
 8851SOL    HW127238   0.645   0.787   4.871  0.5350  0.6616 -0.6465
 8851SOL    HW227239   0.610   0.640   4.871  1.2437  0.4542  1.6216
 8852SOL     OW27240   2.366   6.056   3.471  0.1078 -0.1831  0.4102
 8852SOL    HW127241   2.342   6.106   3.393 -1.1609  0.2887  1.0778
 8852SOL    HW227242   2.332   5.968   3.454 -0.5405  0.0279  0.6058
 8853SOL     OW27243   2.340   3.160   5.902 -0.6146 -0.1228 -0.5282
 8853SOL    HW127244   2.432   3.173   5.924 -0.5129 -0.3063 -0.8474
 8853SOL    HW227245   2.340   3.133   5.810 -0.9150 -1.0533 -0.2660
 8854SOL     OW27246   3.573   1.861   4.815  0.3918  0.2656  0.5376
 8854SOL    HW127247   3.487   1.886   4.847  0.9866  1.0901  1.5985
 8854SOL    HW227248   3.559   1.832   4.725 -0.9745  0.4032  0.6888
 8855SOL     OW27249   4.713   1.954   2.119  0.0801  0.0777 -0.0175
 8855SOL    HW127250   4.724   1.975   2.212  2.9415 -0.5405 -0.1224
 8855SOL    HW227251   4.748   1.866   2.110 -0.9579 -0.2133 -1.5751
 8856SOL     OW27252   6.516   7.083   7.643 -0.5037  0.4011 -0.0940
 8856SOL    HW127253   6.468   7.065   7.562 -0.2636 -0.7618 -0.0004
 8856SOL    HW227254   6.542   7.175   7.636 -0.3700  0.2751 -1.4007
 8857SOL     OW27255   2.766   2.857   0.105  0.5813  0.2707 -0.2695
 8857SOL    HW127256   2.694   2.920   0.106 -0.2111 -0.6136  0.7339
 8857SOL    HW227257   2.798   2.857   0.015  0.6859  2.1800 -0.2635
 8858SOL     OW27258   3.582   4.347   5.824  0.9124  0.0431  1.0260
 8858SOL    HW127259   3.675   4.325   5.838  0.8780 -0.1105  1.0151
 8858SOL    HW227260   3.535   4.269   5.853  0.8703 -0.5133 -0.4443
 8859SOL     OW27261   3.400   4.046   2.484 -0.1461  0.1811  0.5269
 8859SOL    HW127262   3.362   4.018   2.401 -0.7560  1.6810  0.2704
 8859SOL    HW227263   3.422   3.964   2.529 -0.5919 -0.6654 -0.7382
 8860SOL     OW27264   1.365   6.269   4.336  0.4689 -0.2260 -0.5790
 8860SOL    HW127265   1.367   6.176   4.357  0.6997 -0.0889  0.0485
 8860SOL    HW227266   1.448   6.303   4.370 -0.2645  0.4871  0.5912
 8861SOL     OW27267   0.817   1.070   1.381  0.2328 -0.5006 -0.2286
 8861SOL    HW127268   0.743   1.010   1.376  1.1917 -1.7297 -0.1174
 8861SOL    HW227269   0.815   1.118   1.298 -0.2478 -1.0450 -0.5392
 8862SOL     OW27270   3.187   4.796   6.164  0.1064 -0.3729 -0.2038
 8862SOL    HW127271   3.099   4.832   6.160  0.2460 -0.0802 -2.5998
 8862SOL    HW227272   3.243   4.867   6.134  1.1383 -0.6504  1.0089
 8863SOL     OW27273   2.225   7.351   2.776  0.6951 -0.0790 -0.0678
 8863SOL    HW127274   2.304   7.305   2.804  0.7200 -0.7037 -1.0952
 8863SOL    HW227275   2.155   7.289   2.790  0.6171 -0.1427 -0.7022
 8864SOL     OW27276   1.927   4.805   0.655 -0.4803 -0.1920 -0.3048
 8864SOL    HW127277   1.956   4.764   0.737 -0.9464  0.0876  0.0100
 8864SOL    HW227278   2.000   4.863   0.631  1.7320 -3.5556 -2.5826
 8865SOL     OW27279   0.311   4.403   0.541  0.5310 -0.1113 -0.4706
 8865SOL    HW127280   0.266   4.480   0.575  1.2793 -0.0486  0.4182
 8865SOL    HW227281   0.325   4.422   0.449  1.3678  1.1458 -0.1037
 8866SOL     OW27282   4.204   6.548   0.466  0.3796  0.0097  0.2058
 8866SOL    HW127283   4.299   6.549   0.474  0.6371  1.1439 -2.2121
 8866SOL    HW227284   4.177   6.638   0.484 -0.1210 -0.0799 -0.0681
 8867SOL     OW27285   7.310   3.770   2.805 -0.4394  0.5826 -0.2209
 8867SOL    HW127286   7.385   3.794   2.749 -1.4254 -0.4635 -2.1110
 8867SOL    HW227287   7.245   3.838   2.788 -1.1220 -0.2747 -1.2083
 8868SOL     OW27288   0.550   3.858   3.600  0.0399 -0.5821 -0.5490
 8868SOL    HW127289   0.588   3.945   3.595  1.1977 -1.1356 -1.7857
 8868SOL    HW227290   0.537   3.831   3.509 -0.4320 -1.6340 -0.1900
 8869SOL     OW27291   5.737   5.285   5.700 -0.3586 -0.0093 -0.5017
 8869SOL    HW127292   5.750   5.355   5.637  0.1167  2.0865  1.7655
 8869SOL    HW227293   5.665   5.233   5.665  0.4953  0.4679 -3.1770
 8870SOL     OW27294   0.086   3.521   3.697  0.7546 -0.2360  0.0029
 8870SOL    HW127295   0.152   3.460   3.663  1.1398 -0.4239  1.0419
 8870SOL    HW227296   0.023   3.465   3.743  1.7436  0.1711  1.9996
 8871SOL     OW27297   6.336   1.979   6.581  0.4623  0.0622  0.3469
 8871SOL    HW127298   6.424   1.984   6.542  0.4722 -1.0697  0.1810
 8871SOL    HW227299   6.289   2.053   6.544  1.2053  0.4040  0.0626
 8872SOL     OW27300   6.458   0.079   0.495  0.2398 -0.0024 -0.7323
 8872SOL    HW127301   6.432  -0.009   0.520 -1.9380  0.7521 -0.1189
 8872SOL    HW227302   6.481   0.073   0.403  1.9751 -1.5469 -0.2579
 8873SOL     OW27303   0.937   1.699   2.054 -0.4176  0.0454  0.0673
 8873SOL    HW127304   0.844   1.696   2.034 -0.3164 -1.7560 -0.3356
 8873SOL    HW227305   0.941   1.730   2.144 -1.6021 -1.9292  0.8778
 8874SOL     OW27306   7.563   5.850   6.537  0.2182  0.2772 -0.1436
 8874SOL    HW127307   7.611   5.839   6.455  1.0558 -0.7959  0.4690
 8874SOL    HW227308   7.568   5.944   6.555  0.5965  0.4278 -0.9703
 8875SOL     OW27309   0.855   7.377   1.239 -0.3804  0.0422 -0.1945
 8875SOL    HW127310   0.838   7.333   1.155  0.5364 -1.1531  0.2197
 8875SOL    HW227311   0.813   7.322   1.304  0.3893  0.0124  0.2909
 8876SOL     OW27312   1.909   2.599   3.599 -0.0723  0.5859 -0.6570
 8876SOL    HW127313   1.913   2.521   3.654 -1.6531  0.1915 -1.0424
 8876SOL    HW227314   1.905   2.671   3.661  1.2135  0.3774 -0.2948
 8877SOL     OW27315   2.696   3.261   0.115 -1.0044  0.3354  0.3186
 8877SOL    HW127316   2.664   3.191   0.058 -0.6985  0.3451  0.1361
 8877SOL    HW227317   2.644   3.251   0.195 -1.5991  0.4740 -0.0468
 8878SOL     OW27318   0.446   0.662   1.397  0.1222 -0.0438 -0.0208
 8878SOL    HW127319   0.406   0.640   1.314  0.8516  1.5663 -0.8483
 8878SOL    HW227320   0.468   0.578   1.437  0.9534 -0.8592 -2.0582
 8879SOL     OW27321   3.500   1.900   7.530  0.0927  0.5391 -0.4807
 8879SOL    HW127322   3.497   1.960   7.455 -0.4869  1.9454  0.6300
 8879SOL    HW227323   3.593   1.897   7.554  0.0515  1.5890 -0.1124
 8880SOL     OW27324   0.233   6.107   6.885 -0.4098 -0.0940 -0.4307
 8880SOL    HW127325   0.235   6.085   6.792  0.6555 -0.2809 -0.3713
 8880SOL    HW227326   0.202   6.198   6.888 -0.3995 -0.0715 -0.9623
 8881SOL     OW27327   2.690   4.905   3.649  0.0752 -0.3547 -0.0225
 8881SOL    HW127328   2.651   4.844   3.712  1.9277 -1.9729 -0.3352
 8881SOL    HW227329   2.783   4.906   3.671  0.4041  0.7659 -1.3530
 8882SOL     OW27330   1.453   0.687   1.164  0.3381  1.0293  0.3456
 8882SOL    HW127331   1.416   0.637   1.237  0.5951  2.3049  1.4017
 8882SOL    HW227332   1.516   0.628   1.124 -1.3155 -0.4403 -0.1942
 8883SOL     OW27333   4.545   1.679   1.855  0.4177  0.3134 -0.4220
 8883SOL    HW127334   4.506   1.765   1.840  0.5100  0.2528 -1.0291
 8883SOL    HW227335   4.480   1.632   1.906  0.4718  0.8278  0.1341
 8884SOL     OW27336   1.514   7.711   5.526 -0.4231 -0.3758  0.4741
 8884SOL    HW127337   1.558   7.748   5.602 -0.3589  1.2636 -0.3176
 8884SOL    HW227338   1.539   7.618   5.525  0.8281 -0.0636  1.5461
 8885SOL     OW27339   7.114   4.139   2.615  0.5345  0.3550  0.3200
 8885SOL    HW127340   7.097   4.176   2.528 -0.0849  1.1446  0.7699
 8885SOL    HW227341   7.185   4.193   2.650 -1.0521  1.8815  1.3932
 8886SOL     OW27342   7.080   0.225   1.646 -0.1714  0.0003 -0.1985
 8886SOL    HW127343   7.167   0.228   1.606 -0.2726  1.8920 -0.3814
 8886SOL    HW227344   7.092   0.177   1.728  1.7332  2.6933  1.2357
 8887SOL     OW27345   3.705   0.682   0.357  0.0302  0.2850 -0.0070
 8887SOL    HW127346   3.690   0.719   0.445 -0.6628  0.3871 -0.1627
 8887SOL    HW227347   3.766   0.744   0.316 -3.0152  2.7461 -1.1662
 8888SOL     OW27348   6.412   4.755   0.800  0.5323  0.3134 -0.0003
 8888SOL    HW127349   6.378   4.842   0.781  0.4582 -0.0255 -1.4934
 8888SOL    HW227350   6.338   4.696   0.786  1.0817 -0.1800 -0.9117
 8889SOL     OW27351   5.673   0.356   6.186 -1.0898  0.0274 -0.0150
 8889SOL    HW127352   5.659   0.266   6.217 -1.6709  0.1591  0.1092
 8889SOL    HW227353   5.587   0.384   6.155 -0.9118  0.5500 -0.0384
 8890SOL     OW27354   5.885   5.941   0.870 -0.3120  0.2989  0.5151
 8890SOL    HW127355   5.882   5.875   0.939 -0.2095 -0.3433 -0.0788
 8890SOL    HW227356   5.955   5.911   0.812 -1.8764 -0.4143 -1.0877
 8891SOL     OW27357   2.402   2.180   0.499 -0.6508  0.0062  0.0263
 8891SOL    HW127358   2.489   2.186   0.460 -0.1556 -0.7772  0.9680
 8891SOL    HW227359   2.418   2.161   0.591 -1.7912  1.8132  0.6457
 8892SOL     OW27360   4.940   3.396   3.945  0.1747  0.6517  0.8256
 8892SOL    HW127361   4.877   3.351   3.888  0.5992 -0.1866  1.0173
 8892SOL    HW227362   4.888   3.423   4.021  0.5248 -2.6014  2.4059
 8893SOL     OW27363   6.991   2.701   2.559 -0.4346 -0.3944 -0.1794
 8893SOL    HW127364   6.926   2.632   2.571  1.0783 -1.9278 -0.6165
 8893SOL    HW227365   7.015   2.696   2.467 -0.8398  1.2334 -0.4074
 8894SOL     OW27366   4.160   3.376   6.426  0.3590  0.1518  0.6625
 8894SOL    HW127367   4.109   3.317   6.370  0.3103  0.0989  0.7633
 8894SOL    HW227368   4.192   3.444   6.366  0.4290  0.0136  0.5432
 8895SOL     OW27369   1.918   2.849   2.937 -0.2204  0.1771  0.6004
 8895SOL    HW127370   1.885   2.933   2.969 -0.7799  0.5127 -0.7888
 8895SOL    HW227371   1.885   2.784   2.999 -2.1125  0.6936  0.1762
 8896SOL     OW27372   6.612   4.399   4.653  0.0387  0.0104  0.1053
 8896SOL    HW127373   6.544   4.403   4.585  1.1671  2.4174 -1.0296
 8896SOL    HW227374   6.564   4.400   4.736 -1.3936  2.2014 -0.6561
 8897SOL     OW27375   7.589   2.099   4.066  0.5962  0.3494 -0.3120
 8897SOL    HW127376   7.494   2.101   4.053  0.4436 -0.6624  0.4991
 8897SOL    HW227377   7.625   2.095   3.978 -0.1569 -0.1068 -0.6108
 8898SOL     OW27378   1.499   2.169   2.312  0.0370  0.1906  0.0246
 8898SOL    HW127379   1.425   2.136   2.362  0.6665  2.8168  3.0300
 8898SOL    HW227380   1.476   2.260   2.293  1.2739  0.2099 -1.6798
 8899SOL     OW27381   7.023   3.690   4.170  0.2965  0.3062  0.2073
 8899SOL    HW127382   7.071   3.628   4.226 -0.0057 -0.7701 -0.6850
 8899SOL    HW227383   6.932   3.663   4.177  0.2453  0.1868 -0.7419
 8900SOL     OW27384   0.156   5.838   5.806 -0.4579 -0.4793 -0.0915
 8900SOL    HW127385   0.246   5.847   5.776 -0.9210 -1.2162 -1.7948
 8900SOL    HW227386   0.103   5.870   5.734 -1.5904 -0.0336  0.9016
 8901SOL     OW27387   3.481   7.018   7.686  0.0861  1.0895  0.1906
 8901SOL    HW127388   3.556   6.980   7.731 -0.3185 -0.8926 -0.7185
 8901SOL    HW227389   3.500   7.007   7.593 -0.4211  2.4274 -0.0982
 8902SOL     OW27390   7.341   7.663   0.815 -0.4967  0.1274  0.3404
 8902SOL    HW127391   7.395   7.706   0.880  0.9143  0.5332 -1.0395
 8902SOL    HW227392   7.265   7.720   0.805  0.6233  1.5571 -0.3654
 8903SOL     OW27393   3.751   1.230   1.331  0.0322 -0.0837 -0.1058
 8903SOL    HW127394   3.795   1.176   1.396  1.0270  1.8753  0.9544
 8903SOL    HW227395   3.673   1.262   1.375  0.0754  0.2873 -0.2945
 8904SOL     OW27396   5.316   6.277   3.360 -0.8634 -0.1027 -0.1335
 8904SOL    HW127397   5.373   6.317   3.426  0.6827  0.2795 -1.6305
 8904SOL    HW227398   5.351   6.188   3.349  3.3265  1.6634 -4.9527
 8905SOL     OW27399   6.199   3.456   1.988  0.2938 -0.2083  0.3003
 8905SOL    HW127400   6.152   3.372   1.990 -0.7549  0.3536 -0.0215
 8905SOL    HW227401   6.131   3.521   1.970  1.4338  0.4395 -2.0440
 8906SOL     OW27402   4.829   0.029   4.017 -0.5827 -0.3954 -0.2233
 8906SOL    HW127403   4.832   0.054   4.109 -3.1051 -3.0415  0.7186
 8906SOL    HW227404   4.834  -0.067   4.018 -2.7711 -0.6387 -2.6476
 8907SOL     OW27405   0.843   6.825   3.563  0.0386 -0.0992 -0.9203
 8907SOL    HW127406   0.868   6.821   3.471  0.3982 -2.0078 -0.7719
 8907SOL    HW227407   0.916   6.784   3.610  0.7341  2.4639  0.4555
 8908SOL     OW27408   6.600   2.048   5.107  0.4808 -0.1022 -0.0556
 8908SOL    HW127409   6.510   2.043   5.075 -0.4177 -0.6765  2.4004
 8908SOL    HW227410   6.600   2.121   5.169  1.8203  0.1195 -0.2837
 8909SOL     OW27411   0.489   7.302   5.784  0.1118 -0.0115 -0.7030
 8909SOL    HW127412   0.533   7.218   5.778  0.5710  0.3234 -2.9664
 8909SOL    HW227413   0.417   7.296   5.722 -1.4021  0.4247  0.9315
 8910SOL     OW27414   3.780   0.038   5.818 -0.2397  0.3862 -0.0988
 8910SOL    HW127415   3.872   0.049   5.840 -0.1929  0.3215 -0.2587
 8910SOL    HW227416   3.751   0.125   5.792  0.3754 -0.0041 -2.2925
 8911SOL     OW27417   2.025   7.436   1.198  0.3126  0.4813  0.1425
 8911SOL    HW127418   1.942   7.415   1.155 -0.7718  1.8213  1.5010
 8911SOL    HW227419   2.081   7.469   1.127 -0.8617  1.0790 -0.5244
 8912SOL     OW27420   5.401   1.704   3.575  0.7064  0.2373 -0.3477
 8912SOL    HW127421   5.366   1.791   3.593 -1.4914 -0.0669 -2.6354
 8912SOL    HW227422   5.328   1.655   3.539  2.1572 -2.2695 -0.1627
 8913SOL     OW27423   3.122   2.642   7.337 -0.5954  0.3230  0.0358
 8913SOL    HW127424   3.217   2.650   7.344 -0.6422  0.7445  0.2411
 8913SOL    HW227425   3.102   2.657   7.245 -0.5924  1.7603  0.2433
 8914SOL     OW27426   0.476   3.482   4.693 -0.4503 -0.0116 -0.0090
 8914SOL    HW127427   0.423   3.472   4.772  1.8721  1.1405  1.8373
 8914SOL    HW227428   0.446   3.563   4.654 -1.5511 -0.5337 -0.2707
 8915SOL     OW27429   2.645   0.508   5.462  0.0873 -0.3828 -0.0167
 8915SOL    HW127430   2.656   0.601   5.483  0.6318 -0.8468  1.9560
 8915SOL    HW227431   2.552   0.498   5.444 -0.0842  0.4344  0.3629
 8916SOL     OW27432   2.580   6.990   7.614  0.4508  0.7137  0.0513
 8916SOL    HW127433   2.507   6.992   7.552  0.8961  0.7992 -0.4786
 8916SOL    HW227434   2.540   7.012   7.698 -0.1839  0.4687 -0.1794
 8917SOL     OW27435   3.142   2.169   0.068  0.2724  0.2860 -0.0416
 8917SOL    HW127436   3.193   2.249   0.060  1.6488 -0.6089 -0.5577
 8917SOL    HW227437   3.182   2.122   0.141  0.7235 -0.7823 -0.9451
 8918SOL     OW27438   3.388   4.243   3.333 -0.5008  0.3754 -0.5983
 8918SOL    HW127439   3.473   4.287   3.329 -0.6961  0.8077 -0.0906
 8918SOL    HW227440   3.324   4.313   3.314 -0.7384  0.0090 -1.1995
 8919SOL     OW27441   3.767   5.180   1.399  0.0355  0.6489 -0.8785
 8919SOL    HW127442   3.689   5.196   1.452  1.9210  0.0228  2.3220
 8919SOL    HW227443   3.791   5.267   1.365 -0.7331  1.2512  0.0834
 8920SOL     OW27444   0.347   0.750   1.917  0.0304  0.2866  0.4744
 8920SOL    HW127445   0.257   0.717   1.912 -0.5451  1.9824 -1.5301
 8920SOL    HW227446   0.343   0.818   1.984  0.4901 -1.3458  2.2663
 8921SOL     OW27447   6.242   6.430   5.162 -0.0638 -0.4553 -0.7066
 8921SOL    HW127448   6.300   6.445   5.237 -0.2722  0.7514 -0.7734
 8921SOL    HW227449   6.224   6.336   5.165 -1.6121 -0.1704  1.9192
 8922SOL     OW27450   0.788   4.257   1.141 -0.0120 -0.3983 -0.2189
 8922SOL    HW127451   0.701   4.220   1.154  0.2705 -0.9476  0.1820
 8922SOL    HW227452   0.798   4.265   1.046 -0.7196  0.2210 -0.2474
 8923SOL     OW27453   7.424   0.060   1.850  0.4254  0.3646 -0.1610
 8923SOL    HW127454   7.436   0.139   1.797  1.6313  0.6247  0.4699
 8923SOL    HW227455   7.492  -0.000   1.820  0.5902  0.2064  0.5081
 8924SOL     OW27456   4.126   6.972   6.267 -0.4910 -0.5164 -0.4277
 8924SOL    HW127457   4.108   7.064   6.286  0.4646 -0.2662 -0.7101
 8924SOL    HW227458   4.048   6.942   6.220 -1.2828 -0.1616  0.6176
 8925SOL     OW27459   5.233   7.093   1.214  0.8621 -0.7507 -0.5796
 8925SOL    HW127460   5.177   7.044   1.274  0.6310  0.7909  0.5472
 8925SOL    HW227461   5.322   7.070   1.241  0.8660  1.9170  2.3400
 8926SOL     OW27462   2.824   7.162   1.598  0.2357 -0.1983 -0.2672
 8926SOL    HW127463   2.815   7.258   1.600  0.2412 -0.2022 -0.0103
 8926SOL    HW227464   2.912   7.147   1.565  0.6264 -0.0901  0.6759
 8927SOL     OW27465   2.141   2.195   3.470  0.0973  0.2318 -0.1983
 8927SOL    HW127466   2.210   2.238   3.419 -0.1970  0.2192 -0.6079
 8927SOL    HW227467   2.067   2.256   3.468  0.1015  0.2566  0.2618
 8928SOL     OW27468   7.077   1.819   3.346  0.1206 -0.5297 -0.0776
 8928SOL    HW127469   7.056   1.734   3.386  1.2048 -0.4422  0.7303
 8928SOL    HW227470   7.062   1.883   3.416 -0.3937 -0.0819 -0.5915
 8929SOL     OW27471   7.246   4.305   1.757  0.5573 -0.6302  0.3901
 8929SOL    HW127472   7.259   4.335   1.667  0.0619  1.6707  1.0138
 8929SOL    HW227473   7.335   4.301   1.793  0.7705 -1.7073 -0.2151
 8930SOL     OW27474   1.113   1.691   6.706 -0.2833  0.5801  0.6736
 8930SOL    HW127475   1.158   1.733   6.633  0.8109  1.7249  1.9633
 8930SOL    HW227476   1.061   1.621   6.665  2.6761 -0.8775 -0.9302
 8931SOL     OW27477   3.533   3.308   4.277  0.2705  0.5166  0.1119
 8931SOL    HW127478   3.495   3.392   4.251  1.4825  0.3037 -2.7818
 8931SOL    HW227479   3.458   3.252   4.296 -0.8756  0.8382 -2.9573
 8932SOL     OW27480   0.747   6.925   6.923 -0.1962  0.1671  0.2272
 8932SOL    HW127481   0.664   6.939   6.968  0.4185 -3.2735  2.9167
 8932SOL    HW227482   0.730   6.855   6.861  0.2976  0.8517 -0.7115
 8933SOL     OW27483   5.316   0.818   0.772 -0.4058  1.0832 -0.4248
 8933SOL    HW127484   5.327   0.810   0.677  0.5783  2.0794 -0.4010
 8933SOL    HW227485   5.221   0.823   0.784 -0.5077  1.9273 -1.4424
 8934SOL     OW27486   4.900   6.798   1.818  0.4065  0.3478  0.5615
 8934SOL    HW127487   4.882   6.892   1.827 -1.4859  0.0177  0.6985
 8934SOL    HW227488   4.955   6.792   1.740 -2.6258  1.3254 -1.8981
 8935SOL     OW27489   7.309   5.802   7.320  0.2235 -0.3237  0.3231
 8935SOL    HW127490   7.348   5.715   7.329 -1.3015 -0.9279  1.4924
 8935SOL    HW227491   7.271   5.821   7.407  0.4488  1.4749  0.0750
 8936SOL     OW27492   4.743   0.801   3.619 -0.5692 -0.4571  0.0733
 8936SOL    HW127493   4.662   0.818   3.572  0.1103  0.7676 -0.7150
 8936SOL    HW227494   4.810   0.796   3.551  0.2056 -0.1976  0.7936
 8937SOL     OW27495   1.003   4.872   5.714  0.6492  0.5063  0.0047
 8937SOL    HW127496   1.040   4.786   5.734 -1.2945  0.0252  1.8430
 8937SOL    HW227497   1.056   4.933   5.765  1.0350  0.2382 -0.0656
 8938SOL     OW27498   2.884   4.322   2.557  0.0577 -0.0814  0.1406
 8938SOL    HW127499   2.941   4.248   2.579 -1.2376 -1.3225 -0.4812
 8938SOL    HW227500   2.943   4.394   2.539  1.4307 -1.3483 -0.5939
 8939SOL     OW27501   7.711   7.381   3.785 -0.1241  0.4307  0.1514
 8939SOL    HW127502   7.782   7.439   3.813  2.0497 -0.5987 -2.7004
 8939SOL    HW227503   7.753   7.297   3.768 -2.2789 -0.6033 -0.5279
 8940SOL     OW27504   0.895   4.370   2.967  0.3354  0.4921  0.3510
 8940SOL    HW127505   0.805   4.398   2.951  0.0898  0.1808  1.1596
 8940SOL    HW227506   0.946   4.412   2.897 -0.3011  1.3880  0.4135
 8941SOL     OW27507   4.136   7.536   6.883  0.4282  0.1280  0.1441
 8941SOL    HW127508   4.183   7.609   6.924  1.9407 -0.2035 -0.8941
 8941SOL    HW227509   4.050   7.572   6.860  1.3698  1.8273 -0.9625
 8942SOL     OW27510   1.046   6.710   4.092  0.1342 -0.1501 -0.5883
 8942SOL    HW127511   1.061   6.622   4.126 -0.0828 -0.3981 -1.1320
 8942SOL    HW227512   0.963   6.736   4.132  0.3188 -0.0926 -0.2356
 8943SOL     OW27513   2.212   5.065   6.257 -0.1322  0.0306 -0.1361
 8943SOL    HW127514   2.127   5.022   6.267 -0.3785  0.4696 -0.2963
 8943SOL    HW227515   2.276   4.994   6.262 -0.5797 -0.4783 -1.3544
 8944SOL     OW27516   2.902   1.635   4.107 -0.0285 -0.6238 -0.4948
 8944SOL    HW127517   2.871   1.578   4.037 -0.1484 -0.5282 -0.5215
 8944SOL    HW227518   2.840   1.619   4.179 -0.3035 -0.2361 -0.6386
 8945SOL     OW27519   1.738   5.286   0.142 -0.0916 -0.5714  0.4725
 8945SOL    HW127520   1.761   5.322   0.228 -0.9632 -1.5315  1.1448
 8945SOL    HW227521   1.663   5.229   0.160  0.0833 -1.2519 -0.8348
 8946SOL     OW27522   7.110   5.413   2.900  0.2754 -0.2608  0.3350
 8946SOL    HW127523   7.106   5.401   2.994 -1.5925  0.5761  0.4082
 8946SOL    HW227524   7.146   5.501   2.888 -0.4902  0.0620  0.3271
 8947SOL     OW27525   1.045   6.382   2.370 -0.3473  0.1185  0.5537
 8947SOL    HW127526   1.120   6.330   2.400 -0.9751 -0.9371  0.3125
 8947SOL    HW227527   1.008   6.332   2.298 -1.8705  0.1511  1.2820
 8948SOL     OW27528   7.489   6.415   7.414  0.0570 -0.8646 -0.1388
 8948SOL    HW127529   7.442   6.497   7.404 -1.5748 -1.6050  1.0978
 8948SOL    HW227530   7.435   6.362   7.473  2.6892 -1.5650  1.8773
 8949SOL     OW27531   5.746   6.006   1.920 -0.2132 -0.6779 -0.2377
 8949SOL    HW127532   5.749   6.043   1.832  0.8890  0.0959  0.1018
 8949SOL    HW227533   5.794   5.924   1.914  2.0755  0.5665  0.1436
 8950SOL     OW27534   7.256   6.759   2.397  0.3565  0.2954  0.0631
 8950SOL    HW127535   7.224   6.670   2.383 -0.7887  0.7019  0.0405
 8950SOL    HW227536   7.289   6.759   2.487  0.7451 -0.2520 -0.0742
 8951SOL     OW27537   4.552   1.375   2.596 -0.1539  0.4278  0.4578
 8951SOL    HW127538   4.542   1.433   2.521 -1.1848 -0.1883  0.1011
 8951SOL    HW227539   4.468   1.330   2.604 -0.2084  0.7642  2.2396
 8952SOL     OW27540   0.391   2.343   0.485  0.1198 -0.4688 -0.0045
 8952SOL    HW127541   0.344   2.424   0.470 -0.5581 -0.6385  1.1369
 8952SOL    HW227542   0.421   2.348   0.576 -0.3601 -1.7041  0.2431
 8953SOL     OW27543   3.237   5.205   2.272  0.4912 -0.2543  0.4735
 8953SOL    HW127544   3.283   5.229   2.192  1.6235 -0.9082  0.9014
 8953SOL    HW227545   3.144   5.216   2.251  0.6589 -2.0616 -1.4892
 8954SOL     OW27546   3.380   1.031   0.897 -0.7299  0.1262  0.0661
 8954SOL    HW127547   3.473   1.038   0.873 -0.8118 -1.0025 -0.6339
 8954SOL    HW227548   3.336   1.008   0.816 -1.8891  2.2427  0.0134
 8955SOL     OW27549   0.494   0.119   6.581 -0.0842 -0.0303  0.2622
 8955SOL    HW127550   0.535   0.205   6.572 -0.5126  0.3212  1.4571
 8955SOL    HW227551   0.462   0.098   6.493  1.1181  0.4574 -0.3123
 8956SOL     OW27552   7.057   0.555   4.005  0.1775  0.3674 -0.7572
 8956SOL    HW127553   7.043   0.505   4.085  0.3072  0.9511 -0.3693
 8956SOL    HW227554   6.968   0.571   3.971  0.1351 -0.1339 -0.8941
 8957SOL     OW27555   6.085   4.580   3.501  0.4293 -0.2778 -0.2910
 8957SOL    HW127556   6.073   4.499   3.550  0.8185 -0.4077 -0.4064
 8957SOL    HW227557   6.067   4.649   3.565 -0.3677 -0.4554 -0.3202
 8958SOL     OW27558   7.169   2.978   3.494 -0.5023  0.1111  0.3203
 8958SOL    HW127559   7.241   3.002   3.552 -0.3511 -1.3014  0.7533
 8958SOL    HW227560   7.090   3.005   3.541 -0.3035  1.0644  0.1345
 8959SOL     OW27561   2.113   7.167   7.181  0.1558 -0.3911 -0.4441
 8959SOL    HW127562   2.072   7.171   7.267  0.7173 -2.7824  0.0066
 8959SOL    HW227563   2.057   7.222   7.125 -1.1721 -0.1249  1.0757
 8960SOL     OW27564   2.449   0.728   2.777 -0.2379  0.1131  0.4965
 8960SOL    HW127565   2.437   0.667   2.705 -0.5402  0.7370  0.0058
 8960SOL    HW227566   2.389   0.697   2.845 -0.1885 -0.2887  0.3575
 8961SOL     OW27567   5.181   0.496   7.411  0.1445  0.3197  0.2345
 8961SOL    HW127568   5.100   0.545   7.416  0.5884  1.0195  0.7254
 8961SOL    HW227569   5.191   0.456   7.498 -0.9064 -1.8166 -0.5428
 8962SOL     OW27570   4.367   7.485   0.028  0.0850  0.2887 -0.3374
 8962SOL    HW127571   4.448   7.454  -0.013  0.5686 -0.8559  1.3514
 8962SOL    HW227572   4.305   7.412   0.017 -0.4849  0.8515 -0.9424
 8963SOL     OW27573   4.332   1.403   0.425  0.0227  0.2300  0.3826
 8963SOL    HW127574   4.401   1.337   0.430 -0.8862 -0.8207 -0.4118
 8963SOL    HW227575   4.376   1.486   0.443  1.6263 -0.3178 -0.8170
 8964SOL     OW27576   6.416   7.310   0.388 -0.1441  0.2909 -0.3097
 8964SOL    HW127577   6.440   7.218   0.378 -1.6724 -0.2410  0.6605
 8964SOL    HW227578   6.493   7.358   0.356  0.6315 -1.2997 -0.9547
 8965SOL     OW27579   4.543   1.254   0.855  0.3395  0.1393 -0.0186
 8965SOL    HW127580   4.560   1.348   0.866  0.5879 -0.0452  1.2899
 8965SOL    HW227581   4.572   1.214   0.937 -3.7024 -0.5889  1.2632
 8966SOL     OW27582   1.969   0.340   5.672 -0.1050 -0.2056 -0.0982
 8966SOL    HW127583   1.999   0.273   5.610  1.4435  0.1925  0.1956
 8966SOL    HW227584   1.873   0.335   5.667 -0.0396 -2.1935 -0.3427
 8967SOL     OW27585   4.036   2.012   3.293 -0.2378 -0.4713  0.4890
 8967SOL    HW127586   4.097   1.972   3.231  0.7140 -0.4282  1.3706
 8967SOL    HW227587   4.000   2.087   3.246  0.5711 -0.3600  0.0357
 8968SOL     OW27588   1.828   2.113   3.439  0.1997 -0.1732  0.1930
 8968SOL    HW127589   1.864   2.201   3.427  0.9073 -0.4649  0.1319
 8968SOL    HW227590   1.834   2.072   3.352  1.9187 -1.0280  0.6878
 8969SOL     OW27591   5.566   6.821   5.116  0.3476 -0.0997 -0.0691
 8969SOL    HW127592   5.581   6.783   5.202 -1.9234  0.3901  0.6401
 8969SOL    HW227593   5.475   6.851   5.120 -0.0214 -0.6097 -2.8597
 8970SOL     OW27594   0.094   2.049   4.491  0.3928 -0.1358 -0.0453
 8970SOL    HW127595   0.181   2.016   4.469  0.6527 -0.1671  0.9784
 8970SOL    HW227596   0.080   2.020   4.582 -0.9577 -0.6861 -0.4195
 8971SOL     OW27597   6.409   7.077   7.158  0.3873  0.3740 -0.9743
 8971SOL    HW127598   6.373   7.096   7.071  0.9771  0.7623 -1.1384
 8971SOL    HW227599   6.501   7.060   7.143  0.4687  0.3129 -0.4338
 8972SOL     OW27600   4.073   2.295   3.920 -0.0750  0.3278  0.3015
 8972SOL    HW127601   4.146   2.234   3.908 -2.0048 -1.6591 -2.9367
 8972SOL    HW227602   4.108   2.380   3.896  1.2214 -0.6162 -1.4253
 8973SOL     OW27603   4.965   0.025   0.039  0.4842  0.4354  0.1689
 8973SOL    HW127604   4.874   0.001   0.022 -0.1370  2.3046  0.5427
 8973SOL    HW227605   4.997  -0.042   0.098 -0.3475 -0.7632 -0.6775
 8974SOL     OW27606   1.736   6.978   0.948  0.6006  0.0084  0.3667
 8974SOL    HW127607   1.698   6.915   0.887  0.0714 -0.7302  1.4311
 8974SOL    HW227608   1.685   7.058   0.934 -0.0721 -0.4015  0.4258
 8975SOL     OW27609   1.736   3.197   2.049  0.3245  0.3210 -0.4761
 8975SOL    HW127610   1.716   3.157   1.964  0.0384 -1.1400  0.2480
 8975SOL    HW227611   1.740   3.291   2.031 -2.7388  0.3643 -1.5630
 8976SOL     OW27612   1.313   0.967   5.532 -0.1555  0.2786 -0.7345
 8976SOL    HW127613   1.363   0.888   5.512 -0.9728 -0.7780  1.1436
 8976SOL    HW227614   1.242   0.968   5.467 -0.8754 -1.2456 -0.0015
 8977SOL     OW27615   1.413   4.221   1.177 -0.3633 -0.1746  0.3205
 8977SOL    HW127616   1.374   4.260   1.255  0.3497 -0.1864  0.6888
 8977SOL    HW227617   1.507   4.218   1.196 -0.4903 -3.7582  1.0953
 8978SOL     OW27618   5.662   5.375   7.135  0.2782 -0.3297  0.5409
 8978SOL    HW127619   5.596   5.323   7.182 -1.1925  0.9796  0.0175
 8978SOL    HW227620   5.688   5.442   7.198 -1.7144  1.4446 -0.3803
 8979SOL     OW27621   4.424   3.188   6.998  0.7328 -0.7272  0.2363
 8979SOL    HW127622   4.442   3.228   6.913 -2.3570 -1.4507 -0.8538
 8979SOL    HW227623   4.501   3.134   7.015  1.9603  0.3701 -1.4739
 8980SOL     OW27624   4.696   7.418   4.313 -0.1425 -0.1339  0.2154
 8980SOL    HW127625   4.774   7.405   4.367 -0.8940  1.4512  1.7773
 8980SOL    HW227626   4.630   7.449   4.374 -2.0677 -1.5353 -1.0594
 8981SOL     OW27627   2.024   1.838   5.786  0.0060 -0.6169  0.2346
 8981SOL    HW127628   1.945   1.807   5.741 -0.3099 -0.5598  0.7496
 8981SOL    HW227629   1.993   1.872   5.870  0.7313 -1.7981  1.0127
 8982SOL     OW27630   2.283   5.229   6.069  0.1082 -0.5289  1.0140
 8982SOL    HW127631   2.255   5.191   6.152  1.2917 -0.9770  1.2272
 8982SOL    HW227632   2.322   5.314   6.093 -0.6383 -0.1029  0.7672
 8983SOL     OW27633   1.278   4.746   5.977  0.5680 -0.1917  0.3033
 8983SOL    HW127634   1.232   4.753   6.061  0.2905  1.3212  0.0511
 8983SOL    HW227635   1.212   4.713   5.917  0.9926 -2.1082  0.8248
 8984SOL     OW27636   0.027   3.704   4.347 -0.7747 -0.1514 -0.6825
 8984SOL    HW127637   0.104   3.762   4.350 -1.4954  0.8084 -0.4948
 8984SOL    HW227638   0.029   3.667   4.259  0.0378 -0.3361 -0.5992
 8985SOL     OW27639   6.547   1.429   6.064  0.2541  0.3737 -0.1735
 8985SOL    HW127640   6.474   1.447   6.123  2.3959  1.5850  2.2966
 8985SOL    HW227641   6.507   1.430   5.977 -2.7981  0.0783  1.0657
 8986SOL     OW27642   7.235   1.204   2.264  0.2592  0.0593  0.2613
 8986SOL    HW127643   7.324   1.239   2.259 -0.3913  1.9956  1.3288
 8986SOL    HW227644   7.185   1.272   2.310 -1.7565 -1.0126 -0.2430
 8987SOL     OW27645   3.154   5.336   0.978  0.2846 -0.0190  0.6685
 8987SOL    HW127646   3.150   5.241   0.963 -1.6036  0.1694 -0.3395
 8987SOL    HW227647   3.083   5.353   1.040 -0.6841  0.9691 -0.6735
 8988SOL     OW27648   0.012   6.288   0.923 -0.2625 -0.6850 -0.5615
 8988SOL    HW127649  -0.075   6.260   0.949 -0.8077  0.3637 -1.1717
 8988SOL    HW227650   0.064   6.208   0.920 -0.4894 -1.0677  2.3719
 8989SOL     OW27651   7.635   7.165   6.233 -0.3412 -0.1066  0.0028
 8989SOL    HW127652   7.680   7.098   6.284 -1.6687 -1.9418 -1.1360
 8989SOL    HW227653   7.565   7.197   6.292 -1.3633 -1.6452 -0.3176
 8990SOL     OW27654   6.815   5.013   5.677  0.5858 -0.0565  0.2465
 8990SOL    HW127655   6.852   5.030   5.763 -0.3714  1.4611  0.4075
 8990SOL    HW227656   6.764   5.092   5.657  1.5292  0.0254 -2.1204
 8991SOL     OW27657   7.043   5.376   1.437  0.1385  0.0001 -0.8038
 8991SOL    HW127658   7.086   5.337   1.513  0.0897 -2.2037 -1.8284
 8991SOL    HW227659   7.023   5.302   1.380 -1.8626  1.3359 -1.9623
 8992SOL     OW27660   5.849   7.597   7.737  0.4164  0.1141 -0.2990
 8992SOL    HW127661   5.938   7.631   7.725  0.3336  0.5916  0.3773
 8992SOL    HW227662   5.858   7.528   7.802  0.1827  0.7525  0.4377
 8993SOL     OW27663   3.158   5.727   1.870 -0.1483  0.3045  0.0543
 8993SOL    HW127664   3.110   5.660   1.919  0.0092  0.6858  0.7335
 8993SOL    HW227665   3.141   5.705   1.778 -0.4665 -0.4006  0.2713
 8994SOL     OW27666   1.166   5.166   2.371 -0.4787  0.1789  0.1060
 8994SOL    HW127667   1.227   5.221   2.419 -0.4327 -0.0639  0.3340
 8994SOL    HW227668   1.133   5.104   2.437  0.7956 -1.2054 -0.4957
 8995SOL     OW27669   7.027   6.331   7.676  0.0751  0.4411 -0.0738
 8995SOL    HW127670   6.937   6.333   7.645  0.2217  0.1199 -0.5439
 8995SOL    HW227671   7.063   6.416   7.652  0.1461  0.2449 -0.6814
 8996SOL     OW27672   4.572   4.271   4.990  0.1361  0.5220 -0.0655
 8996SOL    HW127673   4.507   4.202   4.977  0.6229  0.1839 -0.7492
 8996SOL    HW227674   4.656   4.226   4.987  0.4174  0.9785  0.6473
 8997SOL     OW27675   0.826   3.394   2.710  0.1350 -0.0721 -0.6146
 8997SOL    HW127676   0.792   3.451   2.641  0.5598  1.5907  0.4687
 8997SOL    HW227677   0.902   3.351   2.670  0.1666  0.5966 -1.2952
 8998SOL     OW27678   1.327   0.028   4.680 -0.0645 -0.7552 -0.0969
 8998SOL    HW127679   1.303  -0.065   4.676 -1.8873 -0.4076  1.4011
 8998SOL    HW227680   1.348   0.043   4.772  0.9923  0.1522 -0.4772
 8999SOL     OW27681   3.054   6.820   5.464 -0.4396  0.1442 -0.0961
 8999SOL    HW127682   3.114   6.895   5.459 -0.3941  0.0896 -0.4371
 8999SOL    HW227683   3.044   6.792   5.373 -3.2243  1.8945 -0.4267
 9000SOL     OW27684   3.628   2.115   2.741 -0.2397 -0.2189  0.1539
 9000SOL    HW127685   3.685   2.077   2.674 -0.2202 -1.3954  0.7938
 9000SOL    HW227686   3.685   2.126   2.817 -0.2236  1.2502 -0.0566
 9001SOL     OW27687   6.137   3.503   0.795  0.0683  0.3346 -0.0233
 9001SOL    HW127688   6.120   3.415   0.828  1.2466  0.4693  1.0407
 9001SOL    HW227689   6.077   3.514   0.722  0.0691 -1.4402 -0.3229
 9002SOL     OW27690   3.654   2.357   1.458 -0.0138 -0.4761  0.3183
 9002SOL    HW127691   3.586   2.348   1.525  0.8946 -1.5390  1.1396
 9002SOL    HW227692   3.658   2.451   1.441 -0.0464 -0.1276  2.0129
 9003SOL     OW27693   0.521   3.786   2.622 -0.4970  0.1901  0.7122
 9003SOL    HW127694   0.463   3.784   2.546 -0.2973 -0.8594  0.5602
 9003SOL    HW227695   0.494   3.711   2.675  0.5833 -0.2125  0.7253
 9004SOL     OW27696   4.885   4.393   5.103  0.1922 -0.3267  0.5010
 9004SOL    HW127697   4.842   4.313   5.071 -0.0192 -0.0510  0.0870
 9004SOL    HW227698   4.815   4.441   5.148  0.1747 -0.0891  0.2198
 9005SOL     OW27699   4.682   4.048   0.694 -0.2729 -0.0538  0.0626
 9005SOL    HW127700   4.666   4.003   0.776  0.1415 -0.0620  0.1435
 9005SOL    HW227701   4.720   3.981   0.637 -1.1630 -0.2170 -0.3561
 9006SOL     OW27702   2.430   6.451   6.905  0.3778 -0.0792  0.1865
 9006SOL    HW127703   2.426   6.457   7.000 -0.8245 -0.0692  0.1435
 9006SOL    HW227704   2.406   6.360   6.886  2.7404 -0.7373 -0.0204
 9007SOL     OW27705   6.037   5.097   2.171 -0.2724  0.1584  0.4019
 9007SOL    HW127706   6.111   5.156   2.182  0.1854  0.0692 -1.7312
 9007SOL    HW227707   6.034   5.080   2.077 -3.2807  0.5104  0.3374
 9008SOL     OW27708   3.774   4.869   1.994  0.6954 -0.2956 -0.2142
 9008SOL    HW127709   3.846   4.918   1.955  0.0057 -0.2553 -1.4903
 9008SOL    HW227710   3.814   4.787   2.024  1.4456  0.1431  0.0134
 9009SOL     OW27711   6.550   1.009   5.242 -0.0226  0.5656  0.2191
 9009SOL    HW127712   6.556   1.105   5.237 -0.8283  0.7734  2.2524
 9009SOL    HW227713   6.462   0.989   5.210 -0.7375  0.7572  1.9944
 9010SOL     OW27714   7.016   3.239   3.013  0.1898  0.3177  0.0311
 9010SOL    HW127715   7.062   3.159   2.986 -1.1032 -0.5780  0.3387
 9010SOL    HW227716   6.925   3.224   2.985 -0.4325  0.9412  1.6083
 9011SOL     OW27717   3.992   6.978   3.020  0.2491 -0.0070  0.4803
 9011SOL    HW127718   4.066   6.918   3.030  0.0222 -0.1559  1.2942
 9011SOL    HW227719   3.921   6.938   3.069 -0.7250 -0.4207 -1.2023
 9012SOL     OW27720   0.268   5.446   7.274  0.1217 -0.1844 -0.0322
 9012SOL    HW127721   0.361   5.457   7.292  0.0765  0.3155 -0.0726
 9012SOL    HW227722   0.236   5.535   7.261 -0.2966 -0.3760 -0.3447
 9013SOL     OW27723   5.402   0.050   2.513  0.5121  0.0871  0.2575
 9013SOL    HW127724   5.450  -0.025   2.478  0.5682  0.9330 -1.5776
 9013SOL    HW227725   5.376   0.023   2.601  1.1249 -1.8102 -0.1079
 9014SOL     OW27726   4.213   4.630   0.188 -0.0711  0.2968 -0.4387
 9014SOL    HW127727   4.137   4.649   0.133 -0.8085 -1.5676 -0.1406
 9014SOL    HW227728   4.276   4.590   0.128 -0.5757 -1.0265 -0.1257
 9015SOL     OW27729   5.302   5.768   6.442 -0.4295  0.0945  0.6356
 9015SOL    HW127730   5.342   5.795   6.525 -3.4175  1.2546  1.8672
 9015SOL    HW227731   5.314   5.673   6.440  1.0569  0.2217  1.5905
 9016SOL     OW27732   1.827   2.766   1.116 -0.1979  0.1937 -0.0973
 9016SOL    HW127733   1.775   2.835   1.157  1.2888 -0.8713  4.1227
 9016SOL    HW227734   1.918   2.797   1.122  0.2921 -1.1096 -0.3522
 9017SOL     OW27735   4.694   1.036   4.109  0.4748  0.1124 -0.0122
 9017SOL    HW127736   4.610   1.003   4.140 -0.0485  0.9316 -0.5000
 9017SOL    HW227737   4.672   1.086   4.029  1.4324  0.2408 -0.2083
 9018SOL     OW27738   0.772   1.318   7.188  0.3388  0.3134  1.2019
 9018SOL    HW127739   0.798   1.269   7.267 -0.9217  1.4415  2.3570
 9018SOL    HW227740   0.773   1.252   7.119  2.0513 -0.5927  2.0142
 9019SOL     OW27741   5.036   6.795   1.015  0.0654 -0.0576 -0.4791
 9019SOL    HW127742   4.996   6.794   0.929  0.8767 -1.7324 -0.8730
 9019SOL    HW227743   5.090   6.716   1.018  0.3573  0.1538  1.4172
 9020SOL     OW27744   0.766   1.111   7.374 -0.9552 -0.5734 -0.1589
 9020SOL    HW127745   0.693   1.086   7.431 -0.8624  0.6228  0.5273
 9020SOL    HW227746   0.829   1.153   7.432 -1.2120  1.4110 -1.2069
 9021SOL     OW27747   6.995   5.341   5.160 -0.3689  0.9172  0.3310
 9021SOL    HW127748   6.956   5.257   5.137  1.3498  1.0682 -4.1781
 9021SOL    HW227749   6.927   5.406   5.141 -0.0777  0.7976 -1.2055
 9022SOL     OW27750   2.208   5.110   7.489  0.2745  0.0031  0.0086
 9022SOL    HW127751   2.207   5.033   7.545 -3.4106 -0.6325 -0.6484
 9022SOL    HW227752   2.256   5.083   7.410 -0.0392 -1.2666  0.2402
 9023SOL     OW27753   5.985   6.128   4.326  0.0416 -0.1074 -0.1301
 9023SOL    HW127754   6.032   6.179   4.392 -1.5695  3.3008 -1.3220
 9023SOL    HW227755   6.027   6.152   4.243 -1.9106  0.8257 -0.9121
 9024SOL     OW27756   4.098   1.144   0.033 -0.9601 -0.5922 -0.1511
 9024SOL    HW127757   4.109   1.063   0.082 -1.9199 -1.5834 -1.5183
 9024SOL    HW227758   4.024   1.128  -0.025  0.0384  0.5539 -1.8496
 9025SOL     OW27759   7.567   4.790   5.851 -0.1450 -0.6419 -0.1777
 9025SOL    HW127760   7.526   4.723   5.797  2.2219 -2.2853 -0.1264
 9025SOL    HW227761   7.504   4.807   5.921 -0.9806 -2.6308 -0.3656
 9026SOL     OW27762   7.224   0.829   0.130 -0.2578 -0.1670 -0.2022
 9026SOL    HW127763   7.145   0.874   0.098 -0.7142 -0.5998  0.2889
 9026SOL    HW227764   7.291   0.897   0.133 -0.0444 -0.2011 -2.5320
 9027SOL     OW27765   2.595   6.022   3.658 -0.1311  0.2334  0.5246
 9027SOL    HW127766   2.515   6.029   3.606 -0.6471  1.4365  1.4174
 9027SOL    HW227767   2.662   5.992   3.597 -1.1432 -0.2646 -0.3598
 9028SOL     OW27768   5.807   1.043   0.136 -0.2268  0.1521 -0.0441
 9028SOL    HW127769   5.822   1.127   0.093 -0.6192  0.6420  0.7517
 9028SOL    HW227770   5.892   0.999   0.133  0.0016  0.6050 -0.4023
 9029SOL     OW27771   5.989   6.449   3.232  0.2425 -0.3204  0.6997
 9029SOL    HW127772   6.063   6.403   3.191  1.1750 -0.4833  2.4740
 9029SOL    HW227773   5.974   6.402   3.314 -2.8760 -1.2647 -0.2504
 9030SOL     OW27774   2.921   3.375   0.668  0.0754 -0.3575 -0.6597
 9030SOL    HW127775   2.915   3.390   0.762  0.9856  2.1629 -0.9526
 9030SOL    HW227776   2.830   3.376   0.637 -0.1353  4.2057 -0.4682
 9031SOL     OW27777   3.548   6.903   6.234 -0.2392  0.6012  0.0325
 9031SOL    HW127778   3.570   6.810   6.243  0.1559  0.6674 -0.2627
 9031SOL    HW227779   3.518   6.912   6.143  1.4480  1.1134 -0.5029
 9032SOL     OW27780   5.555   6.114   6.607 -0.4711  0.4608 -0.5267
 9032SOL    HW127781   5.523   6.096   6.518 -1.5067 -0.6292  0.0382
 9032SOL    HW227782   5.504   6.190   6.635 -0.1121  0.8332 -0.8786
 9033SOL     OW27783   5.186   3.225   3.246  0.3387  0.1780  0.5363
 9033SOL    HW127784   5.214   3.204   3.335 -0.7402 -0.7738  0.6789
 9033SOL    HW227785   5.135   3.149   3.218  0.5473  0.5202 -0.8538
 9034SOL     OW27786   2.576   7.473   2.596 -0.4049 -0.3058  0.1514
 9034SOL    HW127787   2.585   7.566   2.618 -3.0820 -0.3594  1.8948
 9034SOL    HW227788   2.663   7.448   2.565  0.7032  2.5075  0.6415
 9035SOL     OW27789   2.324   1.607   3.971  0.0816  0.0435  0.5864
 9035SOL    HW127790   2.232   1.581   3.958  0.8030 -2.2972 -0.3534
 9035SOL    HW227791   2.350   1.561   4.051  1.2965 -2.1164 -0.9349
 9036SOL     OW27792   6.370   5.641   6.849  0.2289  0.2176 -0.5871
 9036SOL    HW127793   6.358   5.556   6.893 -1.3933 -0.1852 -1.7128
 9036SOL    HW227794   6.458   5.669   6.875  1.4012 -2.4737 -1.2829
 9037SOL     OW27795   3.980   3.906   6.449  0.6826  0.0137  0.3343
 9037SOL    HW127796   4.008   3.913   6.358  0.6217  0.5907  0.3564
 9037SOL    HW227797   3.935   3.821   6.454 -0.6815  0.6454 -0.5589
 9038SOL     OW27798   5.562   6.398   5.098  0.0953 -0.4591  0.7933
 9038SOL    HW127799   5.531   6.474   5.049  2.2022  0.4275  0.7261
 9038SOL    HW227800   5.657   6.400   5.088  0.2615 -2.6891  1.4295
 9039SOL     OW27801   5.514   5.389   1.727  0.6230  0.5313  0.0398
 9039SOL    HW127802   5.586   5.333   1.754 -1.0622 -0.7713  2.1371
 9039SOL    HW227803   5.466   5.408   1.807 -1.9986  0.3988 -1.3756
 9040SOL     OW27804   7.301   4.621   7.725 -0.7162  0.1805 -0.0502
 9040SOL    HW127805   7.370   4.659   7.671 -0.0645  1.9700  1.9130
 9040SOL    HW227806   7.324   4.529   7.734 -0.4511  0.0067 -2.1362
 9041SOL     OW27807   6.171   0.077   6.297  0.2894 -0.0425  0.1868
 9041SOL    HW127808   6.200   0.150   6.243  2.9617 -0.3985  0.9988
 9041SOL    HW227809   6.154   0.115   6.383 -1.4387  0.0924 -0.1761
 9042SOL     OW27810   6.933   3.488   2.839 -0.6841  0.4023 -0.1121
 9042SOL    HW127811   6.964   3.551   2.774 -1.4373 -0.6625 -1.5538
 9042SOL    HW227812   7.013   3.454   2.879 -0.1469  0.2670 -1.2758
 9043SOL     OW27813   1.711   2.023   7.762 -0.2658 -0.2162 -0.4148
 9043SOL    HW127814   1.790   1.969   7.758 -0.5762 -0.7766  0.7849
 9043SOL    HW227815   1.701   2.045   7.855 -2.5895 -1.7372 -0.2375
 9044SOL     OW27816   0.540   7.017   5.475  0.8193 -0.7107  0.0523
 9044SOL    HW127817   0.613   6.991   5.419  1.5132  1.4083 -0.1131
 9044SOL    HW227818   0.575   7.015   5.564  0.4537 -1.5985  0.1975
 9045SOL     OW27819   6.480   4.888   3.289 -0.2723  0.0035  0.6324
 9045SOL    HW127820   6.425   4.925   3.221  0.1915 -1.2434 -0.4616
 9045SOL    HW227821   6.420   4.835   3.343 -0.3291 -0.5551  0.0329
 9046SOL     OW27822   6.572   4.599   1.157  0.0772 -0.1287  0.4320
 9046SOL    HW127823   6.562   4.538   1.084 -1.4086  1.6915 -0.9878
 9046SOL    HW227824   6.661   4.632   1.150 -0.0279 -0.0371 -0.5470
 9047SOL     OW27825   0.076   1.866   6.644 -0.1253 -0.4760  0.1443
 9047SOL    HW127826   0.098   1.873   6.737 -0.8812 -1.4739  0.4242
 9047SOL    HW227827  -0.015   1.834   6.644 -0.2121 -0.2600 -0.9391
 9048SOL     OW27828   3.120   2.218   5.079 -0.1529  0.0259  0.3168
 9048SOL    HW127829   3.209   2.184   5.071 -0.3152 -0.4997  0.7339
 9048SOL    HW227830   3.100   2.213   5.172  0.0392  1.8323  0.5027
 9049SOL     OW27831   7.321   3.664   6.978  0.0147 -0.4547  0.2463
 9049SOL    HW127832   7.281   3.578   6.987  1.1158 -0.8207  2.2063
 9049SOL    HW227833   7.402   3.649   6.931  0.5869 -0.6308  1.2732
 9050SOL     OW27834   5.872   4.731   2.668 -0.6709 -0.6360 -0.6266
 9050SOL    HW127835   5.935   4.803   2.674 -0.7595 -0.5182 -1.0443
 9050SOL    HW227836   5.918   4.655   2.705 -0.3804 -0.4899 -0.6849
 9051SOL     OW27837   5.669   2.948   0.850 -0.1323 -0.0136  0.3535
 9051SOL    HW127838   5.620   2.979   0.774 -0.4813 -2.0829 -0.3392
 9051SOL    HW227839   5.616   2.974   0.925 -0.2741  1.2043 -0.1564
 9052SOL     OW27840   7.041   0.780   4.269 -0.8843  0.4043 -0.6453
 9052SOL    HW127841   7.038   0.688   4.297  2.1354  0.6822  0.9856
 9052SOL    HW227842   7.109   0.781   4.201 -1.6312  1.3135 -1.4025
 9053SOL     OW27843   0.209   6.984   5.859  0.1615 -0.2735  0.3294
 9053SOL    HW127844   0.211   7.070   5.900 -0.0894 -0.2450  0.2850
 9053SOL    HW227845   0.301   6.958   5.852  0.3541  0.6197 -0.9763
 9054SOL     OW27846   0.663   6.517   5.926 -0.0891  0.2476  0.1457
 9054SOL    HW127847   0.700   6.569   5.997  0.9117 -0.2389 -0.0018
 9054SOL    HW227848   0.686   6.427   5.947  1.9990  0.2409 -1.7725
 9055SOL     OW27849   6.886   4.206   3.619  0.0796 -0.2933  0.0461
 9055SOL    HW127850   6.964   4.245   3.577 -0.5672  0.9953 -0.0118
 9055SOL    HW227851   6.828   4.184   3.546  0.0444 -0.4880  0.1321
 9056SOL     OW27852   2.107   5.266   2.258 -0.2118  0.2836 -0.1384
 9056SOL    HW127853   2.124   5.195   2.320  1.2005  0.9072  0.2331
 9056SOL    HW227854   2.160   5.243   2.181  0.5015  1.0707  0.1057
 9057SOL     OW27855   6.297   1.888   5.190 -0.2650  0.1260 -0.5743
 9057SOL    HW127856   6.321   1.933   5.109 -0.2120 -0.2783 -0.7844
 9057SOL    HW227857   6.374   1.897   5.246 -0.1156 -0.0241 -0.7538
 9058SOL     OW27858   0.767   4.999   7.458  0.2214 -0.2335  0.6188
 9058SOL    HW127859   0.762   4.934   7.388  1.1677  0.2683  0.0589
 9058SOL    HW227860   0.676   5.020   7.478 -0.1018  1.1031 -1.8919
 9059SOL     OW27861   4.060   5.738   7.186 -0.5895  0.2292  0.2902
 9059SOL    HW127862   4.100   5.691   7.259 -0.4472 -0.7781 -0.4136
 9059SOL    HW227863   4.009   5.672   7.139 -1.3391  1.0326 -0.0629
 9060SOL     OW27864   4.361   1.327   6.931  0.1618 -0.3024 -0.4946
 9060SOL    HW127865   4.397   1.356   6.848 -0.6902 -0.3549 -0.8843
 9060SOL    HW227866   4.267   1.340   6.923  0.1375  0.4516  0.7591
 9061SOL     OW27867   7.220   0.353   5.906  0.2323 -0.8516  0.1289
 9061SOL    HW127868   7.287   0.367   5.973  1.4935 -1.8231 -0.8869
 9061SOL    HW227869   7.261   0.295   5.843 -1.4391 -1.1199 -0.7588
 9062SOL     OW27870   3.167   1.104   4.728 -0.7947 -0.8515  0.0695
 9062SOL    HW127871   3.152   1.144   4.814 -0.9120 -1.1685  0.2006
 9062SOL    HW227872   3.153   1.011   4.743  0.9947 -1.1479  0.1327
 9063SOL     OW27873   5.372   2.594   3.177  0.0412 -0.1112 -0.4114
 9063SOL    HW127874   5.452   2.633   3.141  0.4082 -0.6660 -0.2160
 9063SOL    HW227875   5.395   2.572   3.267 -0.6616  0.6543 -0.0293
 9064SOL     OW27876   2.513   3.563   6.824  0.0163  0.0572  0.1081
 9064SOL    HW127877   2.530   3.652   6.794 -0.9732 -0.4454 -2.0821
 9064SOL    HW227878   2.600   3.529   6.848  0.5115  1.3022  0.1366
 9065SOL     OW27879   6.611   3.745   2.662 -0.5794 -0.0312  0.5139
 9065SOL    HW127880   6.548   3.743   2.590 -1.3533  0.3901  1.1616
 9065SOL    HW227881   6.572   3.803   2.727 -0.7603 -1.7901  2.0598
 9066SOL     OW27882   2.665   6.929   6.812  0.0288  0.1330 -0.2125
 9066SOL    HW127883   2.690   6.855   6.757 -0.1670 -1.6687  1.9660
 9066SOL    HW227884   2.569   6.926   6.813  0.0307  0.1294  0.2316
 9067SOL     OW27885   4.152   6.524   1.366 -0.2845  0.2205  0.2765
 9067SOL    HW127886   4.136   6.430   1.377  2.4836 -0.1820  1.5459
 9067SOL    HW227887   4.246   6.531   1.349 -0.8470  2.5967 -2.7150
 9068SOL     OW27888   1.895   1.856   2.731  0.0691 -0.3350 -0.3474
 9068SOL    HW127889   1.978   1.835   2.774  0.3522  0.2219 -0.6160
 9068SOL    HW227890   1.906   1.945   2.698  0.5790 -1.3567 -3.2333
 9069SOL     OW27891   3.494   5.271   3.606 -0.0771 -0.3105  0.2195
 9069SOL    HW127892   3.514   5.307   3.519 -1.5817  0.4135  0.1373
 9069SOL    HW227893   3.517   5.341   3.667  0.3020 -0.5471  0.3493
 9070SOL     OW27894   3.679   3.929   6.073  0.8275  0.4104  0.2068
 9070SOL    HW127895   3.674   3.945   6.168 -0.8984  0.1892  0.1770
 9070SOL    HW227896   3.589   3.936   6.043  1.2464 -0.3615 -1.2962
 9071SOL     OW27897   4.625   2.188   5.507 -0.3087 -0.6566 -0.0038
 9071SOL    HW127898   4.628   2.132   5.429  2.7095 -1.1273  0.3484
 9071SOL    HW227899   4.666   2.136   5.575  1.5021  1.5050  0.6608
 9072SOL     OW27900   2.585   7.402   5.176 -0.5165 -0.2536 -0.0210
 9072SOL    HW127901   2.555   7.325   5.128 -1.6327 -0.0851  0.3844
 9072SOL    HW227902   2.573   7.379   5.268  2.3901 -0.9065  0.3102
 9073SOL     OW27903   6.356   5.137   3.116 -0.0467  0.0002  1.0921
 9073SOL    HW127904   6.407   5.218   3.116 -0.2262  0.2019 -1.2881
 9073SOL    HW227905   6.399   5.081   3.050 -0.7414 -1.2858  1.6834
 9074SOL     OW27906   1.922   6.367   0.249 -0.2920 -0.3454  0.3050
 9074SOL    HW127907   1.964   6.360   0.163  0.2938 -1.2529  0.6462
 9074SOL    HW227908   1.922   6.277   0.283 -0.2589  0.0433  1.3725
 9075SOL     OW27909   5.095   1.075   6.361  0.2028  0.1649 -0.5882
 9075SOL    HW127910   5.118   1.167   6.348 -0.9801  0.4919 -0.4665
 9075SOL    HW227911   5.178   1.032   6.380  0.6529  1.3748  0.2763
 9076SOL     OW27912   0.189   1.355   6.301  0.2506 -0.2253  1.0667
 9076SOL    HW127913   0.243   1.420   6.256 -0.4022 -1.1242 -1.1460
 9076SOL    HW227914   0.113   1.404   6.332 -0.3397  0.0864 -0.7670
 9077SOL     OW27915   1.029   5.233   0.769  0.0121  0.5122 -0.6842
 9077SOL    HW127916   0.945   5.280   0.770 -0.1440  0.4011  2.4138
 9077SOL    HW227917   1.017   5.163   0.705 -2.2299  0.5985 -0.4409
 9078SOL     OW27918   6.766   1.643   7.461 -0.0813 -0.1355  0.0028
 9078SOL    HW127919   6.834   1.692   7.508 -1.1944  2.3309 -0.7623
 9078SOL    HW227920   6.814   1.582   7.406  1.3223 -1.5028  2.5694
 9079SOL     OW27921   5.520   4.547   2.256 -0.1027  0.6165  0.5632
 9079SOL    HW127922   5.491   4.615   2.317  2.0835  1.8644  0.3047
 9079SOL    HW227923   5.514   4.587   2.170  2.6919  1.1711  0.5237
 9080SOL     OW27924   6.858   7.046   2.381  0.3579  0.4589 -0.4971
 9080SOL    HW127925   6.905   6.995   2.446  1.1704  0.2256 -1.2483
 9080SOL    HW227926   6.831   6.982   2.315 -3.1976  0.1179  1.0380
 9081SOL     OW27927   4.498   2.621   0.506  0.4416 -0.4076  0.2420
 9081SOL    HW127928   4.532   2.533   0.493 -1.3792 -1.3016  1.1388
 9081SOL    HW227929   4.502   2.634   0.601 -1.5264 -0.5240  0.3833
 9082SOL     OW27930   4.579   1.244   0.473  0.1421  0.3505  0.5123
 9082SOL    HW127931   4.528   1.183   0.526 -1.9106  1.5302  0.0265
 9082SOL    HW227932   4.580   1.205   0.386 -0.6047  0.6741  0.3521
 9083SOL     OW27933   7.183   1.650   1.926  0.8155 -0.6820 -0.5382
 9083SOL    HW127934   7.131   1.681   1.852  0.5245  1.9949  0.6712
 9083SOL    HW227935   7.155   1.559   1.939  1.4187 -1.5272 -4.0828
 9084SOL     OW27936   4.749   2.609   0.296  0.0302 -0.5422 -0.7708
 9084SOL    HW127937   4.696   2.531   0.315 -0.5842  0.0635  0.0484
 9084SOL    HW227938   4.768   2.647   0.382  2.4236 -1.1138 -0.9691
 9085SOL     OW27939   7.083   5.572   7.676  0.6065  0.4150 -0.0857
 9085SOL    HW127940   7.020   5.600   7.743  0.4613  0.3603 -0.1988
 9085SOL    HW227941   7.032   5.570   7.595  0.8733  0.8535 -0.2661
 9086SOL     OW27942   6.287   0.914   1.654 -0.0563  0.4321 -0.0090
 9086SOL    HW127943   6.339   0.841   1.688  1.5359  1.0708 -0.9747
 9086SOL    HW227944   6.335   0.945   1.578 -3.2257 -0.6498 -2.7220
 9087SOL     OW27945   4.175   5.679   3.609 -0.2952 -0.5528 -0.1298
 9087SOL    HW127946   4.123   5.650   3.534  0.6616 -1.7672 -0.3744
 9087SOL    HW227947   4.234   5.605   3.627 -0.4366 -0.2670  1.7730
 9088SOL     OW27948   5.321   2.364   5.983 -0.2890  0.2511  0.1937
 9088SOL    HW127949   5.340   2.374   5.890  0.0843  0.6331  0.3085
 9088SOL    HW227950   5.384   2.300   6.014  1.8876  2.5654  0.8827
 9089SOL     OW27951   6.320   1.438   5.781 -0.7893  0.9174 -0.5893
 9089SOL    HW127952   6.297   1.358   5.827  1.6391 -0.4811 -1.6240
 9089SOL    HW227953   6.240   1.462   5.734 -1.4030 -1.2757 -0.7841
 9090SOL     OW27954   2.105   0.810   2.509  0.4428 -0.0480 -0.0003
 9090SOL    HW127955   2.128   0.757   2.586  1.2294 -0.8295 -0.7482
 9090SOL    HW227956   2.116   0.750   2.435 -0.2714  0.7030 -0.7302
 9091SOL     OW27957   6.978   5.393   7.282 -0.4720 -0.2973 -0.2525
 9091SOL    HW127958   6.911   5.363   7.343 -0.8356  0.2686 -0.3668
 9091SOL    HW227959   7.026   5.314   7.258  0.9562 -0.3019  2.2518
 9092SOL     OW27960   1.052   6.823   0.853 -0.0348  0.4991  0.8319
 9092SOL    HW127961   1.056   6.730   0.872  0.4895  0.5687  1.0918
 9092SOL    HW227962   1.143   6.852   0.854  0.2084  0.3319 -2.7814
 9093SOL     OW27963   4.087   6.826   5.558  0.4719  0.5162  0.1113
 9093SOL    HW127964   4.115   6.866   5.476 -0.9188  0.2163 -0.5512
 9093SOL    HW227965   4.072   6.900   5.617  0.3897  0.8205 -0.2835
 9094SOL     OW27966   5.438   3.532   1.183 -0.0476  0.3132 -0.0773
 9094SOL    HW127967   5.396   3.452   1.151  0.6550  0.1627 -0.6463
 9094SOL    HW227968   5.395   3.550   1.267 -0.8725 -0.1268 -0.3913
 9095SOL     OW27969   1.475   7.664   3.694 -0.6339 -0.1596 -0.3190
 9095SOL    HW127970   1.428   7.733   3.647  0.6870  0.1455 -1.2742
 9095SOL    HW227971   1.516   7.612   3.625  2.7854  1.2894  0.3815
 9096SOL     OW27972   3.239   0.463   4.092 -0.1364 -0.8772 -0.3192
 9096SOL    HW127973   3.240   0.497   4.181 -0.1278 -1.7565  0.0265
 9096SOL    HW227974   3.182   0.523   4.044 -1.9118 -1.5782  0.7754
 9097SOL     OW27975   2.483   5.860   1.014 -0.3634 -0.4926 -0.4517
 9097SOL    HW127976   2.503   5.784   0.959 -0.0885 -0.3360 -0.5694
 9097SOL    HW227977   2.396   5.842   1.049  0.0094 -1.2376  0.1446
 9098SOL     OW27978   2.726   4.493   2.131 -1.0396 -0.0131 -0.1631
 9098SOL    HW127979   2.729   4.499   2.226  0.6127 -0.1152 -0.1805
 9098SOL    HW227980   2.757   4.405   2.110 -1.4872 -0.0322 -0.8106
 9099SOL     OW27981   2.650   1.658   6.620 -0.2115 -0.1064 -0.1338
 9099SOL    HW127982   2.602   1.702   6.690 -1.7180 -0.8590 -0.6503
 9099SOL    HW227983   2.681   1.729   6.563  0.3176  0.4522  0.8366
 9100SOL     OW27984   2.931   7.313   3.710 -0.5765 -0.3211 -0.4365
 9100SOL    HW127985   2.923   7.233   3.761 -0.1898  0.7397  1.3542
 9100SOL    HW227986   3.023   7.339   3.719 -0.6792  0.3105 -1.0455
 9101SOL     OW27987   4.388   5.793   6.741  0.2599  0.2529 -0.1850
 9101SOL    HW127988   4.440   5.873   6.753  1.2532 -0.5797  1.2891
 9101SOL    HW227989   4.312   5.805   6.798 -0.3677  0.7609 -1.0997
 9102SOL     OW27990   5.352   1.860   3.941 -0.4017  0.7817 -0.2852
 9102SOL    HW127991   5.270   1.828   3.978 -1.0507  2.2817 -0.3673
 9102SOL    HW227992   5.409   1.874   4.017  0.0835 -0.9605 -0.2771
 9103SOL     OW27993   4.669   4.380   2.407  0.2202  0.3353  0.2971
 9103SOL    HW127994   4.613   4.441   2.360  0.4265  1.6907  1.7169
 9103SOL    HW227995   4.753   4.383   2.362  0.0561  0.6500  0.0133
 9104SOL     OW27996   6.713   0.525   0.323 -0.3059  0.4728 -0.0143
 9104SOL    HW127997   6.779   0.462   0.352 -0.8031 -0.0736 -0.0625
 9104SOL    HW227998   6.671   0.484   0.248  0.3311  1.4843 -0.9476
 9105SOL     OW27999   6.393   0.831   6.840  0.3526  0.1898  0.3015
 9105SOL    HW128000   6.333   0.900   6.868  0.4382  0.5154 -0.3028
 9105SOL    HW228001   6.465   0.877   6.798  0.6060 -0.2438  0.2522
 9106SOL     OW28002   6.051   4.751   6.642  0.1351 -0.0680 -0.3502
 9106SOL    HW128003   6.078   4.685   6.706 -0.5613  0.6659  0.7380
 9106SOL    HW228004   6.070   4.711   6.557  2.2315 -0.5884  0.3010
 9107SOL     OW28005   4.177   0.296   2.237 -0.3978 -0.2861 -0.3407
 9107SOL    HW128006   4.185   0.359   2.308  0.6886 -0.3177 -0.4125
 9107SOL    HW228007   4.242   0.325   2.172  0.1122 -1.4664 -0.3781
 9108SOL     OW28008   3.655   6.305   0.615  0.3240  0.4780  0.1141
 9108SOL    HW128009   3.702   6.307   0.698  2.7158  0.7326 -1.1411
 9108SOL    HW228010   3.660   6.214   0.586  0.3161  0.5706 -0.1851
 9109SOL     OW28011   7.023   5.655   2.248 -0.0236  0.4343 -0.1123
 9109SOL    HW128012   6.955   5.593   2.220 -0.0416 -0.6799  2.1513
 9109SOL    HW228013   7.002   5.736   2.202 -2.0932 -0.2720 -0.5343
 9110SOL     OW28014   6.261   1.834   3.080 -0.1212  0.0224 -0.7714
 9110SOL    HW128015   6.216   1.797   3.005 -0.0514  1.2124 -1.4228
 9110SOL    HW228016   6.218   1.918   3.095 -1.4454 -0.9830  1.7403
 9111SOL     OW28017   2.533   5.030   4.035  0.2551 -0.3356 -0.2228
 9111SOL    HW128018   2.475   5.104   4.051  1.1090  0.1187  0.9550
 9111SOL    HW228019   2.621   5.068   4.032  0.5907 -1.1290 -1.0087
 9112SOL     OW28020   0.652   2.775   6.739  0.2528  0.1834 -0.2684
 9112SOL    HW128021   0.727   2.732   6.780 -1.8128 -3.4171  0.1837
 9112SOL    HW228022   0.579   2.759   6.799 -1.8655 -0.8964 -2.9296
 9113SOL     OW28023   3.309   3.367   5.207  0.1035 -0.2836  0.7309
 9113SOL    HW128024   3.346   3.455   5.201 -0.7147  0.0226 -0.0208
 9113SOL    HW228025   3.227   3.372   5.159  0.8532 -1.8941 -0.8308
 9114SOL     OW28026   5.325   0.971   6.510 -0.4676 -0.1085 -0.4051
 9114SOL    HW128027   5.361   1.026   6.579 -2.2730  0.5352  0.0740
 9114SOL    HW228028   5.400   0.951   6.454  1.3264 -1.6273  2.3188
 9115SOL     OW28029   0.027   2.738   4.325  0.0798  0.2683 -0.0919
 9115SOL    HW128030   0.016   2.684   4.402  1.0301 -0.6555 -0.5817
 9115SOL    HW228031   0.119   2.766   4.328  0.1006  0.2997 -0.8215
 9116SOL     OW28032   7.271   0.014   7.255  0.4871  0.1037  0.2274
 9116SOL    HW128033   7.176   0.017   7.256  0.4511 -0.6620  0.7470
 9116SOL    HW228034   7.294  -0.008   7.165  0.2983  2.4832 -0.4633
 9117SOL     OW28035   1.729   5.655   7.155 -0.0407 -0.8248  0.3720
 9117SOL    HW128036   1.759   5.615   7.073 -0.3125  1.0764 -0.7156
 9117SOL    HW228037   1.808   5.691   7.195 -0.1835  0.0404 -0.1066
 9118SOL     OW28038   1.540   7.545   6.258 -0.3532  0.2818  0.4177
 9118SOL    HW128039   1.459   7.526   6.305  0.4983 -1.1729  1.3816
 9118SOL    HW228040   1.537   7.639   6.241 -2.5032  0.1620 -0.0964
 9119SOL     OW28041   1.351   1.838   4.573  0.1572  0.5593 -0.3674
 9119SOL    HW128042   1.441   1.846   4.604  0.3962  0.8986 -1.1243
 9119SOL    HW228043   1.299   1.826   4.653  0.6863  1.9257  0.2118
 9120SOL     OW28044   0.087   5.311   3.576 -0.0235  0.0122 -0.3965
 9120SOL    HW128045   0.092   5.327   3.482 -1.0530  1.0626 -0.2960
 9120SOL    HW228046   0.153   5.370   3.614 -0.6363  0.6746 -0.3565
 9121SOL     OW28047   3.016   4.320   1.637 -0.5188 -0.0897  0.0317
 9121SOL    HW128048   3.103   4.352   1.613 -0.5244 -0.3370 -0.3398
 9121SOL    HW228049   3.029   4.226   1.651 -0.3896  0.1445  1.6321
 9122SOL     OW28050   5.538   7.000   0.579 -0.2219 -0.6688  0.3391
 9122SOL    HW128051   5.507   6.910   0.593  0.4241 -0.9637 -0.0752
 9122SOL    HW228052   5.467   7.044   0.533 -0.0171 -1.3526 -0.6658
 9123SOL     OW28053   5.241   6.113   5.177 -0.1983  0.3888 -0.1332
 9123SOL    HW128054   5.205   6.191   5.219 -0.2273  0.8524 -0.9984
 9123SOL    HW228055   5.183   6.096   5.103 -0.9697 -1.2473  0.8038
 9124SOL     OW28056   2.837   4.478   5.387 -0.2015  0.1048  0.6659
 9124SOL    HW128057   2.884   4.560   5.400 -0.1324 -0.0031  1.1310
 9124SOL    HW228058   2.906   4.411   5.386 -0.1729  0.1299 -0.6024
 9125SOL     OW28059   4.275   0.512   7.457  0.0221  0.1728  0.4015
 9125SOL    HW128060   4.362   0.552   7.454 -0.9096  2.3862  0.7888
 9125SOL    HW228061   4.246   0.525   7.547 -1.5313  1.4610 -0.2315
 9126SOL     OW28062   3.583   3.792   4.519 -0.0481 -0.2465  0.1580
 9126SOL    HW128063   3.602   3.886   4.522  2.3499 -0.6983  1.3684
 9126SOL    HW228064   3.489   3.787   4.533  0.0405  1.9190  2.2821
 9127SOL     OW28065   1.868   2.007   5.427  0.0935 -0.3072 -0.0063
 9127SOL    HW128066   1.943   1.963   5.465  1.1425  2.4532  1.4169
 9127SOL    HW228067   1.830   2.057   5.500 -2.3041 -0.5287 -1.0060
 9128SOL     OW28068   7.444   4.563   7.130  0.0698  0.1152  0.1235
 9128SOL    HW128069   7.421   4.650   7.162  0.8262  0.3805 -0.0305
 9128SOL    HW228070   7.435   4.506   7.206 -1.6847  0.0757 -0.0680
 9129SOL     OW28071   0.409   6.140   2.840  0.2245 -0.8856  0.2969
 9129SOL    HW128072   0.422   6.169   2.930  2.2573 -1.5747  0.2819
 9129SOL    HW228073   0.373   6.051   2.848 -0.7084 -0.5137  0.3877
 9130SOL     OW28074   2.638   7.742   7.764  0.2803 -0.1921 -0.4866
 9130SOL    HW128075   2.617   7.745   7.670  1.6440 -1.3372 -0.8528
 9130SOL    HW228076   2.714   7.799   7.773 -0.3809  0.6194  0.1019
 9131SOL     OW28077   3.959   4.508   5.902 -0.0557  0.3437  0.1416
 9131SOL    HW128078   3.946   4.569   5.830 -1.9633  0.6458  0.6809
 9131SOL    HW228079   3.983   4.563   5.977  0.3077  0.2043  0.1290
 9132SOL     OW28080   0.789   5.459   1.426  0.9640  0.9775 -0.6201
 9132SOL    HW128081   0.848   5.396   1.470  0.3891  0.6095 -0.3626
 9132SOL    HW228082   0.712   5.407   1.403  0.0772  1.7791  0.4308
 9133SOL     OW28083   2.462   1.758   1.508 -0.0374 -0.1277  0.3241
 9133SOL    HW128084   2.451   1.664   1.523  1.4200 -0.4607 -0.5503
 9133SOL    HW228085   2.389   1.782   1.451 -1.7075 -0.2261  2.2867
 9134SOL     OW28086   4.564   5.522   3.453  0.5392 -0.2170  0.4024
 9134SOL    HW128087   4.574   5.567   3.369  0.5350 -1.3301 -0.2133
 9134SOL    HW228088   4.647   5.475   3.465  0.1761 -0.8256  0.5500
 9135SOL     OW28089   3.096   2.335   0.315 -0.3299  0.1233 -0.4082
 9135SOL    HW128090   3.122   2.320   0.406 -3.1582  0.5243  0.5540
 9135SOL    HW228091   3.141   2.265   0.266  1.0536 -0.2521  1.2986
 9136SOL     OW28092   2.269   1.228   6.228 -0.2986  0.1782  0.5614
 9136SOL    HW128093   2.269   1.220   6.323  0.6353 -0.1305  0.5444
 9136SOL    HW228094   2.260   1.322   6.212 -0.5396  0.2245  0.9426
 9137SOL     OW28095   2.803   7.463   0.767 -0.8303  0.5118  0.3617
 9137SOL    HW128096   2.718   7.441   0.729 -1.1565  1.0613  0.7622
 9137SOL    HW228097   2.829   7.544   0.723  1.1461 -1.4106 -2.3352
 9138SOL     OW28098   4.817   6.975   0.034 -0.1859 -0.3355  0.0603
 9138SOL    HW128099   4.873   7.005  -0.038  0.1141  0.1016  0.4752
 9138SOL    HW228100   4.731   7.013   0.015  0.0361  0.2609  0.2458
 9139SOL     OW28101   5.485   4.584   5.134  0.0467 -0.1712  0.6514
 9139SOL    HW128102   5.436   4.663   5.112 -0.5464 -0.7729 -0.2158
 9139SOL    HW228103   5.463   4.567   5.226 -0.0272  0.5112  0.7653
 9140SOL     OW28104   5.061   2.072   4.069  0.7565  0.4915 -0.0219
 9140SOL    HW128105   4.998   2.117   4.012 -0.0194 -0.3622  0.1565
 9140SOL    HW228106   5.102   2.143   4.119 -1.0739  0.9545  0.8828
 9141SOL     OW28107   7.169   7.120   0.651 -0.2180  0.2694 -1.4173
 9141SOL    HW128108   7.226   7.068   0.594 -1.0263 -1.9167 -0.3033
 9141SOL    HW228109   7.081   7.086   0.636 -0.8582  1.6307 -0.9582
 9142SOL     OW28110   2.750   4.108   0.111 -0.1077 -0.4929 -0.5162
 9142SOL    HW128111   2.711   4.175   0.168  0.3085 -2.2848  2.0240
 9142SOL    HW228112   2.761   4.032   0.167  2.6470 -1.6264 -2.3917
 9143SOL     OW28113   0.888   6.735   2.045 -0.2833 -0.0845  0.3148
 9143SOL    HW128114   0.908   6.710   1.955 -0.0450  2.4131 -0.3969
 9143SOL    HW228115   0.970   6.722   2.093 -0.1794 -0.6282 -0.0006
 9144SOL     OW28116   1.466   0.216   4.029 -0.0392 -0.5267 -0.3109
 9144SOL    HW128117   1.542   0.186   4.079 -0.3443 -0.0695  0.4439
 9144SOL    HW228118   1.401   0.239   4.096 -0.7344 -0.6320 -0.9379
 9145SOL     OW28119   5.847   2.675   5.317  0.3506 -0.4221 -0.2069
 9145SOL    HW128120   5.780   2.701   5.254  0.4057  0.4781  0.0904
 9145SOL    HW228121   5.891   2.757   5.341  0.7357 -0.8289  0.5316
 9146SOL     OW28122   1.140   0.411   7.253  0.0078 -0.1922  0.0421
 9146SOL    HW128123   1.165   0.459   7.333 -1.0173  0.3710  0.0389
 9146SOL    HW228124   1.076   0.347   7.283  0.1661 -0.4719 -0.2186
 9147SOL     OW28125   5.931   1.685   6.906 -1.0790 -0.5031  0.8411
 9147SOL    HW128126   5.889   1.721   6.828  0.3883 -1.2363 -0.3590
 9147SOL    HW228127   6.000   1.747   6.927  1.3726 -2.3258 -1.1541
 9148SOL     OW28128   1.448   2.920   2.225  0.3955 -0.1656 -0.0002
 9148SOL    HW128129   1.352   2.915   2.226  0.4059 -0.7239 -0.7223
 9148SOL    HW228130   1.469   2.952   2.137  0.8637  0.2224  0.2483
 9149SOL     OW28131   0.042   4.880   5.830 -0.4320 -0.5277 -0.0618
 9149SOL    HW128132  -0.002   4.929   5.761  0.3757 -0.1674 -0.3346
 9149SOL    HW228133  -0.026   4.823   5.867 -1.7717  1.7444  1.1880
 9150SOL     OW28134   6.920   7.345   5.840  0.5479  0.2835 -0.2080
 9150SOL    HW128135   6.885   7.411   5.780 -0.7705  0.0236  0.2419
 9150SOL    HW228136   6.921   7.264   5.788 -0.3258  0.1203 -0.0038
 9151SOL     OW28137   5.684   6.101   1.301  0.2995 -0.2948  0.5036
 9151SOL    HW128138   5.763   6.155   1.298  0.4150 -0.5010 -0.8538
 9151SOL    HW228139   5.624   6.149   1.359  0.4560  1.2292 -0.5314
 9152SOL     OW28140   4.526   5.060   4.553 -0.0971  0.2387  0.0243
 9152SOL    HW128141   4.480   4.977   4.564  2.2610 -0.8766  2.6885
 9152SOL    HW228142   4.462   5.118   4.512 -2.2860 -2.4607 -0.6554
 9153SOL     OW28143   2.281   3.434   0.243 -1.0481  0.8937  0.3868
 9153SOL    HW128144   2.253   3.470   0.327  1.6700  1.3947  1.1974
 9153SOL    HW228145   2.256   3.501   0.179 -1.9434  1.1350  0.9791
 9154SOL     OW28146   5.754   1.286   3.489 -0.1867  0.3810  0.0909
 9154SOL    HW128147   5.841   1.327   3.493  0.1812 -0.4367  1.0978
 9154SOL    HW228148   5.693   1.359   3.485  0.5562  0.9633 -1.1702
 9155SOL     OW28149   1.448   3.814   4.463  0.5230 -0.0816  0.0367
 9155SOL    HW128150   1.453   3.721   4.488 -1.1975 -0.0182  0.7585
 9155SOL    HW228151   1.400   3.813   4.380 -0.2549  0.1989  0.4730
 9156SOL     OW28152   7.300   0.940   6.167 -0.3659  0.0253 -0.3334
 9156SOL    HW128153   7.292   0.908   6.077  1.5019 -2.0968  0.1799
 9156SOL    HW228154   7.324   0.863   6.218  3.1976  1.9444  1.2227
 9157SOL     OW28155   0.332   1.207   6.729 -0.3425 -0.7622  0.0110
 9157SOL    HW128156   0.257   1.187   6.672 -0.1065  0.0036 -0.6037
 9157SOL    HW228157   0.408   1.178   6.679 -0.1330 -0.0939 -0.0806
 9158SOL     OW28158   0.567   5.301   3.855 -0.2185 -0.1760  0.5507
 9158SOL    HW128159   0.596   5.392   3.865 -1.9911  0.4099  0.7269
 9158SOL    HW228160   0.540   5.295   3.763  0.3880 -0.6862  0.4025
 9159SOL     OW28161   7.310   5.593   1.814  0.3258  0.1108  0.1955
 9159SOL    HW128162   7.389   5.622   1.859  0.4473  0.9090 -0.5019
 9159SOL    HW228163   7.238   5.621   1.871  0.3763  2.7860 -0.8976
 9160SOL     OW28164   2.420   0.277   7.516  0.3552 -0.2722  0.3246
 9160SOL    HW128165   2.496   0.314   7.560  0.4453  0.3143 -0.2939
 9160SOL    HW228166   2.449   0.264   7.425  0.2169 -1.5604  0.4503
 9161SOL     OW28167   3.385   3.826   3.637 -0.1369 -0.4170 -0.0319
 9161SOL    HW128168   3.416   3.797   3.551  1.1471 -0.6254  0.4685
 9161SOL    HW228169   3.418   3.759   3.698  3.1159  2.0022  1.1950
 9162SOL     OW28170   4.903   7.565   4.605 -0.1388 -0.2289  0.4629
 9162SOL    HW128171   4.918   7.479   4.564 -1.0798  0.0743 -0.5622
 9162SOL    HW228172   4.815   7.590   4.576  0.5766  1.6274 -0.2575
 9163SOL     OW28173   3.503   0.517   5.775 -0.0193 -0.5129  1.0167
 9163SOL    HW128174   3.589   0.553   5.753 -0.5914  0.4758  0.3359
 9163SOL    HW228175   3.459   0.506   5.690 -1.3441  1.0063  1.4591
 9164SOL     OW28176   7.257   1.698   6.722  0.5937  0.0355 -0.0972
 9164SOL    HW128177   7.244   1.764   6.791 -0.8140 -2.9558  2.7995
 9164SOL    HW228178   7.169   1.663   6.707  1.3919 -1.6916 -0.9482
 9165SOL     OW28179   6.022   1.309   5.100  0.0494  0.0146  0.4223
 9165SOL    HW128180   6.020   1.267   5.186 -1.2992  1.0139  0.9145
 9165SOL    HW228181   6.072   1.249   5.045 -1.4463 -2.0520  1.1780
 9166SOL     OW28182   2.125   0.169   3.579  0.2635 -0.3436  0.2678
 9166SOL    HW128183   2.109   0.120   3.660 -2.3776 -0.4219 -0.2347
 9166SOL    HW228184   2.040   0.207   3.556  1.3610  1.2408 -1.4940
 9167SOL     OW28185   1.556   0.570   7.525 -0.4364 -0.7742 -0.2165
 9167SOL    HW128186   1.462   0.559   7.539 -0.2016 -1.3447  1.0138
 9167SOL    HW228187   1.587   0.617   7.602  0.0854  0.6312 -1.2542
 9168SOL     OW28188   0.474   6.617   3.172  0.0293  0.0866  0.1042
 9168SOL    HW128189   0.408   6.671   3.129 -2.4267 -3.7657 -1.5149
 9168SOL    HW228190   0.468   6.642   3.264 -0.8303  2.5449 -0.5306
 9169SOL     OW28191   1.955   0.045   1.745 -0.1141 -0.6534 -0.1462
 9169SOL    HW128192   1.901   0.119   1.773  0.1125 -0.2369 -0.7903
 9169SOL    HW228193   1.923   0.023   1.658 -0.8794 -2.0055  0.4430
 9170SOL     OW28194   4.817   5.887   3.644 -0.4545  0.1562  0.5013
 9170SOL    HW128195   4.831   5.835   3.565 -0.7237 -0.8772  1.1099
 9170SOL    HW228196   4.727   5.868   3.670 -0.0725 -0.2716  1.5743
 9171SOL     OW28197   1.678   0.085   5.786  0.1027  0.2235 -0.1509
 9171SOL    HW128198   1.738   0.067   5.858  1.5857 -1.0788 -1.6078
 9171SOL    HW228199   1.705   0.170   5.753  2.1319 -0.8838 -1.5873
 9172SOL     OW28200   6.154   4.419   7.606 -0.0791 -0.0166  0.0516
 9172SOL    HW128201   6.200   4.440   7.525  2.4737  1.2250  1.7115
 9172SOL    HW228202   6.175   4.327   7.622 -0.1039 -0.0996 -0.3786
 9173SOL     OW28203   4.020   6.559   1.891 -0.1515 -0.3622 -0.5096
 9173SOL    HW128204   4.016   6.573   1.986  0.3166 -1.7499 -0.2638
 9173SOL    HW228205   4.098   6.607   1.863  0.5099 -1.0680  0.0497
 9174SOL     OW28206   5.102   3.973   2.456  0.4499  0.2373  0.4007
 9174SOL    HW128207   5.196   3.993   2.458  0.2840  1.6362 -2.0066
 9174SOL    HW228208   5.092   3.911   2.385 -0.5030  0.4157  0.3712
 9175SOL     OW28209   2.087   3.692   1.066  0.6190 -0.1532  0.0302
 9175SOL    HW128210   2.051   3.604   1.081  1.6307 -1.3783 -3.7774
 9175SOL    HW228211   2.010   3.746   1.048  0.1655 -1.0924 -0.9745
 9176SOL     OW28212   1.215   5.604   6.646  0.3160 -0.4782  0.6213
 9176SOL    HW128213   1.261   5.574   6.724 -1.0635 -0.8879  1.3147
 9176SOL    HW228214   1.144   5.658   6.680 -1.4186 -2.1312 -0.2104
 9177SOL     OW28215   0.293   7.578   1.420 -0.2235 -0.1221 -0.0725
 9177SOL    HW128216   0.295   7.493   1.463 -1.7817 -0.2790 -0.2416
 9177SOL    HW228217   0.209   7.580   1.374 -0.4859  1.7247  0.3870
 9178SOL     OW28218   3.484   7.727   6.810  0.3485 -0.8853  0.1298
 9178SOL    HW128219   3.552   7.689   6.866  0.5358 -1.7322 -0.6591
 9178SOL    HW228220   3.428   7.776   6.870 -0.5671 -3.3106  1.3680
 9179SOL     OW28221   2.446   1.183   6.749 -0.2317 -0.2377  0.9252
 9179SOL    HW128222   2.422   1.258   6.803  0.4646 -0.1685  1.1477
 9179SOL    HW228223   2.505   1.219   6.683  0.2150 -0.6138  1.1160
 9180SOL     OW28224   1.327   1.211   7.695 -0.2992 -0.3538 -0.1566
 9180SOL    HW128225   1.305   1.148   7.626  0.4275 -0.5828 -0.1902
 9180SOL    HW228226   1.346   1.157   7.772 -0.5272 -0.1295  0.0582
 9181SOL     OW28227   6.406   1.891   3.691  0.0645  0.1431 -0.5722
 9181SOL    HW128228   6.375   1.935   3.770  3.7058  0.6338  0.7997
 9181SOL    HW228229   6.387   1.799   3.706  0.6537  0.2311  0.9019
 9182SOL     OW28230   4.532   0.304   1.357  0.4063  0.1204  0.4255
 9182SOL    HW128231   4.590   0.303   1.280  1.3326 -1.2695  1.0885
 9182SOL    HW228232   4.456   0.253   1.330  1.6275 -2.1498  1.0065
 9183SOL     OW28233   7.721   0.409   4.049  0.2708  0.1934  0.2047
 9183SOL    HW128234   7.799   0.361   4.022 -0.4010 -0.0819 -1.3810
 9183SOL    HW228235   7.663   0.342   4.085 -0.0459  0.0506 -0.5544
 9184SOL     OW28236   6.525   5.716   0.731 -0.1609 -0.1649  0.4024
 9184SOL    HW128237   6.489   5.711   0.642 -0.5642 -1.3031  0.6128
 9184SOL    HW228238   6.477   5.649   0.780  0.8880 -0.3651  1.1823
 9185SOL     OW28239   1.487   6.385   5.212  0.5579  0.0053  0.2737
 9185SOL    HW128240   1.474   6.385   5.307 -0.6484 -1.4007  0.1440
 9185SOL    HW228241   1.509   6.475   5.191  0.0654  0.5125  1.7909
 9186SOL     OW28242   0.793   1.409   6.591  0.3596 -0.0469  0.3845
 9186SOL    HW128243   0.878   1.440   6.560 -0.0290  0.4363 -0.2200
 9186SOL    HW228244   0.732   1.480   6.569 -0.5541 -1.2195 -1.0109
 9187SOL     OW28245   3.011   3.416   3.001 -0.1054  0.7359 -0.4378
 9187SOL    HW128246   3.023   3.321   2.991  0.7067  0.9214 -1.4344
 9187SOL    HW228247   2.988   3.428   3.093 -0.5626 -0.4610 -0.3815
 9188SOL     OW28248   4.197   5.895   6.229  0.3465  0.5135 -0.5367
 9188SOL    HW128249   4.268   5.893   6.293 -0.9335  0.2624  0.9293
 9188SOL    HW228250   4.158   5.982   6.238 -0.9856 -0.1505  0.3623
 9189SOL     OW28251   6.799   5.331   5.572  0.4721 -0.2614  0.1384
 9189SOL    HW128252   6.864   5.363   5.634 -1.9377 -1.0619  3.3764
 9189SOL    HW228253   6.717   5.373   5.598 -1.2421 -2.8860 -0.5786
 9190SOL     OW28254   7.370   1.617   6.498  0.3083  0.0785  0.5448
 9190SOL    HW128255   7.314   1.668   6.556  0.0946  0.4871 -0.0220
 9190SOL    HW228256   7.353   1.526   6.523 -1.1664  0.1499 -0.1113
 9191SOL     OW28257   6.542   2.231   5.285  0.4318 -0.5197  0.2143
 9191SOL    HW128258   6.488   2.164   5.328  1.1063  0.0566  2.0446
 9191SOL    HW228259   6.510   2.314   5.321  0.1160  0.1108 -1.4509
 9192SOL     OW28260   5.717   5.370   4.949  0.0898 -0.4303 -0.1641
 9192SOL    HW128261   5.745   5.347   5.038  1.1024 -0.8378 -0.5789
 9192SOL    HW228262   5.748   5.297   4.895  1.6359  0.9540 -1.2301
 9193SOL     OW28263   1.152   1.386   6.799  0.2332 -0.2437 -0.2468
 9193SOL    HW128264   1.217   1.455   6.790  0.8740 -0.7858  0.1237
 9193SOL    HW228265   1.181   1.335   6.875 -1.1433  0.0608  0.5201
 9194SOL     OW28266   1.308   6.728   7.763 -0.1439 -0.7394  0.7993
 9194SOL    HW128267   1.325   6.636   7.738 -0.6711 -0.2464 -1.7131
 9194SOL    HW228268   1.212   6.735   7.761 -0.0834  0.1083 -0.2490
 9195SOL     OW28269   5.325   6.287   0.658 -0.0583  0.3328 -0.1661
 9195SOL    HW128270   5.266   6.359   0.636 -0.0339  0.4059  0.0060
 9195SOL    HW228271   5.378   6.275   0.579 -0.9323 -0.3596 -0.6537
 9196SOL     OW28272   0.767   0.020   2.700  0.0804 -0.1332 -0.3242
 9196SOL    HW128273   0.834   0.027   2.632 -0.1182  2.4578 -0.3398
 9196SOL    HW228274   0.814   0.039   2.782 -0.0790 -1.2544  0.0428
 9197SOL     OW28275   6.516   5.054   0.532  0.1197  0.1963 -0.5602
 9197SOL    HW128276   6.535   4.961   0.545 -0.3706  0.3964  2.1460
 9197SOL    HW228277   6.594   5.088   0.487  2.0591 -0.8508  1.7544
 9198SOL     OW28278   1.487   0.150   0.621  0.9002  0.6759 -0.5932
 9198SOL    HW128279   1.551   0.090   0.583  2.1387  1.9952 -0.6914
 9198SOL    HW228280   1.436   0.095   0.681  1.9992 -0.4690 -0.6495
 9199SOL     OW28281   7.450   7.139   0.114 -0.5177 -0.7107  0.1433
 9199SOL    HW128282   7.527   7.151   0.169 -0.4288 -2.3731  0.4496
 9199SOL    HW228283   7.378   7.172   0.167  0.0911  2.5711 -0.8497
 9200SOL     OW28284   2.667   4.373   2.699 -0.0946  0.2228 -0.1777
 9200SOL    HW128285   2.748   4.336   2.665  0.2526  1.2160 -0.4758
 9200SOL    HW228286   2.597   4.320   2.661  0.2966  1.0063 -2.1155
 9201SOL     OW28287   3.173   0.150   3.426 -0.3218 -0.6555 -0.4795
 9201SOL    HW128288   3.115   0.075   3.440  1.0714 -1.6724  0.1804
 9201SOL    HW228289   3.236   0.119   3.361  0.7721 -0.3896  0.4099
 9202SOL     OW28290   7.157   5.830   4.187 -0.2280 -0.0024 -0.4768
 9202SOL    HW128291   7.161   5.851   4.280  0.8337 -3.7276  0.4998
 9202SOL    HW228292   7.240   5.784   4.169 -1.5176 -1.7415 -2.5157
 9203SOL     OW28293   4.232   6.838   2.580  0.1595 -0.9094  0.4384
 9203SOL    HW128294   4.156   6.886   2.547  1.0318  1.0685  1.1895
 9203SOL    HW228295   4.207   6.746   2.570 -0.8818 -0.4101 -2.6989
 9204SOL     OW28296   6.299   1.494   3.033  0.4896  0.3665  0.4376
 9204SOL    HW128297   6.379   1.526   2.993  0.1318 -0.1253 -0.7108
 9204SOL    HW228298   6.229   1.546   2.993  0.1652  0.2569  0.8470
 9205SOL     OW28299   4.133   4.944   4.508 -0.0278  0.7065  0.1590
 9205SOL    HW128300   4.161   4.910   4.592  0.3543  0.8500  0.0932
 9205SOL    HW228301   4.042   4.917   4.500 -0.0685  0.6947  0.6191
 9206SOL     OW28302   1.414   3.768   5.546 -0.3951 -0.1750 -0.2287
 9206SOL    HW128303   1.397   3.820   5.468  1.9306 -0.5735 -1.0706
 9206SOL    HW228304   1.509   3.764   5.552 -0.4849 -0.1107  2.6858
 9207SOL     OW28305   0.749   1.553   4.101  0.2831  0.3151  0.1818
 9207SOL    HW128306   0.801   1.618   4.053 -0.0203  0.3519 -0.0945
 9207SOL    HW228307   0.711   1.498   4.033 -0.7192  0.7943  0.3435
 9208SOL     OW28308   4.511   7.470   6.470 -0.0129  0.1026 -0.0797
 9208SOL    HW128309   4.534   7.445   6.560 -2.0509  1.9501  1.0390
 9208SOL    HW228310   4.537   7.394   6.417  4.7853  0.3647  1.4106
 9209SOL     OW28311   5.943   0.602   5.512 -0.3389 -0.7194  0.0806
 9209SOL    HW128312   6.027   0.570   5.477 -0.4670  0.1785 -1.1183
 9209SOL    HW228313   5.959   0.614   5.605  1.2157  0.4708 -0.3071
 9210SOL     OW28314   1.145   1.470   7.370  0.2443 -0.6525 -0.2032
 9210SOL    HW128315   1.073   1.505   7.317  1.0044  0.6121 -0.4374
 9210SOL    HW228316   1.224   1.489   7.319  0.9832  0.4719  1.2792
 9211SOL     OW28317   3.636   3.547   6.256  0.4752 -0.1886 -0.8634
 9211SOL    HW128318   3.686   3.595   6.190  0.3757  0.0101 -0.7965
 9211SOL    HW228319   3.702   3.507   6.312  0.6429  2.3391  0.9051
 9212SOL     OW28320   1.568   4.201   0.027 -0.4502  0.4261 -0.0738
 9212SOL    HW128321   1.577   4.280  -0.025  0.8085  0.6295  0.4230
 9212SOL    HW228322   1.638   4.206   0.092 -1.5468 -0.1496  1.2171
 9213SOL     OW28323   3.234   3.292   2.296  0.3006  0.1045 -0.6357
 9213SOL    HW128324   3.254   3.386   2.291 -1.7107  0.6545  0.2890
 9213SOL    HW228325   3.233   3.274   2.390  0.8976 -0.9186 -0.8187
 9214SOL     OW28326   1.143   2.812   6.194 -0.0893  0.2222 -0.2829
 9214SOL    HW128327   1.198   2.884   6.223 -0.1324  0.5788 -1.0571
 9214SOL    HW228328   1.187   2.778   6.116 -0.2055 -0.4272 -0.0779
 9215SOL     OW28329   6.405   7.506   7.127 -0.0820  0.1581  0.2422
 9215SOL    HW128330   6.363   7.451   7.193  0.6927 -1.8983 -0.8953
 9215SOL    HW228331   6.428   7.446   7.056 -1.6561  2.3865 -2.3747
 9216SOL     OW28332   4.640   7.120   5.111  0.4378 -0.2207  0.3556
 9216SOL    HW128333   4.648   7.215   5.103 -1.6718 -0.1594 -3.3980
 9216SOL    HW228334   4.716   7.086   5.063  0.9473 -0.4869  1.3160
 9217SOL     OW28335   1.107   3.625   3.645  0.4942  0.3900  0.0710
 9217SOL    HW128336   1.181   3.617   3.585  0.9115 -1.1473  0.7590
 9217SOL    HW228337   1.030   3.617   3.589  0.8683 -2.2171 -0.1838
 9218SOL     OW28338   7.151   4.919   1.115  0.3590  0.7056 -0.0130
 9218SOL    HW128339   7.229   4.871   1.143  0.7561  1.5611  0.3848
 9218SOL    HW228340   7.123   4.874   1.035  0.3996 -0.5132  0.6388
 9219SOL     OW28341   7.431   1.276   4.678 -0.9075  0.4054  0.2545
 9219SOL    HW128342   7.487   1.232   4.742 -0.2480  0.3578 -0.3370
 9219SOL    HW228343   7.458   1.239   4.594 -1.4806  0.7610 -0.0913
 9220SOL     OW28344   6.182   3.259   0.163 -0.2483 -0.0183 -0.2016
 9220SOL    HW128345   6.254   3.207   0.198  1.1752  2.5841  1.0728
 9220SOL    HW228346   6.106   3.233   0.215  0.8131  0.3953  1.6568
 9221SOL     OW28347   3.251   4.399   1.527 -0.4116  0.5483 -0.1453
 9221SOL    HW128348   3.278   4.473   1.473 -0.7491  1.0817  0.4094
 9221SOL    HW228349   3.248   4.325   1.466  2.2714  0.4291 -0.2857
 9222SOL     OW28350   3.163   5.528   3.631 -0.1545 -0.4503 -0.3859
 9222SOL    HW128351   3.184   5.439   3.604 -0.7357 -0.6666 -0.1366
 9222SOL    HW228352   3.068   5.529   3.639 -0.5415  1.0693 -3.5791
 9223SOL     OW28353   4.099   2.714   1.057 -0.4707 -0.3908 -0.2885
 9223SOL    HW128354   4.137   2.787   1.105  0.3284 -1.2285  0.3903
 9223SOL    HW228355   4.014   2.747   1.026 -0.7647  0.3513  1.2107
 9224SOL     OW28356   5.408   0.603   7.063  0.4622  0.0777 -0.6679
 9224SOL    HW128357   5.376   0.513   7.057 -0.9182  0.5637 -1.0181
 9224SOL    HW228358   5.503   0.595   7.070  0.5120 -1.3408 -2.4699
 9225SOL     OW28359   7.682   3.541   0.678  0.8257  0.1998  0.1594
 9225SOL    HW128360   7.738   3.619   0.673  3.5226 -1.6811 -4.0080
 9225SOL    HW228361   7.731   3.479   0.731  0.5358  0.0088  0.2053
 9226SOL     OW28362   2.343   7.266   5.550  0.6397  0.4756 -0.4971
 9226SOL    HW128363   2.422   7.299   5.507  1.8423 -0.6978  0.7503
 9226SOL    HW228364   2.319   7.188   5.499  0.7115  0.4104 -0.4304
 9227SOL     OW28365   0.337   3.056   0.601 -0.2476 -0.7437  0.3130
 9227SOL    HW128366   0.354   3.140   0.646 -0.7556 -0.8245  0.6602
 9227SOL    HW228367   0.285   3.006   0.664  1.4486 -1.9889  0.8174
 9228SOL     OW28368   5.862   5.844   4.988 -0.5863  0.1763  0.1069
 9228SOL    HW128369   5.774   5.807   4.998 -0.0431 -0.8474  1.2504
 9228SOL    HW228370   5.921   5.777   5.023  0.8717 -0.1494 -2.7106
 9229SOL     OW28371   4.001   0.715   5.459 -0.1475 -0.3269  0.1463
 9229SOL    HW128372   3.915   0.710   5.500 -0.9296 -0.7888 -1.4501
 9229SOL    HW228373   4.030   0.805   5.474 -1.8686  0.4712 -1.0574
 9230SOL     OW28374   1.678   0.348   1.311 -0.1448  0.9747 -0.4594
 9230SOL    HW128375   1.693   0.289   1.237 -0.0998  0.9962 -0.4674
 9230SOL    HW228376   1.687   0.436   1.274  0.9501  0.9786 -0.2060
 9231SOL     OW28377   1.960   7.082   4.627 -0.0557 -0.4262 -0.1592
 9231SOL    HW128378   1.929   7.130   4.704  1.0980 -0.4047  0.3253
 9231SOL    HW228379   2.018   7.144   4.582 -0.8978 -0.3587 -1.1933
 9232SOL     OW28380   5.016   6.899   2.319  0.1445  0.3007 -0.0937
 9232SOL    HW128381   5.092   6.847   2.295  0.0505 -1.5959  3.1376
 9232SOL    HW228382   4.943   6.859   2.271  1.0088  2.3176 -3.4441
 9233SOL     OW28383   2.783   2.164   1.946  0.2937  0.2024  0.0565
 9233SOL    HW128384   2.718   2.103   1.911  1.1923  0.1136 -1.5265
 9233SOL    HW228385   2.835   2.111   2.007 -0.3839 -0.0172  0.4499
 9234SOL     OW28386   3.923   4.464   6.965 -0.5052  0.4114  0.7642
 9234SOL    HW128387   3.907   4.551   6.928  1.3074  1.0014  1.2403
 9234SOL    HW228388   3.919   4.405   6.891  0.3809  1.2188  0.0374
 9235SOL     OW28389   6.001   0.136   1.668 -0.0969 -0.8248  0.8245
 9235SOL    HW128390   6.007   0.042   1.686  0.1049 -1.0029 -0.1340
 9235SOL    HW228391   6.065   0.152   1.599 -0.9752 -0.1946  0.1315
 9236SOL     OW28392   6.779   4.656   0.337  0.3343  0.2273  0.3770
 9236SOL    HW128393   6.764   4.575   0.386  3.2055 -0.3318  0.5043
 9236SOL    HW228394   6.756   4.634   0.247  0.0430 -0.3709  0.5891
 9237SOL     OW28395   7.535   1.646   0.909  0.4287  0.0498  0.0948
 9237SOL    HW128396   7.498   1.583   0.847 -0.3621 -0.3035  0.9094
 9237SOL    HW228397   7.492   1.626   0.992 -0.5644  2.3237  0.1763
 9238SOL     OW28398   2.167   1.250   0.647  0.6233  0.3106  0.6989
 9238SOL    HW128399   2.151   1.271   0.739  1.2953 -0.4685  1.0081
 9238SOL    HW228400   2.084   1.270   0.603  0.3363  0.8208  1.4441
 9239SOL     OW28401   0.081   7.736   3.002  0.2032 -0.3526  0.1920
 9239SOL    HW128402   0.057   7.694   2.919  0.1081 -0.9609  0.5248
 9239SOL    HW228403   0.161   7.690   3.029  0.4681  0.1246  0.2359
 9240SOL     OW28404   6.605   7.073   0.671 -0.6200 -0.2013 -0.2502
 9240SOL    HW128405   6.658   7.081   0.592  1.4302  1.9083  1.2110
 9240SOL    HW228406   6.540   7.143   0.663  1.0184  1.5366  0.8563
 9241SOL     OW28407   0.836   6.709   6.469  0.5117 -0.1083 -0.1795
 9241SOL    HW128408   0.825   6.623   6.427 -0.6759  0.9828 -2.2498
 9241SOL    HW228409   0.915   6.745   6.429  0.9733 -0.1686  0.6458
 9242SOL     OW28410   7.503   0.539   3.404  0.2769 -0.2007 -0.4711
 9242SOL    HW128411   7.597   0.550   3.417  0.2940 -0.6135 -0.1967
 9242SOL    HW228412   7.477   0.476   3.472 -0.3060  0.3612 -0.1632
 9243SOL     OW28413   5.650   4.790   6.077 -0.3719 -0.0205 -0.1209
 9243SOL    HW128414   5.585   4.853   6.109 -1.1704 -1.2221  0.6902
 9243SOL    HW228415   5.731   4.815   6.121 -0.8820 -0.0822  0.8668
 9244SOL     OW28416   2.693   4.248   5.920  0.4353 -0.4957  1.3810
 9244SOL    HW128417   2.742   4.247   5.837 -0.5796 -0.1858  0.7593
 9244SOL    HW228418   2.722   4.169   5.966 -0.0374 -1.4526  0.0946
 9245SOL     OW28419   6.114   1.150   4.873  0.5883  0.1637  0.2266
 9245SOL    HW128420   6.204   1.124   4.893  0.2708 -0.4165  0.9744
 9245SOL    HW228421   6.070   1.068   4.853  0.3849  0.5206 -0.8320
 9246SOL     OW28422   6.141   5.612   5.487  0.7524  0.5687  0.1524
 9246SOL    HW128423   6.075   5.615   5.556  0.1372  0.5259 -0.4244
 9246SOL    HW228424   6.125   5.529   5.441 -1.0201  2.0420 -2.1189
 9247SOL     OW28425   0.236   7.369   1.613  0.2669 -0.1810 -0.6757
 9247SOL    HW128426   0.215   7.304   1.680 -1.7729  0.5198 -0.5842
 9247SOL    HW228427   0.331   7.360   1.600  0.6298 -0.7276  1.8622
 9248SOL     OW28428   6.669   7.032   4.406  0.4412  0.3361 -0.0786
 9248SOL    HW128429   6.621   6.961   4.449 -0.2384  0.9349  0.1830
 9248SOL    HW228430   6.600   7.092   4.376  0.9295  0.1176 -1.6760
 9249SOL     OW28431   4.714   4.979   7.580  0.4629  0.7728 -0.7120
 9249SOL    HW128432   4.621   5.003   7.579  0.2368  0.1174  1.0816
 9249SOL    HW228433   4.720   4.905   7.519 -1.1898 -2.2020  2.3282
 9250SOL     OW28434   6.162   6.289   3.103 -0.9219  0.0839 -0.5221
 9250SOL    HW128435   6.253   6.260   3.098 -0.6750  0.9125 -1.0999
 9250SOL    HW228436   6.113   6.210   3.129  0.2023  0.1418  2.0862
 9251SOL     OW28437   4.410   5.912   2.322  0.6727 -0.4364 -0.3611
 9251SOL    HW128438   4.408   5.817   2.311  0.8240 -0.4743 -0.0790
 9251SOL    HW228439   4.472   5.926   2.394 -0.2774 -0.2047  0.4249
 9252SOL     OW28440   1.833   5.341   7.121 -0.0360 -0.2735 -0.6742
 9252SOL    HW128441   1.901   5.280   7.092  1.0054  0.3929  0.2789
 9252SOL    HW228442   1.842   5.417   7.063  1.4928  0.7063  0.7371
 9253SOL     OW28443   1.920   6.612   2.478 -0.0060 -0.0132 -0.2007
 9253SOL    HW128444   1.962   6.667   2.544 -2.4479  0.1240  1.4006
 9253SOL    HW228445   1.918   6.667   2.399 -1.3643  1.8615  1.0345
 9254SOL     OW28446   4.552   2.303   4.298 -0.0727  0.0099  0.1935
 9254SOL    HW128447   4.485   2.250   4.255  0.0828  0.1494 -0.2372
 9254SOL    HW228448   4.634   2.255   4.280  0.1941  0.8796 -1.0318
 9255SOL     OW28449   4.876   4.599   5.893  0.1678 -0.1835  0.1161
 9255SOL    HW128450   4.830   4.675   5.857 -0.7391 -0.7106  0.1316
 9255SOL    HW228451   4.815   4.562   5.957 -0.8139 -2.7465 -2.0872
 9256SOL     OW28452   2.824   2.126   5.499 -0.3549  0.1078 -0.6873
 9256SOL    HW128453   2.840   2.033   5.489 -1.6610 -0.0844 -1.1033
 9256SOL    HW228454   2.747   2.144   5.445 -0.4435  1.3208 -0.1957
 9257SOL     OW28455   0.178   4.583   0.990 -0.8031  0.1692 -0.1848
 9257SOL    HW128456   0.110   4.525   1.023  0.0869  0.0074  1.5006
 9257SOL    HW228457   0.150   4.671   1.018  0.1377 -0.0085  1.4475
 9258SOL     OW28458   0.507   5.390   4.221 -0.0795 -0.5805  0.3107
 9258SOL    HW128459   0.470   5.352   4.141  1.4399 -0.2129 -0.5974
 9258SOL    HW228460   0.543   5.316   4.269 -0.9366 -0.7924  0.6500
 9259SOL     OW28461   2.163   1.105   4.315  0.0986 -0.3744  0.1173
 9259SOL    HW128462   2.136   1.151   4.395  1.3670 -0.9593  0.9154
 9259SOL    HW228463   2.196   1.174   4.258 -0.9986  0.0724 -0.0039
 9260SOL     OW28464   6.191   4.595   4.454  0.9016  0.3105  0.4650
 9260SOL    HW128465   6.249   4.662   4.489  1.5202  0.0236  0.0219
 9260SOL    HW228466   6.152   4.635   4.377  0.7872  0.3826  0.5610
 9261SOL     OW28467   7.020   1.200   4.056  0.4513 -0.2186  0.2980
 9261SOL    HW128468   6.930   1.231   4.066  0.2036 -0.3843 -1.2198
 9261SOL    HW228469   7.069   1.246   4.125 -0.8015 -0.2091  1.2034
 9262SOL     OW28470   6.376   5.223   4.337 -0.0561  0.4664  0.1879
 9262SOL    HW128471   6.381   5.317   4.352  0.1714  0.2644  1.4767
 9262SOL    HW228472   6.456   5.203   4.287 -0.1209  0.9456 -0.1167
 9263SOL     OW28473   5.197   4.757   0.086 -0.2367 -0.4347 -0.8421
 9263SOL    HW128474   5.154   4.698   0.148 -0.1675 -0.6263 -0.9775
 9263SOL    HW228475   5.130   4.775   0.019 -0.0225 -0.9477 -1.1986
 9264SOL     OW28476   7.163   6.501   1.722 -0.1080  0.0094 -0.3789
 9264SOL    HW128477   7.174   6.556   1.645 -0.8556 -0.0993 -0.5651
 9264SOL    HW228478   7.069   6.496   1.736  0.0368  1.5258  1.6256
 9265SOL     OW28479   5.122   5.876   2.135 -0.3486 -0.2120  0.7361
 9265SOL    HW128480   5.177   5.927   2.076 -0.2273  1.4941  2.2331
 9265SOL    HW228481   5.171   5.794   2.149  0.6569  0.2752  0.1776
 9266SOL     OW28482   2.569   2.690   3.247 -0.2115  0.0690  0.0231
 9266SOL    HW128483   2.532   2.733   3.324 -0.5089 -1.8010  0.9615
 9266SOL    HW228484   2.662   2.679   3.269  0.2822  1.7831 -0.9752
 9267SOL     OW28485   0.378   7.774   3.867 -0.1651 -0.2604  0.1802
 9267SOL    HW128486   0.422   7.739   3.944 -2.2619 -2.2764  0.5747
 9267SOL    HW228487   0.314   7.835   3.902 -0.4228 -0.4009 -0.0392
 9268SOL     OW28488   6.256   6.267   5.699  0.2876  0.5422  0.1790
 9268SOL    HW128489   6.239   6.185   5.746 -0.0160 -0.2047 -1.1992
 9268SOL    HW228490   6.350   6.279   5.707  0.8888 -1.6477 -2.2300
 9269SOL     OW28491   4.924   3.376   6.372  0.3944 -0.7869 -0.3892
 9269SOL    HW128492   5.018   3.370   6.385  0.3295 -1.5195 -0.2551
 9269SOL    HW228493   4.907   3.470   6.366  0.7989 -0.4905  2.1166
 9270SOL     OW28494   3.206   6.006   7.319  0.1324 -0.0761  0.0948
 9270SOL    HW128495   3.168   5.942   7.379 -0.9372 -0.2816 -0.7821
 9270SOL    HW228496   3.131   6.047   7.276  0.8435  0.8921 -0.2636
 9271SOL     OW28497   5.727   5.228   1.777  0.1371  0.0329  0.3188
 9271SOL    HW128498   5.719   5.152   1.835  2.9580  0.3906  1.3433
 9271SOL    HW228499   5.748   5.190   1.691  0.3872 -0.4121  0.5704
 9272SOL     OW28500   7.148   3.912   0.776  0.3904  0.0716 -0.2796
 9272SOL    HW128501   7.140   3.858   0.855  1.3003  0.7122  0.2732
 9272SOL    HW228502   7.074   3.885   0.721  1.0207 -1.9883 -0.2012
 9273SOL     OW28503   2.430   6.238   7.318 -0.1289 -0.0327 -0.1271
 9273SOL    HW128504   2.473   6.195   7.245 -0.3516  0.9138 -0.8365
 9273SOL    HW228505   2.429   6.330   7.294  0.1207  0.3418  1.2461
 9274SOL     OW28506   3.297   3.893   2.983 -0.3461  0.2002  0.2479
 9274SOL    HW128507   3.240   3.816   2.986 -0.5315  0.1948 -1.6894
 9274SOL    HW228508   3.247   3.962   3.026 -0.8894 -0.3487  0.5061
 9275SOL     OW28509   7.593   3.763   7.671  0.3865 -0.3258 -0.3172
 9275SOL    HW128510   7.592   3.774   7.576 -2.5060 -0.5484 -0.3941
 9275SOL    HW228511   7.504   3.785   7.698  1.3055  0.3390  2.4372
 9276SOL     OW28512   4.593   2.923   2.987  0.0798 -0.5790  0.1128
 9276SOL    HW128513   4.669   2.939   2.931 -0.3828  0.1517 -0.3298
 9276SOL    HW228514   4.524   2.897   2.927 -0.3177 -0.1592  0.3762
 9277SOL     OW28515   7.666   4.072   1.905 -0.1369  0.0140  0.2889
 9277SOL    HW128516   7.663   4.032   1.818 -0.7252  1.8226 -0.5792
 9277SOL    HW228517   7.614   4.152   1.897  0.7540  0.8361  1.9817
 9278SOL     OW28518   1.814   1.416   2.560 -0.2667 -0.5955  0.3052
 9278SOL    HW128519   1.833   1.510   2.564 -0.2654 -0.5370 -0.6616
 9278SOL    HW228520   1.898   1.374   2.577 -0.0892 -0.3956 -0.0506
 9279SOL     OW28521   1.333   0.696   1.451 -0.0405 -0.1444  0.2174
 9279SOL    HW128522   1.351   0.612   1.407 -0.2252  1.1587 -2.5993
 9279SOL    HW228523   1.390   0.696   1.527  0.2461 -2.6544  0.1026
 9280SOL     OW28524   7.242   5.051   4.861 -0.7157 -0.1175 -0.3632
 9280SOL    HW128525   7.232   5.139   4.899  0.2067  0.0810 -0.5625
 9280SOL    HW228526   7.219   4.992   4.933  0.2932  0.2625  0.2963
 9281SOL     OW28527   3.576   3.897   2.969 -0.0914  0.2336 -0.0877
 9281SOL    HW128528   3.483   3.910   2.953  0.1530 -0.0645 -2.0440
 9281SOL    HW228529   3.583   3.884   3.064 -1.6696  2.9533  0.5074
 9282SOL     OW28530   2.326   5.797   7.343 -0.1425 -0.1582  0.1142
 9282SOL    HW128531   2.255   5.858   7.322 -0.9199 -1.0077  0.2159
 9282SOL    HW228532   2.406   5.850   7.334 -0.8396  1.1875  1.2863
 9283SOL     OW28533   1.440   6.545   3.661  0.4406  0.1556  0.4541
 9283SOL    HW128534   1.439   6.591   3.745  1.3628  1.9200 -0.4339
 9283SOL    HW228535   1.367   6.583   3.612 -0.5964 -1.4385  0.7168
 9284SOL     OW28536   4.656   3.648   1.770 -0.5249  0.2341  0.3630
 9284SOL    HW128537   4.576   3.630   1.720 -0.4067  0.9409 -0.1031
 9284SOL    HW228538   4.643   3.736   1.806  0.6271  0.9978 -0.9518
 9285SOL     OW28539   4.763   3.044   2.224 -0.2482  0.4791  0.3775
 9285SOL    HW128540   4.814   2.964   2.221 -0.1473  0.4782  1.6462
 9285SOL    HW228541   4.734   3.058   2.133  1.1206 -0.0730 -0.1698
 9286SOL     OW28542   6.269   4.558   0.129 -0.6539  0.3245  0.1433
 9286SOL    HW128543   6.251   4.511   0.048  1.0871  0.6949 -0.5014
 9286SOL    HW228544   6.191   4.611   0.144 -1.1380 -0.0035 -1.1097
 9287SOL     OW28545   2.181   4.371   3.138  0.4209 -0.2955 -0.1976
 9287SOL    HW128546   2.274   4.393   3.138  0.7970 -1.7458  0.5594
 9287SOL    HW228547   2.161   4.348   3.047  0.8380 -0.1241 -0.3314
 9288SOL     OW28548   7.444   2.316   5.647  0.3062 -0.0166  0.8183
 9288SOL    HW128549   7.395   2.241   5.614 -0.2466  1.0694 -0.9520
 9288SOL    HW228550   7.532   2.281   5.665  0.9376 -0.5824 -2.6716
 9289SOL     OW28551   2.462   7.777   5.896 -0.0798  0.0913  0.1624
 9289SOL    HW128552   2.483   7.690   5.864 -1.3782 -0.4567  0.7025
 9289SOL    HW228553   2.546   7.817   5.917  0.4823 -1.4013  0.8533
 9290SOL     OW28554   1.958   0.757   3.640  0.0758  0.6139  0.0689
 9290SOL    HW128555   1.911   0.816   3.699 -0.1551 -0.5301  1.0833
 9290SOL    HW228556   1.925   0.779   3.553 -1.8593  0.3372  0.6665
 9291SOL     OW28557   0.486   6.315   0.012 -0.2851 -0.0693  0.7222
 9291SOL    HW128558   0.461   6.358   0.094  0.2865  2.3894 -0.3063
 9291SOL    HW228559   0.554   6.372  -0.025  1.0089 -2.2680 -0.4455
 9292SOL     OW28560   0.051   1.910   1.699  0.2271  0.6340  0.4651
 9292SOL    HW128561   0.066   1.889   1.791  0.1079 -1.1393  0.1184
 9292SOL    HW228562  -0.043   1.928   1.694  0.4981  2.3125  0.9471
 9293SOL     OW28563   1.260   1.408   2.266  0.0500  0.5836  0.4711
 9293SOL    HW128564   1.289   1.322   2.236 -1.6186 -0.6277  2.0927
 9293SOL    HW228565   1.327   1.468   2.233  0.0776 -0.9550 -2.7402
 9294SOL     OW28566   2.140   1.770   2.446 -0.2227  0.4205 -0.2104
 9294SOL    HW128567   2.129   1.715   2.368  0.1637  0.0405 -0.0076
 9294SOL    HW228568   2.210   1.831   2.422  0.5935 -0.3373  0.1623
 9295SOL     OW28569   4.610   0.157   5.176  0.2689  0.1227  0.5215
 9295SOL    HW128570   4.686   0.198   5.137  0.2487 -1.0117 -0.7691
 9295SOL    HW228571   4.535   0.202   5.137  0.2259 -1.5357 -1.4988
 9296SOL     OW28572   6.805   5.435   5.918  0.1477  0.1889 -0.0975
 9296SOL    HW128573   6.772   5.523   5.935  1.5707  0.9546 -1.1021
 9296SOL    HW228574   6.870   5.447   5.849 -0.3046 -1.7972 -0.9126
 9297SOL     OW28575   7.536   7.691   3.909 -0.2458 -0.1377  0.4268
 9297SOL    HW128576   7.589   7.660   3.983 -0.7776 -0.8294  0.5301
 9297SOL    HW228577   7.472   7.621   3.895 -2.1749  1.3349  1.3473
 9298SOL     OW28578   3.175   7.073   7.016 -0.1878 -0.4443 -0.1120
 9298SOL    HW128579   3.129   6.989   7.013 -0.2404 -0.3871 -1.1537
 9298SOL    HW228580   3.262   7.055   6.980 -0.1670 -0.0717 -0.2546
 9299SOL     OW28581   5.342   5.817   4.414 -0.4692  0.3856 -0.3451
 9299SOL    HW128582   5.278   5.887   4.427 -1.0205 -0.1284 -0.2736
 9299SOL    HW228583   5.319   5.751   4.480 -1.0649 -0.6520 -1.5652
 9300SOL     OW28584   3.456   7.405   4.558  0.5044  0.3978 -0.1501
 9300SOL    HW128585   3.535   7.400   4.612  0.8473 -0.7931 -0.7245
 9300SOL    HW228586   3.433   7.498   4.557  0.8209  0.5264  1.5581
 9301SOL     OW28587   5.924   1.096   4.195  0.1586  0.8871 -0.3150
 9301SOL    HW128588   5.848   1.144   4.228 -1.1463 -1.1489 -0.1810
 9301SOL    HW228589   5.908   1.086   4.101 -1.0960 -1.6894  0.0863
 9302SOL     OW28590   3.186   2.231   5.668 -0.4035  0.1276 -0.0587
 9302SOL    HW128591   3.177   2.306   5.726  0.3634 -0.3038  0.6552
 9302SOL    HW228592   3.099   2.217   5.632 -0.3553  1.9646 -1.0047
 9303SOL     OW28593   3.186   4.724   2.196  0.5596  0.2390 -0.1475
 9303SOL    HW128594   3.207   4.677   2.115 -0.0831  0.8903 -0.7018
 9303SOL    HW228595   3.102   4.686   2.225 -1.0629  2.3887 -1.7177
 9304SOL     OW28596   2.995   4.471   2.978  0.1075  0.8586 -0.1455
 9304SOL    HW128597   2.993   4.523   2.897 -0.6076  0.1364 -0.6050
 9304SOL    HW228598   3.022   4.533   3.046  1.4394  1.3062 -1.0524
 9305SOL     OW28599   5.642   7.527   5.508 -0.3742  0.0675 -0.3744
 9305SOL    HW128600   5.611   7.456   5.452 -0.1075 -1.1838  1.0113
 9305SOL    HW228601   5.735   7.510   5.520 -0.1340  1.1104 -0.6423
 9306SOL     OW28602   3.608   5.696   0.338  0.2619  0.3210  0.3782
 9306SOL    HW128603   3.626   5.760   0.407  0.5198  1.9486 -1.1357
 9306SOL    HW228604   3.519   5.667   0.356  0.0656  1.2403  1.0100
 9307SOL     OW28605   0.966   2.998   7.283  0.0664  0.3802 -0.1554
 9307SOL    HW128606   1.058   3.022   7.296  0.6350 -0.8668 -1.5865
 9307SOL    HW228607   0.963   2.964   7.194 -1.4555 -1.2230  0.4652
 9308SOL     OW28608   0.382   3.694   2.153  0.2716  0.3756  0.8154
 9308SOL    HW128609   0.360   3.602   2.164 -1.1908  0.6679  0.4792
 9308SOL    HW228610   0.417   3.700   2.064 -0.5921  0.3031  0.4612
 9309SOL     OW28611   6.060   3.494   1.623  0.1279 -0.0172  0.0375
 9309SOL    HW128612   6.141   3.452   1.592 -0.1683  0.1459 -0.9796
 9309SOL    HW228613   6.016   3.426   1.674  0.7063 -0.2413  0.2507
 9310SOL     OW28614   0.034   7.765   3.778 -0.3013  0.3845 -0.2020
 9310SOL    HW128615   0.072   7.835   3.831  0.5500  0.5736 -1.0275
 9310SOL    HW228616  -0.032   7.725   3.834 -0.0522  1.1593  0.6652
 9311SOL     OW28617   1.402   2.123   4.931 -0.3391 -0.2913  0.2596
 9311SOL    HW128618   1.495   2.099   4.924  0.4844  2.2291  1.1858
 9311SOL    HW228619   1.369   2.070   5.003  0.5280 -0.8523  0.2663
 9312SOL     OW28620   5.802   2.328   4.734 -0.3621 -0.6073  0.5426
 9312SOL    HW128621   5.710   2.320   4.709 -0.0542  0.1436 -0.8896
 9312SOL    HW228622   5.812   2.418   4.765  0.0202 -0.4918  0.1005
 9313SOL     OW28623   3.727   4.301   2.046 -0.3560 -0.3015  0.1939
 9313SOL    HW128624   3.786   4.342   2.109 -1.3359 -0.9655  1.5979
 9313SOL    HW228625   3.640   4.332   2.071 -0.5729  1.8237 -2.7313
 9314SOL     OW28626   1.127   0.485   0.995 -0.3381  0.1530  0.1567
 9314SOL    HW128627   1.190   0.535   0.942  1.9014  0.0076  2.4765
 9314SOL    HW228628   1.111   0.406   0.944 -0.4491  1.1966 -1.5172
 9315SOL     OW28629   6.089   7.073   2.210  1.0661 -0.2940 -0.0911
 9315SOL    HW128630   6.037   7.147   2.240 -0.2350 -0.6393 -1.4141
 9315SOL    HW228631   6.180   7.098   2.230  0.5475  1.0470  0.7047
 9316SOL     OW28632   3.651   2.626   1.375  0.3087 -0.2229 -0.1220
 9316SOL    HW128633   3.741   2.610   1.404  0.3020 -0.1844 -0.0804
 9316SOL    HW228634   3.660   2.656   1.285  0.5230  2.4091  0.7139
 9317SOL     OW28635   1.326   1.162   1.319 -0.2188  0.0518 -0.4670
 9317SOL    HW128636   1.386   1.098   1.280 -0.7865 -1.2012  0.6399
 9317SOL    HW228637   1.346   1.159   1.413 -1.8320 -0.2367 -0.1052
 9318SOL     OW28638   4.460   6.650   5.224 -0.0341 -0.4492 -0.1231
 9318SOL    HW128639   4.553   6.647   5.204  0.3148 -1.9920  1.5096
 9318SOL    HW228640   4.454   6.705   5.302 -0.2628 -1.6890  0.7550
 9319SOL     OW28641   6.739   2.025   0.853 -0.1985  0.3141 -0.0814
 9319SOL    HW128642   6.691   1.944   0.871 -0.7819  0.8425  0.8143
 9319SOL    HW228643   6.692   2.092   0.903  0.8075  1.0470 -0.0929
 9320SOL     OW28644   5.273   5.228   5.504 -0.6423  0.4053  0.2279
 9320SOL    HW128645   5.356   5.215   5.550 -0.4261 -0.8802 -0.4712
 9320SOL    HW228646   5.214   5.162   5.542 -1.0653  0.6881  0.0714
 9321SOL     OW28647   3.520   0.931   0.368  0.0450  0.2408  0.0375
 9321SOL    HW128648   3.574   0.900   0.440  1.8581  0.3733 -1.1844
 9321SOL    HW228649   3.448   0.868   0.363 -1.2724  1.3081  3.1354
 9322SOL     OW28650   4.520   6.977   5.966 -0.0291 -0.4036  0.4771
 9322SOL    HW128651   4.505   7.069   5.943  0.6032 -0.3403  0.3188
 9322SOL    HW228652   4.615   6.969   5.975 -0.1138 -0.9371  0.9425
 9323SOL     OW28653   2.232   5.039   2.884  0.4741  0.2187  0.2791
 9323SOL    HW128654   2.201   4.964   2.834  0.8408  1.1885 -1.4842
 9323SOL    HW228655   2.156   5.068   2.934 -0.0030 -0.5918  0.0302
 9324SOL     OW28656   4.432   4.409   0.656  0.3291  0.0805 -0.3875
 9324SOL    HW128657   4.337   4.401   0.655  0.3431 -0.3931  0.9061
 9324SOL    HW228658   4.450   4.478   0.591 -1.0090  1.2761  0.4407
 9325SOL     OW28659   6.591   2.944   7.259 -0.0122  0.1346  0.1882
 9325SOL    HW128660   6.588   2.909   7.348  0.6349 -2.3015 -0.6759
 9325SOL    HW228661   6.613   3.036   7.270 -1.5796  0.2911  2.6134
 9326SOL     OW28662   2.057   7.752   0.268 -0.4545 -0.0760 -0.0755
 9326SOL    HW128663   2.094   7.752   0.180  0.0144 -0.0516  0.1223
 9326SOL    HW228664   1.979   7.697   0.260  0.6405 -1.7131 -0.0766
 9327SOL     OW28665   6.121   2.115   5.181 -0.0160 -0.2144 -0.0567
 9327SOL    HW128666   6.177   2.040   5.203  0.8099  0.5487  0.5341
 9327SOL    HW228667   6.050   2.112   5.246 -1.5313 -2.0248 -1.6880
 9328SOL     OW28668   7.256   4.928   7.659  0.0261  0.2209 -0.0291
 9328SOL    HW128669   7.349   4.919   7.681 -0.2927  0.9785  1.8181
 9328SOL    HW228670   7.222   4.838   7.660  0.5060  0.0433  0.4217
 9329SOL     OW28671   3.327   7.344   2.619 -0.2391 -0.4125  0.2850
 9329SOL    HW128672   3.267   7.333   2.692 -1.3629 -0.8558 -0.6627
 9329SOL    HW228673   3.382   7.266   2.621  0.8719  0.3663  1.6312
 9330SOL     OW28674   5.643   2.257   3.435  0.1826  0.4508  0.6109
 9330SOL    HW128675   5.634   2.267   3.340 -0.3494 -0.3202  0.5747
 9330SOL    HW228676   5.686   2.338   3.463  2.3148 -0.1998 -0.5430
 9331SOL     OW28677   4.628   0.204   6.796  0.0087  0.2880 -0.7311
 9331SOL    HW128678   4.627   0.298   6.812  0.1573  0.1596  0.0972
 9331SOL    HW228679   4.570   0.191   6.721 -2.8902  0.6622  1.2988
 9332SOL     OW28680   0.816   4.142   3.935  0.8494  0.1911  0.1584
 9332SOL    HW128681   0.822   4.085   4.012  1.5306 -1.3771 -1.0105
 9332SOL    HW228682   0.768   4.218   3.966 -2.1976 -1.9725  1.2697
 9333SOL     OW28683   6.785   6.016   5.845 -0.2542 -0.2671  0.0984
 9333SOL    HW128684   6.822   5.942   5.892 -0.4704  0.4141  1.3724
 9333SOL    HW228685   6.819   6.007   5.756 -0.3352 -1.9206  0.2103
 9334SOL     OW28686   1.536   4.919   0.027  0.4123  0.1514  0.3363
 9334SOL    HW128687   1.477   4.875   0.088  1.5554 -1.2586  0.4940
 9334SOL    HW228688   1.597   4.967   0.082 -0.5279  1.5685  0.1758
 9335SOL     OW28689   0.193   6.312   5.626  0.1575 -0.1141 -0.3643
 9335SOL    HW128690   0.191   6.406   5.612  0.0607 -0.1907 -0.8851
 9335SOL    HW228691   0.274   6.296   5.675  1.6496 -0.0545 -2.6408
 9336SOL     OW28692   3.638   3.176   1.369  0.6549  0.2225 -0.3020
 9336SOL    HW128693   3.566   3.212   1.421  1.1824  0.1839  0.4749
 9336SOL    HW228694   3.704   3.151   1.434  0.6305 -1.4288 -0.8535
 9337SOL     OW28695   4.204   2.618   6.145 -0.5094 -0.2201 -0.4067
 9337SOL    HW128696   4.162   2.547   6.193 -0.1681 -0.0205  0.2101
 9337SOL    HW228697   4.229   2.680   6.213 -1.7334  0.9995 -1.0154
 9338SOL     OW28698   7.208   5.199   7.198 -0.0845  0.1804 -0.2210
 9338SOL    HW128699   7.270   5.225   7.131  2.3017  1.1190  2.1644
 9338SOL    HW228700   7.236   5.111   7.225 -1.3100 -0.3892 -0.7229
 9339SOL     OW28701   4.174   1.890   6.991 -0.4894  0.3488 -0.8695
 9339SOL    HW128702   4.181   1.957   7.059 -0.2159 -0.0001 -0.5497
 9339SOL    HW228703   4.265   1.867   6.970 -0.5669  0.5747 -1.4768
 9340SOL     OW28704   1.744   1.552   4.815  0.1113 -0.2459 -0.0186
 9340SOL    HW128705   1.788   1.518   4.737  1.2421 -1.6183  1.1509
 9340SOL    HW228706   1.665   1.498   4.823 -0.5430  0.5753 -0.7489
 9341SOL     OW28707   5.990   5.999   1.390  0.1328 -0.2907  0.4521
 9341SOL    HW128708   5.963   6.079   1.345 -1.8809 -1.1961 -0.0586
 9341SOL    HW228709   5.909   5.962   1.425  1.0792 -1.8678  1.1035
 9342SOL     OW28710   6.377   6.217   1.122  0.2455 -0.4877  0.3961
 9342SOL    HW128711   6.361   6.291   1.181 -0.2838  0.4763 -0.9020
 9342SOL    HW228712   6.305   6.157   1.140 -0.3883  0.1844  0.1714
 9343SOL     OW28713   2.975   0.541   3.570 -0.3845  0.1562 -0.2856
 9343SOL    HW128714   2.948   0.602   3.638 -1.3325  0.9974 -1.3696
 9343SOL    HW228715   2.993   0.596   3.493  0.0002 -0.8061 -0.9058
 9344SOL     OW28716   4.674   4.672   2.668 -0.0441 -0.0916 -0.0881
 9344SOL    HW128717   4.755   4.642   2.627 -0.7472 -0.4767 -1.2216
 9344SOL    HW228718   4.607   4.661   2.601 -1.6728 -2.8289  1.8034
 9345SOL     OW28719   0.138   5.941   2.384  0.0382 -0.5158 -0.0562
 9345SOL    HW128720   0.086   5.955   2.305 -0.6805  0.9913  0.6260
 9345SOL    HW228721   0.185   6.024   2.397 -0.7435 -0.2849  1.6754
 9346SOL     OW28722   2.052   3.374   6.809 -0.4775 -0.2633  0.2656
 9346SOL    HW128723   2.021   3.461   6.786 -1.0813 -0.5890 -0.1615
 9346SOL    HW228724   2.141   3.388   6.840 -0.2871  0.4026 -0.5638
 9347SOL     OW28725   6.676   1.756   4.992 -0.1493  0.1248  0.4560
 9347SOL    HW128726   6.625   1.684   4.955  1.0170  0.5557 -2.2620
 9347SOL    HW228727   6.689   1.816   4.918  1.9696  1.3426  1.7258
 9348SOL     OW28728   5.048   5.862   0.348  0.5002  0.0072  0.1518
 9348SOL    HW128729   5.135   5.898   0.366  0.7208 -0.8783  0.9800
 9348SOL    HW228730   5.018   5.908   0.270  2.9994 -1.8315 -2.0407
 9349SOL     OW28731   3.860   5.669   0.518 -0.4214  0.2702  0.5133
 9349SOL    HW128732   3.910   5.636   0.443 -2.2259 -1.9077  0.1797
 9349SOL    HW228733   3.871   5.602   0.586 -3.5306 -0.8011  0.1071
 9350SOL     OW28734   5.420   3.429   5.795  0.2023 -0.2918  0.0856
 9350SOL    HW128735   5.491   3.491   5.804 -0.4798  0.2630  2.2161
 9350SOL    HW228736   5.427   3.372   5.872 -2.2636  0.4823  0.9941
 9351SOL     OW28737   7.769   1.400   1.540  0.5273  0.0558 -0.2876
 9351SOL    HW128738   7.758   1.307   1.520  0.8463 -0.0875  0.1733
 9351SOL    HW228739   7.762   1.405   1.635  2.6654  0.1654 -0.0844
 9352SOL     OW28740   1.183   5.924   3.817  0.1851  0.0094 -0.5762
 9352SOL    HW128741   1.124   5.971   3.758  1.4898  0.1857 -1.7965
 9352SOL    HW228742   1.143   5.837   3.826 -0.8134  0.4628 -0.5024
 9353SOL     OW28743   6.450   7.353   5.744 -0.0137  0.3771 -0.0107
 9353SOL    HW128744   6.414   7.368   5.656  1.2074  0.4317 -0.5318
 9353SOL    HW228745   6.527   7.298   5.729  0.4475  0.7303  0.9763
 9354SOL     OW28746   2.258   1.927   0.784 -1.1894 -0.3871  0.5837
 9354SOL    HW128747   2.257   1.955   0.875 -2.1003  0.8664  0.2116
 9354SOL    HW228748   2.320   1.853   0.782 -1.3645 -0.6113  2.2489
 9355SOL     OW28749   2.710   1.768   1.861  0.1711  0.3825 -0.4233
 9355SOL    HW128750   2.655   1.780   1.939  0.3032  1.0746 -0.4316
 9355SOL    HW228751   2.719   1.856   1.824  1.7338  0.3838 -0.1132
 9356SOL     OW28752   7.258   6.140   7.038 -0.0316  0.1727  0.3787
 9356SOL    HW128753   7.219   6.181   6.961 -0.9341 -0.2489  0.5975
 9356SOL    HW228754   7.342   6.184   7.049  0.3210 -0.0728 -1.1138
 9357SOL     OW28755   1.080   3.940   6.521  0.1548 -0.0606 -0.0303
 9357SOL    HW128756   1.116   3.852   6.515  0.6414  0.2088 -2.7519
 9357SOL    HW228757   1.104   3.970   6.608 -0.2176 -2.6522  1.0543
 9358SOL     OW28758   2.564   3.437   6.443 -0.0242  0.2753  0.3093
 9358SOL    HW128759   2.610   3.521   6.445  2.6795 -1.0956  0.2394
 9358SOL    HW228760   2.614   3.380   6.502 -2.2853 -1.0963  1.0425
 9359SOL     OW28761   5.686   6.496   3.171  0.8496  0.3481 -0.5411
 9359SOL    HW128762   5.774   6.524   3.196  0.4383  0.6204  0.6646
 9359SOL    HW228763   5.636   6.577   3.167  0.6135  0.1777 -1.0882
 9360SOL     OW28764   0.878   7.036   1.788  0.3061 -0.6196 -0.6072
 9360SOL    HW128765   0.944   7.098   1.820  0.8338 -0.4220 -2.0325
 9360SOL    HW228766   0.798   7.088   1.781  0.1876 -0.6567  0.3204
 9361SOL     OW28767   2.952   0.870   4.474  0.0555  0.5707 -0.0400
 9361SOL    HW128768   3.037   0.894   4.511 -0.0195  1.3673 -0.3830
 9361SOL    HW228769   2.894   0.942   4.497 -0.0610  0.9564 -1.4820
 9362SOL     OW28770   2.080   0.863   4.302 -0.2984 -0.5741  1.0594
 9362SOL    HW128771   2.101   0.956   4.310  1.5033 -0.8817  0.3921
 9362SOL    HW228772   2.132   0.832   4.228 -2.1427 -1.7798  0.1732
 9363SOL     OW28773   6.481   6.820   4.881 -0.3070 -0.1137  0.3691
 9363SOL    HW128774   6.570   6.807   4.913 -0.2367 -1.0194 -0.1531
 9363SOL    HW228775   6.449   6.732   4.862 -0.7078  0.3010 -1.0577
 9364SOL     OW28776   6.715   3.240   3.756 -0.2257 -0.3689  0.1579
 9364SOL    HW128777   6.680   3.151   3.754  0.5071 -0.6430 -0.7309
 9364SOL    HW228778   6.642   3.293   3.789 -1.1173 -1.1008 -0.5843
 9365SOL     OW28779   0.953   4.450   3.695  0.7300 -0.5017  0.2149
 9365SOL    HW128780   1.046   4.434   3.681  0.6992 -2.0604  1.5300
 9365SOL    HW228781   0.947   4.482   3.785  0.1198  0.9965 -0.3340
 9366SOL     OW28782   7.045   5.715   6.933  0.0980  0.2975  0.0371
 9366SOL    HW128783   7.065   5.659   7.009 -0.6159 -0.7550 -0.5200
 9366SOL    HW228784   7.063   5.804   6.964  1.5906 -0.2410  0.8463
 9367SOL     OW28785   6.548   5.933   7.539 -0.0121 -0.3906 -0.2907
 9367SOL    HW128786   6.475   5.969   7.489 -0.8971 -0.4632  0.9049
 9367SOL    HW228787   6.588   5.868   7.481 -0.1079  0.5344 -1.4318
 9368SOL     OW28788   2.039   3.429   0.508 -0.3002 -0.2767  0.0247
 9368SOL    HW128789   2.098   3.499   0.537 -0.1656 -0.1698 -0.4892
 9368SOL    HW228790   2.010   3.457   0.421  1.1180 -1.6641 -0.9520
 9369SOL     OW28791   7.530   0.236   4.165  0.1901  0.4782  0.1709
 9369SOL    HW128792   7.492   0.149   4.173  0.3029  0.1869 -1.9485
 9369SOL    HW228793   7.510   0.279   4.248 -3.2481 -0.2191 -0.1479
 9370SOL     OW28794   2.067   3.584   3.762  0.0917 -0.1613 -0.7361
 9370SOL    HW128795   2.144   3.542   3.799  0.4560  1.3305  0.2800
 9370SOL    HW228796   2.101   3.661   3.715 -0.7537  0.5208 -0.2700
 9371SOL     OW28797   3.178   0.792   3.936  0.3685  0.1287  0.5138
 9371SOL    HW128798   3.145   0.807   3.847  0.7662  2.6210  0.7339
 9371SOL    HW228799   3.115   0.838   3.993  1.3961  0.5596  1.3298
 9372SOL     OW28800   1.678   0.876   0.426 -0.5501  0.2316 -0.0074
 9372SOL    HW128801   1.731   0.807   0.464 -2.8146 -0.5180  2.0389
 9372SOL    HW228802   1.631   0.834   0.354 -0.2364  0.2462 -0.2219
 9373SOL     OW28803   6.047   3.173   0.580  0.3793 -0.4222 -0.3682
 9373SOL    HW128804   6.135   3.155   0.614  0.3342 -1.2225 -0.6441
 9373SOL    HW228805   5.989   3.140   0.649  0.2914 -0.3788 -0.4224
 9374SOL     OW28806   6.361   3.441   2.231  0.4281  0.2300  0.3846
 9374SOL    HW128807   6.287   3.467   2.176  1.4454  0.3260 -0.9833
 9374SOL    HW228808   6.428   3.411   2.169  1.0839 -1.0518  1.6517
 9375SOL     OW28809   7.451   5.528   5.646  0.3284  0.0185 -0.0662
 9375SOL    HW128810   7.514   5.462   5.618  1.8324  0.7897  1.3025
 9375SOL    HW228811   7.378   5.478   5.682  2.0750 -1.0056  2.3495
 9376SOL     OW28812   7.329   6.950   0.504 -0.0749  0.0004  0.2494
 9376SOL    HW128813   7.333   6.855   0.495 -0.6964 -0.1216  1.1455
 9376SOL    HW228814   7.398   6.971   0.568 -0.7274  0.0082  0.9658
 9377SOL     OW28815   5.692   4.377   2.612  0.0329  0.0353  0.1573
 9377SOL    HW128816   5.682   4.352   2.520 -3.2557  1.2847  0.0357
 9377SOL    HW228817   5.731   4.300   2.653  0.1310 -1.1592 -2.0166
 9378SOL     OW28818   4.930   3.546   5.814 -0.2449  0.2433  0.1422
 9378SOL    HW128819   4.993   3.479   5.841 -2.1518 -1.4330  0.6604
 9378SOL    HW228820   4.975   3.594   5.744  2.4177  0.5932  1.9466
 9379SOL     OW28821   7.281   6.847   3.849 -0.4785  0.0821  0.1887
 9379SOL    HW128822   7.193   6.884   3.855 -0.0552  1.3797 -0.9379
 9379SOL    HW228823   7.334   6.902   3.907  0.0205  0.8594 -0.9581
 9380SOL     OW28824   0.447   3.657   3.084  0.0511  0.0412  0.1100
 9380SOL    HW128825   0.456   3.565   3.060  0.9684  0.3028 -0.6326
 9380SOL    HW228826   0.389   3.693   3.017 -0.8391 -0.1294  0.7803
 9381SOL     OW28827   1.305   6.696   3.260 -0.0056  0.3183 -1.0693
 9381SOL    HW128828   1.382   6.748   3.281 -0.0584  0.6579 -1.6783
 9381SOL    HW228829   1.280   6.655   3.343  1.6240 -0.8934 -1.1369
 9382SOL     OW28830   0.290   5.043   2.774 -0.3317 -0.5642 -0.2358
 9382SOL    HW128831   0.257   5.010   2.690 -0.4339 -3.3444  0.7802
 9382SOL    HW228832   0.234   5.001   2.839  1.2261 -0.3240  1.3129
 9383SOL     OW28833   4.132   1.486   1.737  0.2456  0.5035 -0.1485
 9383SOL    HW128834   4.154   1.393   1.739 -0.7327  0.2290  2.6248
 9383SOL    HW228835   4.073   1.495   1.662 -0.1655 -1.2394 -0.0720
 9384SOL     OW28836   6.836   4.795   5.950 -0.6841 -0.3259 -0.2504
 9384SOL    HW128837   6.798   4.882   5.965  0.8780  0.6282 -1.4699
 9384SOL    HW228838   6.793   4.739   6.014 -1.8436  1.3146  0.4873
 9385SOL     OW28839   5.878   4.640   0.731 -0.5543 -0.0853  0.4179
 9385SOL    HW128840   5.815   4.570   0.746 -0.7616  0.0719  0.2749
 9385SOL    HW228841   5.897   4.674   0.819  1.6173 -2.1056  0.8332
 9386SOL     OW28842   3.515   5.878   1.646 -0.7302 -0.3062 -0.6350
 9386SOL    HW128843   3.499   5.911   1.734 -2.0538  0.2174 -1.0540
 9386SOL    HW228844   3.611   5.874   1.640 -0.6113 -0.2842  0.7886
 9387SOL     OW28845   0.889   5.497   4.068 -0.2050  0.2829  0.8685
 9387SOL    HW128846   0.868   5.577   4.116  0.4639  0.0819  1.5057
 9387SOL    HW228847   0.984   5.491   4.071 -0.2591 -0.6507  1.0205
 9388SOL     OW28848   0.739   3.722   2.002 -0.2724 -0.3626 -0.1363
 9388SOL    HW128849   0.797   3.741   1.928  0.1136 -0.3195  0.1729
 9388SOL    HW228850   0.702   3.807   2.026 -0.4856 -0.3941 -0.3507
 9389SOL     OW28851   4.531   4.352   5.514 -0.1222  0.7043 -0.1011
 9389SOL    HW128852   4.530   4.329   5.422 -1.5477  0.5896 -0.0761
 9389SOL    HW228853   4.496   4.442   5.517  0.1284  0.7954  0.3105
 9390SOL     OW28854   0.415   0.642   3.722  0.2488 -0.2739  0.1632
 9390SOL    HW128855   0.456   0.707   3.780  0.4427 -1.0079  0.8603
 9390SOL    HW228856   0.332   0.683   3.696  0.1049  0.0205  1.0539
 9391SOL     OW28857   0.118   3.617   5.024  0.5474 -1.0339  0.1376
 9391SOL    HW128858   0.048   3.649   4.968 -1.5886 -2.1478  2.0170
 9391SOL    HW228859   0.123   3.680   5.096  0.0837 -2.0034  1.0356
 9392SOL     OW28860   1.341   1.013   4.251 -0.3175  0.2107 -0.7879
 9392SOL    HW128861   1.387   1.064   4.184  2.0299  1.0309  1.2872
 9392SOL    HW228862   1.411   0.967   4.298 -2.0406 -1.7884 -0.0346
 9393SOL     OW28863   5.753   5.390   2.099 -0.1699  0.6061  0.0627
 9393SOL    HW128864   5.765   5.345   2.016 -0.6682  0.8087 -0.1236
 9393SOL    HW228865   5.780   5.327   2.166  1.3457  0.8449 -0.3011
 9394SOL     OW28866   0.040   1.893   1.130 -0.3775 -0.3127 -0.5551
 9394SOL    HW128867   0.062   1.819   1.074  0.7002  0.9912 -1.9422
 9394SOL    HW228868   0.059   1.863   1.219  1.1171 -1.3316 -1.1934
 9395SOL     OW28869   1.955   0.019   7.328  0.0508 -0.4440  0.2457
 9395SOL    HW128870   1.889   0.057   7.386  0.9589  0.8950  0.4385
 9395SOL    HW228871   2.038   0.049   7.363  0.8431 -2.6722  0.4079
 9396SOL     OW28872   6.547   5.578   4.258  0.4175  0.0586  0.2150
 9396SOL    HW128873   6.553   5.520   4.182  1.5487 -1.2850  1.2734
 9396SOL    HW228874   6.627   5.630   4.254  1.1943 -1.0077  1.2151
 9397SOL     OW28875   2.862   5.965   1.842 -0.1419  0.2929  0.0833
 9397SOL    HW128876   2.805   5.967   1.919 -1.9096  0.2953 -1.1823
 9397SOL    HW228877   2.808   5.929   1.772  1.4680  0.1428 -1.1599
 9398SOL     OW28878   4.658   5.336   0.536 -0.2063  0.5475 -0.0554
 9398SOL    HW128879   4.596   5.408   0.523  0.6428  1.2293 -0.4216
 9398SOL    HW228880   4.663   5.325   0.631  1.0948  2.2729  0.1074
 9399SOL     OW28881   2.798   4.625   5.087 -0.1456 -0.0766  0.0401
 9399SOL    HW128882   2.761   4.707   5.118 -0.3280  1.0864 -2.9295
 9399SOL    HW228883   2.723   4.567   5.076 -0.2619  0.0292  0.2880
 9400SOL     OW28884   1.275   0.846   5.148 -0.2398  0.3754  0.4027
 9400SOL    HW128885   1.240   0.913   5.208 -0.6952 -2.1698  3.2178
 9400SOL    HW228886   1.369   0.861   5.148 -0.1610  0.1649  2.2541
 9401SOL     OW28887   0.211   2.915   1.770  0.0430 -0.0853  0.1448
 9401SOL    HW128888   0.120   2.914   1.801 -0.2971 -0.4417 -0.8106
 9401SOL    HW228889   0.247   2.832   1.801  0.4746  0.6500  1.6934
 9402SOL     OW28890   1.009   2.784   7.061  0.0205  0.0043  0.0880
 9402SOL    HW128891   1.094   2.812   7.026 -0.5321  0.9660 -0.5432
 9402SOL    HW228892   0.945   2.834   7.009 -0.9236 -0.6724  0.5840
 9403SOL     OW28893   2.791   6.306   5.212  0.5820 -0.2444 -0.0697
 9403SOL    HW128894   2.840   6.352   5.144 -0.3814 -1.2602 -1.5066
 9403SOL    HW228895   2.766   6.374   5.275 -0.7290  1.2122 -2.0653
 9404SOL     OW28896   1.479   1.891   0.288 -0.0965 -0.0937 -0.4952
 9404SOL    HW128897   1.531   1.821   0.329  0.2658 -0.9314 -2.2861
 9404SOL    HW228898   1.522   1.972   0.316  0.2236 -0.6415  0.6349
 9405SOL     OW28899   2.131   7.425   0.270  0.4643  0.3884 -0.3415
 9405SOL    HW128900   2.167   7.456   0.353  2.3428  2.3710 -1.7912
 9405SOL    HW228901   2.182   7.347   0.249  0.6152  0.4224 -0.1059
 9406SOL     OW28902   1.678   0.129   2.867 -0.3189 -0.1635  0.6335
 9406SOL    HW128903   1.717   0.145   2.953 -0.3970 -0.7461  0.7842
 9406SOL    HW228904   1.590   0.166   2.873 -0.0946  0.3762  0.5863
 9407SOL     OW28905   5.794   7.148   0.665  0.1848 -0.0639  0.4772
 9407SOL    HW128906   5.783   7.239   0.692  1.0850  0.5482 -1.1337
 9407SOL    HW228907   5.713   7.126   0.619  1.0950  0.9143 -1.7203
 9408SOL     OW28908   1.765   6.133   4.543  0.0057 -0.1849 -0.1980
 9408SOL    HW128909   1.759   6.043   4.510  0.4616  0.1193 -1.1585
 9408SOL    HW228910   1.850   6.137   4.587 -0.0768 -0.2603 -0.0307
 9409SOL     OW28911   2.359   1.251   2.126 -0.1365  0.2308  0.3378
 9409SOL    HW128912   2.410   1.171   2.118 -0.0574 -0.0907  2.9845
 9409SOL    HW228913   2.365   1.273   2.219 -0.4418  3.1279 -0.2352
 9410SOL     OW28914   6.440   0.694   1.684  0.1444  0.2727 -0.6185
 9410SOL    HW128915   6.473   0.680   1.773 -2.6071 -1.3630  0.2763
 9410SOL    HW228916   6.511   0.667   1.627  0.6015 -2.6115  1.1411
 9411SOL     OW28917   2.649   7.473   4.690  0.0884 -0.3544  0.7008
 9411SOL    HW128918   2.639   7.397   4.747  1.0001 -1.7802 -0.9361
 9411SOL    HW228919   2.713   7.445   4.624  0.0201  1.6475 -0.2792
 9412SOL     OW28920   3.991   4.865   6.314  0.4112 -0.0638 -0.8088
 9412SOL    HW128921   4.030   4.788   6.273 -0.0230 -0.9929  0.4786
 9412SOL    HW228922   3.902   4.838   6.337  0.9021  0.0949  1.5395
 9413SOL     OW28923   1.218   5.562   1.558 -0.4163 -0.1396  0.2014
 9413SOL    HW128924   1.135   5.566   1.607 -0.0390 -0.4793  0.8914
 9413SOL    HW228925   1.200   5.607   1.476 -0.7619  1.4693  1.1056
 9414SOL     OW28926   1.603   1.751   2.063 -0.2521 -0.2505  0.1401
 9414SOL    HW128927   1.695   1.755   2.089  0.3035 -0.8644 -1.5779
 9414SOL    HW228928   1.573   1.842   2.065 -0.2280 -0.2207  2.6041
 9415SOL     OW28929   5.573   7.138   3.135  0.5577 -0.5421 -0.3577
 9415SOL    HW128930   5.606   7.100   3.216 -0.9767 -1.9562 -0.3323
 9415SOL    HW228931   5.624   7.218   3.123 -0.3023  0.6885  2.9565
 9416SOL     OW28932   5.089   2.967   1.146  0.1534  0.5748  0.2407
 9416SOL    HW128933   5.090   2.888   1.201 -0.4684 -1.0080 -1.9010
 9416SOL    HW228934   5.179   2.999   1.150  0.3980 -0.1565  1.2427
 9417SOL     OW28935   6.235   7.687   5.344  0.2098  0.2802  0.0292
 9417SOL    HW128936   6.312   7.650   5.300 -0.2039  1.0451 -1.4150
 9417SOL    HW228937   6.175   7.708   5.272 -0.5514  1.4796  0.9781
 9418SOL     OW28938   1.962   4.005   5.786  0.3021  0.1856 -0.1221
 9418SOL    HW128939   1.920   3.920   5.799  1.3695 -0.3537 -0.1094
 9418SOL    HW228940   2.010   4.020   5.867  1.7437 -0.1494 -0.8937
 9419SOL     OW28941   2.191   7.222   6.619  0.3461 -0.2715 -0.1772
 9419SOL    HW128942   2.172   7.240   6.527  1.9891 -1.7083 -0.8557
 9419SOL    HW228943   2.145   7.140   6.638  0.1534 -0.0734  0.2385
 9420SOL     OW28944   1.113   7.348   1.357  0.0103 -0.0846 -0.4077
 9420SOL    HW128945   1.036   7.337   1.302  1.1698 -1.7695 -1.7612
 9420SOL    HW228946   1.106   7.279   1.423 -0.1757  0.4461  0.1366
 9421SOL     OW28947   1.672   4.227   1.161  0.4763 -0.3174  0.0397
 9421SOL    HW128948   1.724   4.304   1.136 -0.4647  0.2297 -0.2620
 9421SOL    HW228949   1.718   4.192   1.237  0.6520  0.8322  0.4896
 9422SOL     OW28950   0.977   1.350   5.572 -0.0649  0.3741 -0.2570
 9422SOL    HW128951   0.972   1.281   5.638 -0.9710  0.5998 -0.0834
 9422SOL    HW228952   1.019   1.308   5.496 -0.4461 -0.3152 -0.0894
 9423SOL     OW28953   1.479   0.607   3.246 -0.4935 -0.4180  0.2439
 9423SOL    HW128954   1.541   0.543   3.282 -0.7808 -0.6837  0.2809
 9423SOL    HW228955   1.468   0.581   3.155  0.0155  0.0828  0.0326
 9424SOL     OW28956   6.490   1.988   2.989  0.0944  0.4599 -0.1543
 9424SOL    HW128957   6.461   1.897   2.996 -0.0929  0.5215 -0.1248
 9424SOL    HW228958   6.452   2.031   3.065  0.9264  0.3672  0.3289
 9425SOL     OW28959   3.069   0.931   2.314 -0.4412 -0.6756  0.3738
 9425SOL    HW128960   3.073   0.964   2.404  1.3513 -0.8175  0.3858
 9425SOL    HW228961   3.073   0.836   2.322 -1.0310 -0.7242  0.1613
 9426SOL     OW28962   5.834   0.707   4.006 -0.1583 -0.2190 -0.2201
 9426SOL    HW128963   5.793   0.686   3.922 -2.1042 -1.6948  1.0086
 9426SOL    HW228964   5.879   0.627   4.032  0.0568  0.0784  0.3532
 9427SOL     OW28965   0.165   7.322   6.538  0.0031  0.1045 -0.0234
 9427SOL    HW128966   0.188   7.288   6.451  2.2419  0.6532  0.3017
 9427SOL    HW228967   0.097   7.387   6.521 -0.5054 -0.6946 -1.2142
 9428SOL     OW28968   3.703   6.124   3.236 -0.6493  0.8635 -0.2600
 9428SOL    HW128969   3.766   6.195   3.230  1.0942 -0.2984  2.4592
 9428SOL    HW228970   3.649   6.146   3.312 -1.3574  0.2189 -0.5610
 9429SOL     OW28971   1.815   2.649   0.104  0.0695 -0.1335 -0.7025
 9429SOL    HW128972   1.825   2.720   0.167 -1.7805  1.2650 -1.8616
 9429SOL    HW228973   1.873   2.673   0.032 -0.6743  0.3108 -1.1628
 9430SOL     OW28974   1.327   7.242   5.164  0.4909 -0.4883  0.2124
 9430SOL    HW128975   1.384   7.285   5.228  0.7060 -0.7311  0.1885
 9430SOL    HW228976   1.324   7.151   5.194  0.3483 -0.5366  0.0478
 9431SOL     OW28977   5.833   5.751   1.876 -0.2358 -0.0638 -0.6948
 9431SOL    HW128978   5.810   5.720   1.963 -1.2958  2.2286 -0.0849
 9431SOL    HW228979   5.780   5.698   1.816 -3.3166  1.5717  0.3928
 9432SOL     OW28980   2.791   7.769   1.683  0.2157  0.5164 -0.5335
 9432SOL    HW128981   2.816   7.679   1.701  0.6497  0.4926 -1.2022
 9432SOL    HW228982   2.813   7.817   1.762  1.2708  0.2738 -0.6733
 9433SOL     OW28983   7.084   3.206   7.667 -0.2613  0.2870  0.6069
 9433SOL    HW128984   6.994   3.226   7.691 -0.3775 -0.6989  1.0041
 9433SOL    HW228985   7.111   3.280   7.612 -0.9775  1.0850  1.3011
 9434SOL     OW28986   0.209   2.838   1.492  0.4393  0.1524 -1.0166
 9434SOL    HW128987   0.181   2.852   1.583  0.1722 -0.7207 -0.9554
 9434SOL    HW228988   0.200   2.924   1.451  2.9644  1.1921  0.4083
 9435SOL     OW28989   5.253   3.281   2.356  0.1772 -0.1763 -0.2775
 9435SOL    HW128990   5.193   3.347   2.321 -1.5615 -0.4156  2.0165
 9435SOL    HW228991   5.338   3.324   2.356 -0.0247  0.4409 -2.9125
 9436SOL     OW28992   6.236   5.317   6.755 -0.1362 -0.4621  0.5127
 9436SOL    HW128993   6.297   5.351   6.821  2.5009 -3.1162 -0.3419
 9436SOL    HW228994   6.285   5.318   6.673 -1.7912 -1.2938 -0.5508
 9437SOL     OW28995   1.233   5.165   5.600 -0.1732  0.0091  0.0916
 9437SOL    HW128996   1.316   5.194   5.638  0.5251 -0.5512 -0.9474
 9437SOL    HW228997   1.245   5.178   5.506 -1.4657  0.4067 -0.0304
 9438SOL     OW28998   3.433   0.867   5.399 -0.2028 -0.4773  0.3967
 9438SOL    HW128999   3.522   0.871   5.434 -0.7170  0.1806  1.6546
 9438SOL    HW229000   3.436   0.920   5.319  0.1673  0.8704  1.2801
 9439SOL     OW29001   2.431   0.629   6.091  0.3043  0.4574  0.0014
 9439SOL    HW129002   2.460   0.689   6.022  2.3132 -1.0265 -0.5393
 9439SOL    HW229003   2.509   0.578   6.112 -0.7976 -0.5075  1.9717
 9440SOL     OW29004   4.955   1.466   1.592 -0.1568 -0.0666  0.7026
 9440SOL    HW129005   4.886   1.523   1.626  1.2788  1.6902  0.8306
 9440SOL    HW229006   4.982   1.413   1.667 -1.4268 -0.8628  0.6156
 9441SOL     OW29007   5.447   1.103   2.343  0.8770 -0.2731 -0.4678
 9441SOL    HW129008   5.519   1.040   2.345  0.7203 -0.6338  3.7955
 9441SOL    HW229009   5.488   1.188   2.354  0.8029 -0.4404  1.5112
 9442SOL     OW29010   1.530   4.892   2.754  0.9060  0.6637  0.1233
 9442SOL    HW129011   1.615   4.916   2.717 -0.3819  0.6195 -3.1877
 9442SOL    HW229012   1.527   4.797   2.749  1.3322  0.4835  2.1133
 9443SOL     OW29013   7.431   2.384   4.124  0.1622  0.4655 -0.0053
 9443SOL    HW129014   7.475   2.420   4.201 -0.7942  0.7785  0.4062
 9443SOL    HW229015   7.345   2.358   4.156  0.6317 -1.7287 -0.4046
 9444SOL     OW29016   0.918   0.240   4.514 -0.2894  0.3201  0.0395
 9444SOL    HW129017   0.903   0.193   4.596  1.8740  0.4693  0.5869
 9444SOL    HW229018   0.975   0.182   4.464  0.6831  1.4289 -0.1691
 9445SOL     OW29019   7.451   1.568   2.857  0.3625 -0.1129 -0.3021
 9445SOL    HW129020   7.464   1.628   2.930  1.1177  0.4192 -0.8589
 9445SOL    HW229021   7.538   1.554   2.821  0.2037 -1.5282 -0.2156
 9446SOL     OW29022   0.929   3.006   2.331 -0.1309 -0.2817 -0.4674
 9446SOL    HW129023   0.876   2.976   2.405 -0.2438 -1.2532 -0.9324
 9446SOL    HW229024   0.968   3.088   2.362 -0.3077 -0.5826  0.6049
 9447SOL     OW29025   5.458   3.974   7.294 -0.2161  0.6447 -0.2087
 9447SOL    HW129026   5.400   3.906   7.261  0.3569  0.0683 -0.0502
 9447SOL    HW229027   5.520   3.927   7.349 -0.1285  1.3699  0.3182
 9448SOL     OW29028   7.395   7.038   7.147 -0.0384  0.4279 -0.0503
 9448SOL    HW129029   7.354   7.086   7.219 -1.6113 -1.2857  0.2824
 9448SOL    HW229030   7.489   7.051   7.160 -0.3608  2.0739  0.9146
 9449SOL     OW29031   3.611   3.894   1.691  0.2809  0.2554  0.9360
 9449SOL    HW129032   3.517   3.882   1.676  0.4903 -0.1252 -0.1016
 9449SOL    HW229033   3.615   3.954   1.766 -0.7813 -0.3111  1.4643
 9450SOL     OW29034   0.698   1.100   4.765  0.1999  0.3033 -0.7127
 9450SOL    HW129035   0.722   1.193   4.757 -3.1847  1.1949 -2.5621
 9450SOL    HW229036   0.604   1.102   4.785  0.0865 -2.7689 -0.5445
 9451SOL     OW29037   6.962   2.300   2.295 -0.3743 -0.0132 -0.0463
 9451SOL    HW129038   6.893   2.358   2.327 -2.7606 -2.7639  0.2299
 9451SOL    HW229039   6.963   2.314   2.200  0.3394  1.6164  0.1561
 9452SOL     OW29040   1.057   3.011   1.130 -0.2161  0.2911  0.1632
 9452SOL    HW129041   1.028   2.955   1.058  2.1730 -1.8369  0.7510
 9452SOL    HW229042   0.997   2.991   1.202  0.2228 -1.0794  0.1650
 9453SOL     OW29043   1.353   1.076   0.175  0.1274  0.2667  0.4315
 9453SOL    HW129044   1.412   1.128   0.229 -1.1846  1.6519  0.6169
 9453SOL    HW229045   1.349   0.991   0.219  2.6581 -0.1925 -0.1192
 9454SOL     OW29046   1.708   5.052   0.381 -0.1136  0.3590 -0.3990
 9454SOL    HW129047   1.751   4.972   0.349  1.3469  1.2917 -0.8617
 9454SOL    HW229048   1.774   5.095   0.435 -0.9800  1.1315  0.0771
 9455SOL     OW29049   0.617   3.377   7.702 -0.2592  0.3189 -0.4234
 9455SOL    HW129050   0.616   3.461   7.657  0.9539  1.0439  0.8000
 9455SOL    HW229051   0.668   3.319   7.645 -0.1257  0.7436 -0.7384
 9456SOL     OW29052   6.889   4.150   6.331 -0.3867 -0.3155 -0.3896
 9456SOL    HW129053   6.840   4.201   6.396  1.8434  0.1162  1.1051
 9456SOL    HW229054   6.830   4.080   6.305 -1.6827  0.0011  1.5086
 9457SOL     OW29055   6.081   4.577   2.765 -0.3451  0.0815 -0.0530
 9457SOL    HW129056   6.176   4.581   2.774 -0.3045 -0.6418 -0.1005
 9457SOL    HW229057   6.048   4.619   2.845  0.0194 -0.8091  0.5787
 9458SOL     OW29058   1.068   5.662   2.747 -0.4529  0.0434  0.1163
 9458SOL    HW129059   1.066   5.584   2.691 -0.8087  0.1952 -0.0880
 9458SOL    HW229060   0.986   5.658   2.796  0.3171 -0.6432  1.4143
 9459SOL     OW29061   5.440   1.916   5.966  0.6862 -0.8377 -0.0422
 9459SOL    HW129062   5.504   1.907   5.895 -0.0560  1.0472 -1.0200
 9459SOL    HW229063   5.472   1.990   6.018  1.4091 -2.3933  1.8891
 9460SOL     OW29064   4.034   3.131   7.001  0.1926  0.1133  0.0550
 9460SOL    HW129065   4.104   3.066   6.988 -0.0537 -0.1899  0.2232
 9460SOL    HW229066   4.060   3.205   6.947  0.6689  0.0189  0.1464
 9461SOL     OW29067   4.279   1.612   4.715  0.2566 -0.0628  0.3428
 9461SOL    HW129068   4.186   1.595   4.698 -0.3169  1.4646  1.7116
 9461SOL    HW229069   4.295   1.697   4.675  1.6679 -1.2044 -1.7216
 9462SOL     OW29070   3.653   5.672   3.151  0.4789  0.0106 -0.6582
 9462SOL    HW129071   3.658   5.765   3.176 -0.7908  0.6586 -2.6370
 9462SOL    HW229072   3.696   5.626   3.224  0.4749  2.0681  0.7372
 9463SOL     OW29073   6.753   1.059   4.786  0.1947 -0.5318 -0.3416
 9463SOL    HW129074   6.801   0.980   4.761  0.1186 -0.1524 -1.8040
 9463SOL    HW229075   6.800   1.093   4.862 -0.8643 -2.9500  1.5016
 9464SOL     OW29076   3.849   5.049   5.220 -0.0065 -0.2275  0.2810
 9464SOL    HW129077   3.851   5.101   5.139  3.0557 -1.2275 -0.4357
 9464SOL    HW229078   3.805   4.967   5.194 -1.1970  0.3750  0.3265
 9465SOL     OW29079   1.188   0.423   4.420  0.1039 -0.4303 -0.3745
 9465SOL    HW129080   1.101   0.444   4.385  0.1886 -0.8261 -0.8248
 9465SOL    HW229081   1.247   0.431   4.345  0.6626  1.0697  0.1771
 9466SOL     OW29082   7.156   7.004   4.075  0.1836 -0.4719  0.3381
 9466SOL    HW129083   7.070   6.963   4.074 -0.4647  0.7862 -1.7347
 9466SOL    HW229084   7.154   7.061   4.153 -1.1264  0.0181 -0.0201
 9467SOL     OW29085   2.802   5.168   6.026 -0.1021 -0.0199 -0.3455
 9467SOL    HW129086   2.728   5.111   6.050  0.9422 -1.2883 -0.0230
 9467SOL    HW229087   2.786   5.249   6.074  0.2793 -1.3602  2.2522
 9468SOL     OW29088   5.196   3.844   7.662  0.1407  0.2177 -0.1450
 9468SOL    HW129089   5.276   3.860   7.711  0.7950 -2.7733 -0.0450
 9468SOL    HW229090   5.127   3.837   7.729  0.8375 -2.7160  0.4126
 9469SOL     OW29091   1.745   4.780   3.706  0.4332  0.1839  0.8954
 9469SOL    HW129092   1.701   4.716   3.649 -1.4544  1.6999  0.5622
 9469SOL    HW229093   1.710   4.763   3.793  3.5435 -2.3366  1.8759
 9470SOL     OW29094   4.986   1.721   7.460  0.4315  0.3564 -0.0893
 9470SOL    HW129095   5.017   1.645   7.411  0.5790 -0.1492  0.7766
 9470SOL    HW229096   5.062   1.778   7.467  0.2265  0.7750 -1.0654
 9471SOL     OW29097   0.116   3.529   7.312 -0.2541 -0.2011  0.1811
 9471SOL    HW129098   0.157   3.494   7.391  1.3877 -0.0335 -0.5596
 9471SOL    HW229099   0.093   3.619   7.334  1.4456  0.2919  0.0822
 9472SOL     OW29100   4.939   2.041   4.765  0.4721  0.1194 -0.2011
 9472SOL    HW129101   4.863   2.043   4.707  0.3892  0.3138 -0.0886
 9472SOL    HW229102   5.013   2.023   4.707  0.2886 -0.5073 -0.2517
 9473SOL     OW29103   4.278   4.166   5.371  0.1292  0.2325  0.2327
 9473SOL    HW129104   4.371   4.154   5.393  0.1879  3.5107  2.5484
 9473SOL    HW229105   4.275   4.251   5.326 -1.7794  0.2972  0.4022
 9474SOL     OW29106   1.744   1.302   5.599  0.2460 -0.3084  0.3930
 9474SOL    HW129107   1.833   1.333   5.589  0.5857 -1.1722  0.5885
 9474SOL    HW229108   1.704   1.313   5.513 -0.3217  2.5700  0.9419
 9475SOL     OW29109   4.050   1.275   6.465 -0.1506  0.1254 -0.2474
 9475SOL    HW129110   3.979   1.320   6.512 -0.7315 -0.1327 -0.8611
 9475SOL    HW229111   4.054   1.189   6.506  2.0100  1.1773  2.0015
 9476SOL     OW29112   2.551   6.948   0.243  0.1178  0.6518  0.1768
 9476SOL    HW129113   2.546   7.038   0.211  1.5920  0.4334 -0.7584
 9476SOL    HW229114   2.500   6.897   0.179 -0.9131  0.8194  0.8328
 9477SOL     OW29115   7.285   5.635   4.715  0.0060  0.1577  0.4479
 9477SOL    HW129116   7.349   5.694   4.675 -1.5790  0.8931 -1.1202
 9477SOL    HW229117   7.315   5.547   4.692  0.2834  0.5003 -0.5240
 9478SOL     OW29118   5.771   4.109   6.467  0.3877 -0.1033  0.0998
 9478SOL    HW129119   5.687   4.147   6.491  0.1129 -1.0815  0.7616
 9478SOL    HW229120   5.804   4.071   6.548  1.0641 -0.4724 -0.3362
 9479SOL     OW29121   5.418   1.428   1.823  0.1658 -0.4513 -0.6692
 9479SOL    HW129122   5.425   1.361   1.755 -0.0115 -1.1299 -0.0315
 9479SOL    HW229123   5.363   1.388   1.891 -0.1859  0.4509 -0.4048
 9480SOL     OW29124   4.491   6.341   7.225 -0.3960 -0.7059  0.3206
 9480SOL    HW129125   4.417   6.283   7.244  0.7433 -1.9351  1.2193
 9480SOL    HW229126   4.567   6.282   7.221  0.4662  0.4500 -1.1479
 9481SOL     OW29127   3.613   6.358   6.518  0.6212 -0.1661  0.2758
 9481SOL    HW129128   3.565   6.354   6.436 -1.9822 -1.5559  1.7416
 9481SOL    HW229129   3.695   6.311   6.500  0.8594  0.9669 -1.8952
 9482SOL     OW29130   5.376   4.860   4.775  0.1559 -0.4965  0.1025
 9482SOL    HW129131   5.411   4.864   4.864 -0.0086 -2.6937  0.3407
 9482SOL    HW229132   5.397   4.771   4.745  1.6327  0.6575 -2.6874
 9483SOL     OW29133   0.658   7.552   1.179  0.3087 -0.1479 -0.3217
 9483SOL    HW129134   0.670   7.567   1.085 -0.2799 -2.2912 -0.8082
 9483SOL    HW229135   0.737   7.506   1.207  0.7226  0.9524  0.3888
 9484SOL     OW29136   1.926   2.682   2.182 -0.1527 -0.1301  0.3728
 9484SOL    HW129137   1.847   2.733   2.203 -2.2761 -2.9945 -0.0353
 9484SOL    HW229138   1.935   2.691   2.087 -0.2256 -0.1263  0.3659
 9485SOL     OW29139   4.155   4.113   7.246 -0.4487 -0.0206 -0.3403
 9485SOL    HW129140   4.231   4.109   7.189  0.1411  2.9546  0.0611
 9485SOL    HW229141   4.084   4.076   7.194  0.6963 -0.2161 -1.8132
 9486SOL     OW29142   2.552   4.329   6.823 -0.2820  0.1768  0.2925
 9486SOL    HW129143   2.496   4.314   6.900 -0.2671  1.4779  0.5805
 9486SOL    HW229144   2.491   4.347   6.752 -0.4164 -3.0722 -0.5931
 9487SOL     OW29145   0.546   1.144   6.546  0.3810  0.5111 -0.4095
 9487SOL    HW129146   0.554   1.226   6.499 -0.1470  0.5388 -0.4556
 9487SOL    HW229147   0.635   1.110   6.550  0.3569  0.2005 -1.9660
 9488SOL     OW29148   6.853   7.564   1.057  0.1635 -0.5251  0.0435
 9488SOL    HW129149   6.870   7.523   1.142 -0.6700  0.6456  0.8035
 9488SOL    HW229150   6.758   7.562   1.049 -0.2136  3.4342  1.3316
 9489SOL     OW29151   3.585   1.425   3.552  0.2881  0.1822  0.1112
 9489SOL    HW129152   3.625   1.496   3.502 -0.2105  0.4283  0.0620
 9489SOL    HW229153   3.608   1.443   3.643 -0.1714  0.6221  0.1397
 9490SOL     OW29154   1.505   3.538   4.786 -0.1588  0.0282  0.7972
 9490SOL    HW129155   1.538   3.575   4.704  1.6514  0.8034  1.8040
 9490SOL    HW229156   1.465   3.455   4.761  0.9441 -0.0687 -0.8010
 9491SOL     OW29157   6.200   5.805   0.010 -0.0605 -0.3859 -0.1765
 9491SOL    HW129158   6.203   5.885  -0.043  0.9285 -1.0606 -1.1613
 9491SOL    HW229159   6.262   5.821   0.081  0.3967 -0.4093 -0.5679
 9492SOL     OW29160   5.980   6.672   0.303  0.4841  0.1069 -0.1475
 9492SOL    HW129161   5.947   6.743   0.248  1.1788  0.7158  0.1915
 9492SOL    HW229162   5.940   6.593   0.268  0.8098  0.4942 -1.4326
 9493SOL     OW29163   7.771   5.569   1.628 -0.1821 -0.1478  0.4658
 9493SOL    HW129164   7.696   5.515   1.655 -0.0682 -0.6049 -0.0949
 9493SOL    HW229165   7.846   5.528   1.671 -0.2222  0.1694  0.8401
 9494SOL     OW29166   2.613   6.361   1.827  0.1816 -0.0373 -0.9619
 9494SOL    HW129167   2.556   6.376   1.751 -1.4740 -0.1033  0.2182
 9494SOL    HW229168   2.556   6.318   1.891  1.6526 -0.3490  0.1767
 9495SOL     OW29169   4.789   4.863   1.709  0.2227  0.0466  0.1050
 9495SOL    HW129170   4.806   4.886   1.617  1.7098  1.1080  0.5994
 9495SOL    HW229171   4.839   4.783   1.723  1.5231  0.8658  0.4217
 9496SOL     OW29172   5.052   6.138   0.810 -0.1743 -0.1011  0.5009
 9496SOL    HW129173   5.104   6.218   0.800  0.3350 -0.5359 -0.4324
 9496SOL    HW229174   5.116   6.069   0.828 -0.4686 -0.5378 -0.0767
 9497SOL     OW29175   3.255   2.649   4.618 -0.4521 -0.2819 -0.1102
 9497SOL    HW129176   3.307   2.599   4.681  0.0996 -1.9029 -1.7427
 9497SOL    HW229177   3.217   2.582   4.560 -1.9083  1.0666 -0.7757
 9498SOL     OW29178   1.580   2.019   2.092 -0.7152 -0.0282  0.3524
 9498SOL    HW129179   1.617   2.099   2.056 -1.7660  0.6651  0.7632
 9498SOL    HW229180   1.537   2.047   2.173 -0.4529 -1.1394  0.8945
 9499SOL     OW29181   5.651   5.865   0.738 -0.1087 -0.4094  0.2907
 9499SOL    HW129182   5.569   5.910   0.756 -0.1738 -0.3616 -0.1092
 9499SOL    HW229183   5.717   5.913   0.788 -0.2609 -0.2067  0.2953
 9500SOL     OW29184   7.484   6.382   5.244  0.1954  0.0617  0.1565
 9500SOL    HW129185   7.391   6.379   5.264  0.3889 -1.1281  0.9688
 9500SOL    HW229186   7.522   6.435   5.314  0.2815 -0.4429  0.4958
 9501SOL     OW29187   1.936   4.076   3.818  0.3597  0.0502 -0.2659
 9501SOL    HW129188   1.934   4.108   3.728 -0.6906  1.2266  0.1537
 9501SOL    HW229189   1.924   3.981   3.810 -0.3442  0.2154 -1.3350
 9502SOL     OW29190   0.178   5.289   6.107  0.0275 -0.1215  0.3124
 9502SOL    HW129191   0.094   5.258   6.074  0.9381  0.6480 -3.1815
 9502SOL    HW229192   0.156   5.351   6.176 -2.3332  0.6937 -1.0671
 9503SOL     OW29193   0.884   1.515   1.607 -0.0079  0.0123  0.2071
 9503SOL    HW129194   0.828   1.475   1.541 -0.2278 -0.0359  0.4224
 9503SOL    HW229195   0.841   1.598   1.629 -0.4841 -0.4333  1.0228
 9504SOL     OW29196   0.791   4.770   3.652 -0.3696 -0.7566  0.0443
 9504SOL    HW129197   0.772   4.743   3.562 -0.1615  0.4380 -0.3830
 9504SOL    HW229198   0.876   4.731   3.671  0.6313  0.7262 -1.0946
 9505SOL     OW29199   2.248   7.473   7.328  0.5135 -0.0670 -0.2363
 9505SOL    HW129200   2.279   7.527   7.401  1.3788  1.4224 -1.6317
 9505SOL    HW229201   2.272   7.384   7.353  1.0755  0.4340  1.1428
 9506SOL     OW29202   1.350   0.157   0.926 -1.0141 -0.4443 -0.4166
 9506SOL    HW129203   1.358   0.085   0.863 -1.6558 -0.2969 -0.6648
 9506SOL    HW229204   1.315   0.115   1.005  0.7833 -0.8381  0.2310
 9507SOL     OW29205   4.355   1.505   4.226 -0.4914 -0.9107 -0.0802
 9507SOL    HW129206   4.300   1.447   4.174 -3.2659  1.3526  0.0928
 9507SOL    HW229207   4.352   1.469   4.314 -1.3438 -1.0654 -0.1665
 9508SOL     OW29208   4.813   1.681   0.910  0.1487 -0.2834 -0.0433
 9508SOL    HW129209   4.798   1.684   0.815 -0.8276 -0.7588  0.0880
 9508SOL    HW229210   4.908   1.671   0.918  0.1192 -1.6018 -1.0063
 9509SOL     OW29211   6.732   0.710   4.438 -0.4123  0.2744 -0.1022
 9509SOL    HW129212   6.757   0.733   4.348 -0.9306  0.1120 -0.2910
 9509SOL    HW229213   6.773   0.624   4.453 -0.4595  0.2258 -0.2450
 9510SOL     OW29214   2.693   5.747   4.262  0.0449 -0.0223  0.5945
 9510SOL    HW129215   2.623   5.803   4.294  0.1126 -0.0579  0.8074
 9510SOL    HW229216   2.770   5.804   4.259 -0.3758  0.5176 -1.3895
 9511SOL     OW29217   5.469   0.767   3.267  0.2110 -0.3133  0.0005
 9511SOL    HW129218   5.412   0.797   3.195 -0.1337 -1.5914 -0.2786
 9511SOL    HW229219   5.508   0.686   3.234 -0.4796 -1.2998  1.4972
 9512SOL     OW29220   6.251   1.023   2.718 -0.2776  0.1545  0.2428
 9512SOL    HW129221   6.255   1.112   2.753 -1.5899  0.3267  0.0232
 9512SOL    HW229222   6.189   0.978   2.775  1.2982 -1.0101  1.1135
 9513SOL     OW29223   0.683   4.850   0.742  0.2611 -0.2321 -0.2374
 9513SOL    HW129224   0.705   4.931   0.789  1.7801  0.8055 -2.5722
 9513SOL    HW229225   0.767   4.808   0.725 -0.4164 -1.7071 -0.1803
 9514SOL     OW29226   3.164   6.743   2.344 -0.4426  0.0695 -0.2669
 9514SOL    HW129227   3.160   6.653   2.312  1.3646  0.0526 -0.5476
 9514SOL    HW229228   3.190   6.794   2.267 -0.8537  0.7568  0.0361
 9515SOL     OW29229   1.184   5.295   6.961  0.1330 -0.3674 -0.7945
 9515SOL    HW129230   1.221   5.372   6.918  0.3190 -0.6515 -1.1430
 9515SOL    HW229231   1.090   5.300   6.942 -0.1340  0.6902  0.6098
 9516SOL     OW29232   0.617   6.979   7.676 -0.1284  0.2055 -0.0333
 9516SOL    HW129233   0.588   6.909   7.617  0.3022  0.8619 -1.0620
 9516SOL    HW229234   0.620   6.938   7.762  0.0735 -1.0312 -0.6029
 9517SOL     OW29235   2.144   1.586   5.008 -0.1377 -0.0428  0.4396
 9517SOL    HW129236   2.179   1.499   4.985 -0.9726  0.1415 -1.6993
 9517SOL    HW229237   2.080   1.568   5.076  0.5364 -0.9528  0.8648
 9518SOL     OW29238   0.318   2.695   5.854 -0.6093 -0.5297 -0.0613
 9518SOL    HW129239   0.223   2.693   5.851 -0.5855 -1.7929 -0.4946
 9518SOL    HW229240   0.342   2.623   5.913  0.1419 -2.6065 -2.7119
 9519SOL     OW29241   7.732   4.484   2.464  0.1297  0.2466 -0.0839
 9519SOL    HW129242   7.804   4.512   2.519 -0.1128  0.8818 -0.0841
 9519SOL    HW229243   7.656   4.534   2.496 -0.8314 -1.9752  1.3967
 9520SOL     OW29244   3.375   2.909   6.066  0.3024  0.3025 -0.4467
 9520SOL    HW129245   3.408   2.827   6.103  1.4898  0.2542 -1.5275
 9520SOL    HW229246   3.422   2.977   6.115 -0.8207  0.3689  0.5783
 9521SOL     OW29247   5.881   4.662   1.597  0.3864  0.2297  0.1116
 9521SOL    HW129248   5.873   4.747   1.641  1.0015  0.9973 -1.2310
 9521SOL    HW229249   5.865   4.680   1.505  0.2261 -1.1793 -0.1667
 9522SOL     OW29250   3.461   6.182   4.042 -0.0728  0.7742  0.1126
 9522SOL    HW129251   3.502   6.098   4.061  0.8271  0.4171 -2.8951
 9522SOL    HW229252   3.372   6.173   4.075  0.0679 -1.2757  0.0649
 9523SOL     OW29253   6.684   0.620   1.584  0.4909  0.1282 -0.3808
 9523SOL    HW129254   6.748   0.569   1.535  1.0194 -0.1266  0.5433
 9523SOL    HW229255   6.733   0.694   1.620  0.5797 -0.7130  1.3430
 9524SOL     OW29256   1.048   2.684   5.697 -0.9616  0.8670  0.5420
 9524SOL    HW129257   1.082   2.674   5.608  1.2554  1.0819  1.2905
 9524SOL    HW229258   0.962   2.724   5.686 -0.2414  2.0026 -1.4578
 9525SOL     OW29259   3.903   6.284   3.654  0.5584  0.2699  0.2429
 9525SOL    HW129260   3.975   6.313   3.599 -0.0680  1.0620 -0.1811
 9525SOL    HW229261   3.936   6.293   3.744  0.9652  0.6793  0.0555
 9526SOL     OW29262   7.346   2.056   3.945  0.1278  0.0281  0.4683
 9526SOL    HW129263   7.332   2.097   3.860  1.0307  0.3824  0.4778
 9526SOL    HW229264   7.386   1.972   3.925 -1.0345 -0.5432  0.4842
 9527SOL     OW29265   0.738   5.909   2.441  0.6190  0.0197 -0.0221
 9527SOL    HW129266   0.776   5.827   2.470  0.5892 -0.1509 -0.4527
 9527SOL    HW229267   0.813   5.959   2.409  1.4689  2.0899  4.4125
 9528SOL     OW29268   5.133   4.771   1.504 -0.4365  0.6170 -0.6402
 9528SOL    HW129269   5.104   4.700   1.447  1.1202 -0.2018 -0.4427
 9528SOL    HW229270   5.188   4.826   1.447  0.2476  0.3854 -0.2106
 9529SOL     OW29271   0.562   0.249   3.968  0.3617  0.0762 -0.1212
 9529SOL    HW129272   0.547   0.159   3.997  1.6521 -0.9552 -2.4324
 9529SOL    HW229273   0.569   0.243   3.873  0.8468  2.5818 -0.3059
 9530SOL     OW29274   6.074   5.855   2.493 -0.3988  0.5607 -0.0964
 9530SOL    HW129275   6.115   5.849   2.407 -0.3237  1.2801 -0.1136
 9530SOL    HW229276   6.072   5.949   2.512 -1.6956  0.5198  0.0598
 9531SOL     OW29277   2.133   5.710   4.335  0.4145 -0.0550 -0.4737
 9531SOL    HW129278   2.138   5.703   4.239 -1.1358 -0.2114 -0.5703
 9531SOL    HW229279   2.043   5.682   4.356  0.1130  1.7400  0.8491
 9532SOL     OW29280   1.394   3.911   1.336 -0.0009 -0.2776 -0.8206
 9532SOL    HW129281   1.403   3.941   1.426 -0.6054 -0.5499 -0.6654
 9532SOL    HW229282   1.417   3.818   1.339  0.6552 -0.1341 -1.0795
 9533SOL     OW29283   2.131   4.520   2.139  0.2455  0.1219  0.1134
 9533SOL    HW129284   2.219   4.503   2.105  0.7599  0.6776  1.1292
 9533SOL    HW229285   2.143   4.529   2.234 -0.6282  1.9332  0.0947
 9534SOL     OW29286   7.701   4.890   3.821 -0.5546  0.1250 -0.6428
 9534SOL    HW129287   7.720   4.835   3.897  1.6111  0.3023 -0.9929
 9534SOL    HW229288   7.773   4.873   3.761 -1.8491  0.5160 -2.3920
 9535SOL     OW29289   7.675   2.681   4.716  0.6750  0.7806 -0.6909
 9535SOL    HW129290   7.702   2.771   4.735  0.9071  0.5391  0.1647
 9535SOL    HW229291   7.593   2.670   4.764  0.7906  0.4483 -0.5653
 9536SOL     OW29292   6.579   4.373   3.460  0.3402 -0.0783 -0.0877
 9536SOL    HW129293   6.542   4.285   3.454  0.3370 -0.1537  0.8751
 9536SOL    HW229294   6.503   4.431   3.451  0.1984 -0.1980  0.3145
 9537SOL     OW29295   0.347   2.570   2.970  0.6691 -0.1878 -0.3596
 9537SOL    HW129296   0.370   2.661   2.989 -1.1980  0.0255  1.1871
 9537SOL    HW229297   0.252   2.572   2.954  0.5400 -1.8955  0.0258
 9538SOL     OW29298   1.741   6.963   7.535  0.1375 -0.1870 -0.2574
 9538SOL    HW129299   1.721   7.042   7.584 -0.9745 -0.8053  0.3195
 9538SOL    HW229300   1.662   6.910   7.541  1.5209 -2.2282  1.0818
 9539SOL     OW29301   1.550   5.715   2.361  0.1081  0.1862  0.4016
 9539SOL    HW129302   1.626   5.661   2.386 -1.5739 -2.0990  0.9318
 9539SOL    HW229303   1.508   5.736   2.445 -1.1572 -0.6530 -0.0030
 9540SOL     OW29304   3.331   3.022   3.722  0.2678 -0.3392  0.9950
 9540SOL    HW129305   3.341   3.091   3.788 -1.8269  0.7029  0.3024
 9540SOL    HW229306   3.308   2.944   3.773  3.6218 -0.9254  1.8877
 9541SOL     OW29307   1.203   6.906   5.119  0.6261  0.8927  0.3130
 9541SOL    HW129308   1.226   6.816   5.144 -2.2858 -0.1670 -0.4078
 9541SOL    HW229309   1.239   6.917   5.032 -0.0642 -0.0738 -0.1084
 9542SOL     OW29310   5.817   0.419   3.711 -0.1553  0.1274  0.3031
 9542SOL    HW129311   5.898   0.427   3.763 -0.4351  2.1480  0.5021
 9542SOL    HW229312   5.765   0.353   3.757  1.8830 -2.2818 -0.5876
 9543SOL     OW29313   4.783   3.406   6.010  0.0766  0.0093  0.8021
 9543SOL    HW129314   4.812   3.439   5.925  1.7034 -3.2592 -0.0655
 9543SOL    HW229315   4.696   3.444   6.021  0.5288  1.9611 -1.4628
 9544SOL     OW29316   0.202   6.458   2.229 -0.1967 -0.2099 -0.0435
 9544SOL    HW129317   0.289   6.498   2.238  1.1709 -1.8344 -3.9048
 9544SOL    HW229318   0.183   6.462   2.135 -3.6621 -1.3318  0.4440
 9545SOL     OW29319   4.160   4.777   5.958 -0.3125 -0.0771  0.1020
 9545SOL    HW129320   4.084   4.815   6.002  0.3058 -0.3664  1.4588
 9545SOL    HW229321   4.213   4.852   5.932  0.5437  0.0822  2.1251
 9546SOL     OW29322   0.911   6.816   3.268  0.2669  0.4512 -0.3881
 9546SOL    HW129323   0.921   6.742   3.207  3.0550 -3.5425  4.2525
 9546SOL    HW229324   0.989   6.870   3.254  0.2512  0.3100 -1.0814
 9547SOL     OW29325   0.667   6.349   7.373 -0.0440 -0.4250 -0.1009
 9547SOL    HW129326   0.631   6.433   7.345 -3.8594 -1.7076  0.3728
 9547SOL    HW229327   0.693   6.363   7.464 -0.1707  0.3769 -0.1816
 9548SOL     OW29328   2.772   0.196   0.588  0.1832 -0.2902  0.1105
 9548SOL    HW129329   2.709   0.261   0.619 -0.5757 -1.4343  1.0902
 9548SOL    HW229330   2.791   0.222   0.498 -0.7571  0.7843  0.1911
 9549SOL     OW29331   2.283   1.503   4.705 -0.4656  0.2815  0.0378
 9549SOL    HW129332   2.294   1.583   4.757  0.7123 -0.2136  0.5910
 9549SOL    HW229333   2.295   1.432   4.768 -1.2254 -0.3412 -0.5025
 9550SOL     OW29334   7.464   6.533   4.996  0.2916 -0.5044 -1.2756
 9550SOL    HW129335   7.472   6.489   5.081 -0.4537 -1.0943 -1.5007
 9550SOL    HW229336   7.525   6.606   5.002 -0.5686  0.1561  0.2344
 9551SOL     OW29337   4.217   6.076   6.564  0.3084 -0.0947  0.3156
 9551SOL    HW129338   4.233   6.100   6.655  0.2725  1.5985 -0.0904
 9551SOL    HW229339   4.240   6.154   6.514 -0.2344 -0.7914 -1.0860
 9552SOL     OW29340   1.416   0.922   1.804 -0.2049 -0.4280  0.4764
 9552SOL    HW129341   1.462   0.860   1.748 -0.3356 -0.0139 -0.0926
 9552SOL    HW229342   1.327   0.886   1.813 -0.5502  0.1346 -0.5910
 9553SOL     OW29343   4.497   5.167   5.244 -0.1128  0.0106  0.5080
 9553SOL    HW129344   4.438   5.233   5.207  0.2507 -0.6213 -1.3167
 9553SOL    HW229345   4.439   5.108   5.292 -0.6853  0.5753  0.5275
 9554SOL     OW29346   7.587   6.909   1.345  0.6883  0.6295 -0.3318
 9554SOL    HW129347   7.671   6.919   1.300  1.4298 -0.0177  0.8670
 9554SOL    HW229348   7.609   6.865   1.427 -0.7218  1.1796  0.3632
 9555SOL     OW29349   1.866   0.118   0.858 -0.0950  0.1055 -0.2077
 9555SOL    HW129350   1.828   0.129   0.771  0.1870 -0.0504 -0.3534
 9555SOL    HW229351   1.961   0.112   0.842 -0.0954 -0.7034  0.0215
 9556SOL     OW29352   4.136   0.477   5.371  0.0038 -0.0466  0.3610
 9556SOL    HW129353   4.060   0.436   5.330 -1.2148  0.1267  2.3366
 9556SOL    HW229354   4.105   0.564   5.396  2.0355  1.5711 -2.2340
 9557SOL     OW29355   4.149   2.726   1.449 -0.2125  0.8857 -0.0615
 9557SOL    HW129356   4.166   2.711   1.542  0.5591  1.1766 -0.1492
 9557SOL    HW229357   4.149   2.821   1.440  1.8800  0.8781 -0.7127
 9558SOL     OW29358   2.466   6.206   0.847  0.0587 -0.6029  0.7900
 9558SOL    HW129359   2.473   6.193   0.942 -0.9362  1.2050  1.1797
 9558SOL    HW229360   2.415   6.132   0.816 -0.6808 -0.5854  1.8925
 9559SOL     OW29361   7.764   2.674   5.016 -0.7326 -0.1682 -0.3663
 9559SOL    HW129362   7.675   2.657   4.983 -0.9313  0.7849 -0.3510
 9559SOL    HW229363   7.774   2.769   5.009  0.6390 -0.3513 -1.2675
 9560SOL     OW29364   7.248   7.540   6.383  0.8191 -0.1725  0.1897
 9560SOL    HW129365   7.200   7.620   6.403  0.4300 -0.6947  1.3936
 9560SOL    HW229366   7.339   7.561   6.406  0.7933  0.0578  0.0895
 9561SOL     OW29367   3.745   2.795   0.732 -0.3007 -0.3572  0.2918
 9561SOL    HW129368   3.693   2.875   0.742 -1.3801 -0.7888 -1.3723
 9561SOL    HW229369   3.682   2.724   0.743  0.6828 -1.0321  1.9688
 9562SOL     OW29370   5.587   0.727   1.799  0.4913  0.0307 -0.1528
 9562SOL    HW129371   5.527   0.729   1.723  1.0463  0.3765 -0.5851
 9562SOL    HW229372   5.544   0.667   1.860  1.1691 -2.2422 -1.7261
 9563SOL     OW29373   1.797   6.189   7.062 -0.1221  0.6184 -0.1552
 9563SOL    HW129374   1.747   6.213   6.984  0.4590 -0.9991 -1.0678
 9563SOL    HW229375   1.745   6.121   7.104  0.2015  0.5662  0.1638
 9564SOL     OW29376   4.758   2.800   0.087  0.0825  0.2141  0.8522
 9564SOL    HW129377   4.851   2.826   0.085  0.1529  0.2993  2.7920
 9564SOL    HW229378   4.756   2.725   0.146 -1.1961  0.7923  1.5855
 9565SOL     OW29379   0.653   0.777   2.788  0.4144 -0.2289 -0.5447
 9565SOL    HW129380   0.708   0.839   2.837 -0.8951 -0.2678  1.0694
 9565SOL    HW229381   0.594   0.833   2.737 -0.0433 -0.1241  0.0778
 9566SOL     OW29382   3.573   2.640   6.428 -0.6429  0.0471  0.1686
 9566SOL    HW129383   3.622   2.721   6.440 -0.7926  0.0064  1.1438
 9566SOL    HW229384   3.612   2.578   6.489 -0.3794 -0.7008 -0.7321
 9567SOL     OW29385   7.476   6.668   0.968 -0.0610  0.0624  0.1686
 9567SOL    HW129386   7.424   6.587   0.969  0.2516 -0.1318  1.2164
 9567SOL    HW229387   7.423   6.729   0.916  0.1448 -1.0857 -1.4861
 9568SOL     OW29388   7.731   1.306   5.121 -0.0282 -0.1713  0.2438
 9568SOL    HW129389   7.759   1.234   5.064 -0.1012  1.1623 -1.5930
 9568SOL    HW229390   7.654   1.273   5.166  0.7554 -1.7100  0.5237
 9569SOL     OW29391   5.591   1.757   0.904  0.4672  0.0293  0.6194
 9569SOL    HW129392   5.558   1.785   0.989  1.0938  3.6512 -0.1571
 9569SOL    HW229393   5.682   1.788   0.902 -0.3747  2.8713 -2.3662
 9570SOL     OW29394   1.973   3.675   7.685 -0.1602 -0.1782  0.1503
 9570SOL    HW129395   2.063   3.708   7.679 -0.3982  0.9117  1.7940
 9570SOL    HW229396   1.929   3.710   7.608  0.6100  0.0034 -0.2173
 9571SOL     OW29397   3.627   7.647   1.525  0.1596 -0.2440  0.0493
 9571SOL    HW129398   3.682   7.705   1.473 -2.0168  1.5760 -0.3925
 9571SOL    HW229399   3.636   7.680   1.615 -0.4767  0.3329 -0.0865
 9572SOL     OW29400   6.887   0.310   0.471 -0.2197 -0.0578  0.4866
 9572SOL    HW129401   6.817   0.256   0.507  0.0672 -0.2537  0.7618
 9572SOL    HW229402   6.932   0.252   0.409  1.0442 -0.6610  1.9121
 9573SOL     OW29403   5.133   2.469   6.144  0.0597  0.7515 -0.2251
 9573SOL    HW129404   5.124   2.397   6.206 -1.5247  1.0402 -0.0770
 9573SOL    HW229405   5.188   2.433   6.074  1.1087  0.1294  0.8838
 9574SOL     OW29406   4.025   3.765   2.305 -0.1545 -0.4544 -0.1954
 9574SOL    HW129407   4.056   3.840   2.255 -0.4757 -0.0732  0.1669
 9574SOL    HW229408   4.011   3.697   2.240  2.2618 -0.9441 -0.2829
 9575SOL     OW29409   7.656   2.419   6.109  0.4911 -0.1978  0.1845
 9575SOL    HW129410   7.734   2.457   6.149  0.3949  1.2890 -0.9477
 9575SOL    HW229411   7.689   2.365   6.038  0.6238 -2.3174  1.7494
 9576SOL     OW29412   0.967   0.086   6.220 -0.3250 -0.0048  0.0314
 9576SOL    HW129413   1.051   0.046   6.200  0.5075  1.9922 -0.7259
 9576SOL    HW229414   0.988   0.177   6.242 -2.2424  0.4703  0.1124
 9577SOL     OW29415   3.409   3.916   6.028 -0.2419  0.6320  0.1330
 9577SOL    HW129416   3.354   3.916   6.107  0.2249 -0.0507  0.4700
 9577SOL    HW229417   3.390   3.832   5.986 -0.4851  0.9918 -0.4858
 9578SOL     OW29418   0.439   2.722   6.897  0.4058 -0.1045  0.1902
 9578SOL    HW129419   0.359   2.760   6.934  0.4766  0.5311 -0.2773
 9578SOL    HW229420   0.435   2.629   6.918  0.1711  0.1450  1.2834
 9579SOL     OW29421   2.893   0.147   5.682 -0.5461 -0.6761  0.4026
 9579SOL    HW129422   2.935   0.087   5.620  0.3392 -0.3811  0.7180
 9579SOL    HW229423   2.881   0.228   5.632  0.4501 -0.3381  0.7122
 9580SOL     OW29424   5.980   3.588   1.916 -0.4061 -0.0827  0.2791
 9580SOL    HW129425   5.954   3.595   1.824 -1.0671  1.0958  0.5314
 9580SOL    HW229426   5.920   3.522   1.952 -1.1858  0.5538  0.1933
 9581SOL     OW29427   0.918   2.846   7.531 -0.9046  0.2120 -0.1573
 9581SOL    HW129428   0.951   2.882   7.614 -0.0194  0.7898 -0.7397
 9581SOL    HW229429   0.942   2.911   7.465 -2.4287  0.2060 -0.7573
 9582SOL     OW29430   3.934   3.202   7.253  0.7831 -0.0937 -0.2114
 9582SOL    HW129431   3.980   3.194   7.169 -1.2045 -0.1555 -1.3787
 9582SOL    HW229432   3.893   3.116   7.266 -0.1540  0.3739  0.0265
 9583SOL     OW29433   1.603   4.769   3.924 -0.2232 -0.2459  0.2594
 9583SOL    HW129434   1.508   4.770   3.916 -0.4731 -2.4232  2.0263
 9583SOL    HW229435   1.622   4.831   3.995 -0.4500 -0.6967  0.7176
 9584SOL     OW29436   3.025   4.144   5.142 -0.2749 -0.3365  0.0759
 9584SOL    HW129437   3.012   4.049   5.148  0.3553 -0.4279  0.1242
 9584SOL    HW229438   2.942   4.181   5.168 -0.7917 -0.8863 -0.7431
 9585SOL     OW29439   7.497   4.663   2.521  0.0013  0.0428  0.3757
 9585SOL    HW129440   7.407   4.638   2.500  0.3088 -0.6105 -0.2080
 9585SOL    HW229441   7.512   4.743   2.470  0.2378 -0.6891 -0.7468
 9586SOL     OW29442   4.487   3.455   0.366 -0.1692  0.2153 -0.1438
 9586SOL    HW129443   4.401   3.495   0.354 -0.0189  0.4317 -0.5257
 9586SOL    HW229444   4.470   3.361   0.358 -0.7662  0.0537  2.2354
 9587SOL     OW29445   5.295   6.602   5.530 -0.0874 -0.3538 -0.0585
 9587SOL    HW129446   5.364   6.607   5.597  0.1246 -0.8807 -0.2361
 9587SOL    HW229447   5.342   6.583   5.449 -0.3027  0.6442 -0.4368
 9588SOL     OW29448   4.402   0.172   3.297  0.2819  0.1668  0.0707
 9588SOL    HW129449   4.389   0.077   3.303  0.1088  0.1947  0.1463
 9588SOL    HW229450   4.338   0.209   3.358  0.6536  0.3157  0.3672
 9589SOL     OW29451   3.165   6.305   0.554  0.4771  0.4827  0.4786
 9589SOL    HW129452   3.227   6.233   0.541 -0.7100 -0.4189 -0.5103
 9589SOL    HW229453   3.127   6.288   0.641 -0.0901 -0.3588  0.0871
 9590SOL     OW29454   7.133   5.924   2.953 -0.1600 -0.4703  0.1216
 9590SOL    HW129455   7.203   5.979   2.987  0.7046 -1.4934  0.0505
 9590SOL    HW229456   7.076   5.909   3.028  0.9637 -1.5300  0.7998
 9591SOL     OW29457   2.560   4.549   7.040 -0.0399  0.2242  0.3742
 9591SOL    HW129458   2.578   4.635   7.078  1.2432 -1.4692  4.1195
 9591SOL    HW229459   2.623   4.542   6.968  1.3508  1.6562  1.3640
 9592SOL     OW29460   4.883   1.893   7.251  0.5969 -0.6801  0.2351
 9592SOL    HW129461   4.924   1.843   7.322 -0.6215  0.7825  2.0859
 9592SOL    HW229462   4.909   1.984   7.268 -0.2864 -0.2181 -0.7915
 9593SOL     OW29463   2.854   1.312   6.315 -0.8027 -0.4237  0.2841
 9593SOL    HW129464   2.787   1.247   6.335 -2.5740  1.1266 -0.2375
 9593SOL    HW229465   2.834   1.386   6.372 -0.9854  0.9543 -1.4655
 9594SOL     OW29466   2.605   6.193   3.860 -0.0412 -0.4420 -0.2995
 9594SOL    HW129467   2.599   6.136   3.783 -0.1254 -0.0606 -0.5800
 9594SOL    HW229468   2.633   6.135   3.931 -1.2566 -1.0710 -0.3132
 9595SOL     OW29469   1.150   0.445   1.943  0.0971 -0.5763  0.0183
 9595SOL    HW129470   1.139   0.528   1.990  0.7263  0.3785 -1.4268
 9595SOL    HW229471   1.082   0.388   1.979 -0.5070  0.6366  0.8945
 9596SOL     OW29472   3.837   7.355   5.709 -0.3026  0.3456  0.0692
 9596SOL    HW129473   3.866   7.428   5.762 -2.7019 -0.2676  2.4032
 9596SOL    HW229474   3.850   7.278   5.764 -2.7207 -0.3412 -0.2119
 9597SOL     OW29475   3.194   6.389   5.247  0.0681 -0.2499  0.4629
 9597SOL    HW129476   3.149   6.416   5.167  1.2342  1.1554  0.2439
 9597SOL    HW229477   3.277   6.352   5.218  1.1570  1.6039  1.0169
 9598SOL     OW29478   3.682   5.677   6.918  0.4099  0.2996  0.2702
 9598SOL    HW129479   3.665   5.688   7.012 -1.4532  1.8628 -0.1948
 9598SOL    HW229480   3.642   5.593   6.896  0.5732  0.0778  0.7986
 9599SOL     OW29481   6.488   7.250   6.491 -0.1023 -0.0463  0.1859
 9599SOL    HW129482   6.564   7.286   6.537  0.2018 -1.3797  0.8002
 9599SOL    HW229483   6.491   7.290   6.405  0.9974  0.3490  0.3848
 9600SOL     OW29484   5.783   7.518   0.356 -0.6460  0.2442  0.4608
 9600SOL    HW129485   5.840   7.479   0.290 -0.0461  0.8270  0.6159
 9600SOL    HW229486   5.823   7.603   0.374 -0.8451  0.1392  1.4930
 9601SOL     OW29487   0.741   4.178   1.645  0.0940  0.1720  0.1224
 9601SOL    HW129488   0.787   4.228   1.578 -0.2263 -0.1357 -0.3360
 9601SOL    HW229489   0.803   4.172   1.717  1.0927 -0.9071 -0.7820
 9602SOL     OW29490   3.418   7.630   6.062 -0.1677 -0.1530 -0.0376
 9602SOL    HW129491   3.444   7.542   6.032 -0.0687 -0.0991 -0.1105
 9602SOL    HW229492   3.477   7.650   6.134  0.3910  0.2195 -0.5931
 9603SOL     OW29493   1.835   4.680   4.466 -0.2336  0.3336  0.3401
 9603SOL    HW129494   1.862   4.595   4.503 -2.5320  0.2942  2.1865
 9603SOL    HW229495   1.915   4.732   4.465  0.4841 -0.5584  3.0553
 9604SOL     OW29496   2.637   5.333   1.470 -0.1356 -0.1262  0.0450
 9604SOL    HW129497   2.700   5.384   1.522 -0.9627  0.1508  0.8140
 9604SOL    HW229498   2.678   5.247   1.460  1.5461  0.8234 -1.7681
 9605SOL     OW29499   5.010   2.828   5.176  0.7864  0.0327 -0.0622
 9605SOL    HW129500   5.054   2.762   5.122 -0.5057 -0.3243 -0.7376
 9605SOL    HW229501   4.986   2.897   5.114 -0.4015 -0.2133  0.0980
 9606SOL     OW29502   7.277   0.647   2.982 -0.4262 -0.3669  0.2037
 9606SOL    HW129503   7.355   0.647   3.037  0.1005 -0.5552 -0.5274
 9606SOL    HW229504   7.281   0.729   2.933 -0.2412 -0.7437 -0.4355
 9607SOL     OW29505   1.923   3.014   5.315 -0.2426 -0.1108  0.3799
 9607SOL    HW129506   1.991   3.046   5.374 -0.4306  1.0073  0.0185
 9607SOL    HW229507   1.843   3.016   5.368 -0.3690  0.6730  0.1848
 9608SOL     OW29508   0.109   4.902   5.384 -0.1991 -0.3500 -0.3968
 9608SOL    HW129509   0.172   4.970   5.406 -0.2664  0.0000 -1.2749
 9608SOL    HW229510   0.067   4.881   5.468  0.9064 -0.4213  0.1577
 9609SOL     OW29511   0.577   2.883   0.872 -0.4564 -1.0209 -0.1577
 9609SOL    HW129512   0.557   2.806   0.818 -1.0006 -0.7833 -0.3054
 9609SOL    HW229513   0.519   2.875   0.947 -0.0696 -1.0761  0.1344
 9610SOL     OW29514   2.212   6.893   4.680 -0.2362 -0.2417  0.4213
 9610SOL    HW129515   2.170   6.978   4.668 -0.5665 -0.4776 -0.1030
 9610SOL    HW229516   2.165   6.854   4.754 -2.5610 -1.4754 -1.5728
 9611SOL     OW29517   3.304   5.804   4.108  0.6332 -0.7576 -0.0817
 9611SOL    HW129518   3.267   5.846   4.031  0.7174  0.5677  0.5718
 9611SOL    HW229519   3.228   5.779   4.161  0.6035 -0.0759  0.2093
 9612SOL     OW29520   5.979   5.723   2.835 -0.2390  0.2019 -0.4237
 9612SOL    HW129521   6.053   5.777   2.862 -0.7286  1.6501 -1.8352
 9612SOL    HW229522   5.976   5.653   2.900 -1.2600  3.3085  3.1802
 9613SOL     OW29523   7.233   4.964   2.562  0.4109 -0.0366 -0.0176
 9613SOL    HW129524   7.281   5.006   2.633 -1.3175  0.8119  0.7100
 9613SOL    HW229525   7.191   5.037   2.516  0.1451 -0.7123 -0.8647
 9614SOL     OW29526   5.833   3.703   1.695 -0.3905  0.0043  0.3215
 9614SOL    HW129527   5.756   3.665   1.736 -0.7570  0.1980 -0.1766
 9614SOL    HW229528   5.799   3.769   1.635  0.1560  0.0413  0.0407
 9615SOL     OW29529   0.976   4.843   6.981 -0.4270  0.0430  0.0765
 9615SOL    HW129530   0.906   4.790   7.019 -0.5134 -0.9016 -1.3158
 9615SOL    HW229531   1.031   4.868   7.055 -1.0325 -1.0254  0.9074
 9616SOL     OW29532   5.432   3.324   5.433 -0.3711 -0.0879 -0.1079
 9616SOL    HW129533   5.493   3.251   5.418 -0.7756  0.0352 -3.1398
 9616SOL    HW229534   5.349   3.293   5.395 -1.7156  0.5001  2.1600
 9617SOL     OW29535   0.896   3.259   7.107  0.3926  0.0828 -0.8138
 9617SOL    HW129536   0.927   3.171   7.127  1.8167  0.8661  0.6204
 9617SOL    HW229537   0.801   3.253   7.117  0.5395 -1.0928  0.1268
 9618SOL     OW29538   4.505   2.519   7.305 -0.4519  0.2263 -0.0935
 9618SOL    HW129539   4.561   2.568   7.244 -1.6556  0.9867 -0.6174
 9618SOL    HW229540   4.447   2.585   7.342 -0.4076 -0.4098  1.1342
 9619SOL     OW29541   4.159   6.174   6.215 -0.6692 -0.1839  0.2350
 9619SOL    HW129542   4.173   6.239   6.284  0.9793 -1.6461  1.3777
 9619SOL    HW229543   4.227   6.193   6.150  0.3286 -1.1711  0.9458
 9620SOL     OW29544   5.480   1.238   7.138 -0.0230 -0.3601 -0.3023
 9620SOL    HW129545   5.500   1.147   7.157 -1.8169 -0.8873 -0.7450
 9620SOL    HW229546   5.500   1.285   7.219 -0.9529 -1.4673  0.5979
 9621SOL     OW29547   2.067   3.805   4.840 -0.2163  0.5327 -0.5575
 9621SOL    HW129548   1.984   3.763   4.820 -0.7271 -1.1937  3.8771
 9621SOL    HW229549   2.127   3.732   4.857  0.1109  1.4332  3.0208
 9622SOL     OW29550   0.296   3.524   0.363 -0.2007 -0.1255 -0.3686
 9622SOL    HW129551   0.229   3.460   0.336  1.1727 -2.0230  0.5274
 9622SOL    HW229552   0.293   3.523   0.458  1.4628 -0.6641 -0.2960
 9623SOL     OW29553   0.965   4.014   3.728 -0.5414 -0.2248  0.3220
 9623SOL    HW129554   0.976   3.931   3.775  1.7228  0.9741  2.1224
 9623SOL    HW229555   0.904   4.064   3.782  1.6684  0.9567  1.9086
 9624SOL     OW29556   0.673   3.428   4.010 -0.9297  0.2864  0.0295
 9624SOL    HW129557   0.580   3.430   4.034 -0.7298  0.5613  0.7837
 9624SOL    HW229558   0.714   3.374   4.077  0.0264  2.9596  1.7417
 9625SOL     OW29559   6.258   6.825   0.293 -0.2873  0.2004 -0.0554
 9625SOL    HW129560   6.208   6.744   0.308  0.4599  0.1047  2.3978
 9625SOL    HW229561   6.193   6.895   0.300 -0.4258 -0.0285  1.0777
 9626SOL     OW29562   1.026   0.022   2.534  0.4431 -0.2190 -0.8024
 9626SOL    HW129563   1.107   0.054   2.493 -0.1460  0.0691 -1.7803
 9626SOL    HW229564   1.047  -0.065   2.566  0.7833 -0.6647 -2.2035
 9627SOL     OW29565   4.601   7.236   7.284 -0.0491  0.5549 -0.6802
 9627SOL    HW129566   4.560   7.180   7.218 -0.6229 -0.4502  0.4858
 9627SOL    HW229567   4.540   7.309   7.294 -0.2030  0.4620 -0.9318
 9628SOL     OW29568   1.373   5.681   1.929 -0.4415 -0.2558 -0.3145
 9628SOL    HW129569   1.403   5.722   2.010 -3.2778  0.9275  0.2703
 9628SOL    HW229570   1.399   5.743   1.860  1.6575 -1.0959 -0.3602
 9629SOL     OW29571   6.556   1.927   1.150 -0.6883  0.2576  0.1662
 9629SOL    HW129572   6.626   1.886   1.201 -0.2757  0.2454 -0.3863
 9629SOL    HW229573   6.543   1.868   1.076  0.6739  1.5807 -1.2429
 9630SOL     OW29574   6.686   5.235   6.139  0.1360 -0.4761 -0.5101
 9630SOL    HW129575   6.709   5.263   6.051  1.5526  4.3492  1.0905
 9630SOL    HW229576   6.595   5.264   6.151  1.0004  2.0921  0.5355
 9631SOL     OW29577   1.493   0.271   6.763  0.2984 -0.2964  0.8331
 9631SOL    HW129578   1.489   0.176   6.752 -1.3109 -0.0909 -0.6844
 9631SOL    HW229579   1.583   0.294   6.740  0.5921 -1.3973  0.8400
 9632SOL     OW29580   3.649   2.297   1.820  0.0298 -0.0886  0.1434
 9632SOL    HW129581   3.645   2.382   1.778  1.2429  0.8444  1.7758
 9632SOL    HW229582   3.580   2.300   1.887 -0.6073 -0.8031 -0.4667
 9633SOL     OW29583   0.433   3.581   2.777 -0.1950  0.5231  0.4161
 9633SOL    HW129584   0.392   3.520   2.716  1.2851  0.5832 -0.7013
 9633SOL    HW229585   0.503   3.531   2.818 -0.7868  0.6691  1.6412
 9634SOL     OW29586   6.767   5.594   7.537  0.4101 -0.1280  0.1850
 9634SOL    HW129587   6.845   5.602   7.483  0.4169 -0.3792  0.1549
 9634SOL    HW229588   6.761   5.500   7.557 -1.2400 -0.5404 -1.8588
 9635SOL     OW29589   6.501   4.410   7.558  0.1528  0.3327  0.1161
 9635SOL    HW129590   6.476   4.387   7.647  1.0108 -0.1360  0.2481
 9635SOL    HW229591   6.471   4.500   7.547 -0.3361  0.2479  0.7308
 9636SOL     OW29592   6.308   0.918   0.079  0.6419 -0.0556  0.2203
 9636SOL    HW129593   6.392   0.879   0.105  0.0835 -0.5133  1.3964
 9636SOL    HW229594   6.288   0.877  -0.005  1.6670  0.1731 -0.1521
 9637SOL     OW29595   3.870   3.217   6.655  0.9320 -0.4079  0.4682
 9637SOL    HW129596   3.829   3.187   6.736 -3.2768 -1.4029 -1.7802
 9637SOL    HW229597   3.939   3.153   6.638  0.3780 -1.4842  2.0743
 9638SOL     OW29598   1.710   7.636   1.134 -0.0987  0.2750 -0.1858
 9638SOL    HW129599   1.653   7.713   1.136  0.7673  0.9443 -0.5300
 9638SOL    HW229600   1.783   7.660   1.191  0.1169 -0.3469 -0.1993
 9639SOL     OW29601   3.624   4.565   5.670  0.4264 -0.2359  0.7402
 9639SOL    HW129602   3.637   4.490   5.727  2.0544  0.3191  1.1576
 9639SOL    HW229603   3.595   4.635   5.728  0.1722 -0.1990  0.5681
 9640SOL     OW29604   0.144   2.128   6.993 -0.2217  0.8481  0.4578
 9640SOL    HW129605   0.071   2.151   6.936  0.5089 -1.5542 -1.6393
 9640SOL    HW229606   0.121   2.166   7.077 -2.7594  2.1234 -0.6821
 9641SOL     OW29607   6.644   2.875   5.907  0.0409 -0.5231  0.2928
 9641SOL    HW129608   6.570   2.814   5.900  0.6441 -1.6623  2.7819
 9641SOL    HW229609   6.611   2.948   5.960  0.5400 -0.8256  1.0381
 9642SOL     OW29610   0.832   5.177   0.002  0.5280  0.2006 -0.3392
 9642SOL    HW129611   0.800   5.260  -0.033 -0.1757 -0.0777 -0.3705
 9642SOL    HW229612   0.921   5.169  -0.032  0.4633  0.7628 -0.6431
 9643SOL     OW29613   3.345   6.571   2.480 -0.1928  0.1354 -0.1138
 9643SOL    HW129614   3.425   6.597   2.433  0.2231 -1.5667 -0.4497
 9643SOL    HW229615   3.290   6.531   2.412 -0.8746  0.3341  0.3162
 9644SOL     OW29616   1.498   5.116   3.230 -0.0918  0.0539  0.4919
 9644SOL    HW129617   1.474   5.069   3.309 -2.5655 -0.0032 -0.2008
 9644SOL    HW229618   1.489   5.052   3.160  0.0531  0.6136 -0.0520
 9645SOL     OW29619   0.612   2.265   5.743 -0.6279  0.1554  0.0768
 9645SOL    HW129620   0.672   2.333   5.712  0.5870 -1.4615 -1.2721
 9645SOL    HW229621   0.616   2.272   5.839  0.7903  0.8776 -0.0092
 9646SOL     OW29622   2.634   3.134   2.917 -0.1631 -0.1161  0.5036
 9646SOL    HW129623   2.694   3.155   2.845 -0.8096  1.7229  0.4527
 9646SOL    HW229624   2.692   3.109   2.989  0.6957  1.3623  0.3676
 9647SOL     OW29625   4.630   4.938   5.579  0.2932 -0.3867  0.1660
 9647SOL    HW129626   4.603   5.011   5.634 -1.8896 -1.5098  0.7185
 9647SOL    HW229627   4.660   4.978   5.498  0.2408  1.1431  0.8701
 9648SOL     OW29628   5.672   3.206   2.311  0.0775  0.3025 -0.1967
 9648SOL    HW129629   5.612   3.279   2.297  0.3226  0.2331 -1.8283
 9648SOL    HW229630   5.709   3.221   2.398 -0.9575  1.3095  0.0890
 9649SOL     OW29631   7.428   1.616   0.149  0.1583 -0.7781 -0.0784
 9649SOL    HW129632   7.494   1.567   0.100 -1.6299 -2.6501 -0.7557
 9649SOL    HW229633   7.349   1.611   0.096 -1.1781 -0.6618  1.7788
 9650SOL     OW29634   4.676   4.722   3.366  0.0530  0.5464  0.0664
 9650SOL    HW129635   4.605   4.762   3.316  1.0588  0.4253 -1.5558
 9650SOL    HW229636   4.640   4.709   3.454 -2.1540 -0.1126 -0.8549
 9651SOL     OW29637   5.487   4.229   2.800 -0.0838  0.0495 -0.1667
 9651SOL    HW129638   5.540   4.255   2.725  0.9972 -0.8666  0.2496
 9651SOL    HW229639   5.413   4.289   2.800  0.9656  1.3770 -0.7569
 9652SOL     OW29640   2.531   1.890   2.686  0.2126 -0.2815 -0.7525
 9652SOL    HW129641   2.535   1.939   2.605 -2.1518  0.6537 -0.3817
 9652SOL    HW229642   2.562   1.802   2.663 -0.1482  0.0448 -2.5874
 9653SOL     OW29643   3.239   0.534   2.224  0.3415  0.1666 -0.3860
 9653SOL    HW129644   3.277   0.607   2.176  0.6953  0.6085  0.5465
 9653SOL    HW229645   3.202   0.574   2.302  1.0510 -0.7279  0.4246
 9654SOL     OW29646   2.540   7.430   0.650 -0.3128 -0.3037  0.7487
 9654SOL    HW129647   2.535   7.342   0.687  0.0666 -0.0234  1.4824
 9654SOL    HW229648   2.582   7.418   0.565 -0.7545 -0.8974  0.6054
 9655SOL     OW29649   6.805   0.402   2.953 -0.4025  0.1103 -0.3839
 9655SOL    HW129650   6.897   0.416   2.931 -0.4427 -1.3683 -1.5897
 9655SOL    HW229651   6.797   0.433   3.044  1.5028 -0.6517  0.0806
 9656SOL     OW29652   6.749   7.078   1.653 -0.5699  0.3649  0.6207
 9656SOL    HW129653   6.819   7.016   1.676  0.3077  1.7097  1.8000
 9656SOL    HW229654   6.702   7.093   1.735 -1.6481  0.2129  0.0432
 9657SOL     OW29655   3.104   0.093   0.751  0.3036 -0.0585  0.4934
 9657SOL    HW129656   3.188   0.106   0.707  0.1981  0.6581  0.4940
 9657SOL    HW229657   3.062   0.179   0.750 -0.8110 -0.5766 -0.2664
 9658SOL     OW29658   6.765   7.258   3.017 -0.3760 -0.0853 -0.2793
 9658SOL    HW129659   6.679   7.295   3.035  0.0751  1.1594 -0.5971
 9658SOL    HW229660   6.812   7.327   2.970  1.1318 -0.3622  0.7355
 9659SOL     OW29661   4.738   4.005   1.798  0.5909 -0.4280  0.8164
 9659SOL    HW129662   4.709   4.084   1.844 -0.3077 -0.3368  0.1143
 9659SOL    HW229663   4.721   3.934   1.860  3.6976  0.1078  2.4713
 9660SOL     OW29664   5.283   4.623   5.908  0.5975  0.3619 -0.2750
 9660SOL    HW129665   5.285   4.647   6.001  0.1778  0.4610 -0.2887
 9660SOL    HW229666   5.190   4.624   5.885  0.6198 -0.5988 -0.4585
 9661SOL     OW29667   0.557   4.882   3.279  0.1936  0.3254  0.0396
 9661SOL    HW129668   0.582   4.886   3.186 -0.9630  0.1109 -0.3025
 9661SOL    HW229669   0.638   4.897   3.326  1.0756 -0.8618 -1.0033
 9662SOL     OW29670   3.915   1.618   5.695  0.3560  0.2314 -0.4091
 9662SOL    HW129671   3.859   1.695   5.707  0.9798  0.9451 -1.8504
 9662SOL    HW229672   3.994   1.639   5.745  1.0890  1.1741 -1.8982
 9663SOL     OW29673   3.771   5.670   0.104  0.1481  0.4201 -0.2517
 9663SOL    HW129674   3.707   5.625   0.049  0.0483  0.6951 -0.3622
 9663SOL    HW229675   3.733   5.667   0.192  0.5477 -0.4730 -0.0994
 9664SOL     OW29676   4.664   3.403   0.870 -0.6609  0.3014 -0.0430
 9664SOL    HW129677   4.643   3.437   0.783 -0.2196  0.9269  0.0847
 9664SOL    HW229678   4.689   3.312   0.855 -2.6870 -0.2608 -0.2969
 9665SOL     OW29679   0.941   5.301   6.854  0.1975  0.1346  0.4047
 9665SOL    HW129680   0.883   5.378   6.848  2.1438  1.6478 -0.0383
 9665SOL    HW229681   0.883   5.226   6.839 -1.5575  1.5909 -0.5166
 9666SOL     OW29682   7.446   4.601   4.541 -0.4962  0.0395  0.2864
 9666SOL    HW129683   7.384   4.641   4.480  0.6210  1.6090  0.1243
 9666SOL    HW229684   7.445   4.658   4.618 -0.0989 -0.5750  0.7608
 9667SOL     OW29685   4.780   0.583   7.767  0.2411 -0.3769 -0.0051
 9667SOL    HW129686   4.689   0.569   7.743  0.7850 -0.6023 -2.2462
 9667SOL    HW229687   4.812   0.497   7.795 -0.5512 -0.0054  2.1923
 9668SOL     OW29688   0.694   1.567   4.381  0.1706 -0.2185 -0.0458
 9668SOL    HW129689   0.618   1.509   4.389  0.4441 -0.5487  0.2046
 9668SOL    HW229690   0.687   1.604   4.294  0.2130 -0.9582 -0.3727
 9669SOL     OW29691   6.416   2.612   2.831  0.2027  0.3364  0.1919
 9669SOL    HW129692   6.346   2.673   2.856 -0.0684  0.1260 -0.0480
 9669SOL    HW229693   6.456   2.653   2.754  0.7184  0.7406  0.6702
 9670SOL     OW29694   4.652   6.359   5.705 -0.1985  0.5480  0.3541
 9670SOL    HW129695   4.715   6.304   5.750 -0.3352 -0.4436 -0.6189
 9670SOL    HW229696   4.567   6.336   5.743 -0.4230 -0.8937 -0.8985
 9671SOL     OW29697   0.378   2.700   1.910 -0.2842 -0.9317 -0.2808
 9671SOL    HW129698   0.455   2.670   1.958 -0.4784  1.8557  2.0256
 9671SOL    HW229699   0.305   2.657   1.953 -0.2396 -0.8921 -0.1639
 9672SOL     OW29700   1.605   0.693   4.658  0.0356 -0.2725  0.5106
 9672SOL    HW129701   1.645   0.615   4.619  0.6681  0.1291  0.3477
 9672SOL    HW229702   1.651   0.705   4.741 -2.9060 -2.5461  2.7146
 9673SOL     OW29703   1.813   4.446   7.338 -0.2811  0.4005  0.3352
 9673SOL    HW129704   1.728   4.489   7.348 -0.8752 -0.7781  0.4964
 9673SOL    HW229705   1.801   4.387   7.263  0.2175 -0.1922  0.7156
 9674SOL     OW29706   1.739   5.599   0.402 -0.0150  0.1948  0.0895
 9674SOL    HW129707   1.698   5.657   0.465 -0.6959 -1.2307  1.0264
 9674SOL    HW229708   1.681   5.601   0.326  0.8539  1.9864 -0.5654
 9675SOL     OW29709   3.968   7.112   1.539 -0.3934  0.5915  0.4632
 9675SOL    HW129710   3.899   7.178   1.540 -1.1508 -0.1850  1.5552
 9675SOL    HW229711   4.048   7.161   1.555 -0.7880  1.3881  0.0655
 9676SOL     OW29712   4.030   1.839   3.504  0.3228  0.0906  0.2214
 9676SOL    HW129713   4.024   1.893   3.425 -1.0554 -0.2872  0.0350
 9676SOL    HW229714   4.058   1.754   3.473 -1.4916 -0.4414 -0.0983
 9677SOL     OW29715   1.076   2.728   1.946  0.0606 -0.6208  0.0910
 9677SOL    HW129716   0.991   2.745   1.988  0.9439 -0.9932  2.1283
 9677SOL    HW229717   1.126   2.809   1.960  0.3440 -0.7127 -0.3625
 9678SOL     OW29718   4.282   2.929   7.169  0.1473 -0.0543  0.0815
 9678SOL    HW129719   4.242   2.955   7.253 -0.1166  0.3545 -0.1638
 9678SOL    HW229720   4.363   2.885   7.193 -0.5463 -1.0880  0.6049
 9679SOL     OW29721   5.205   3.920   6.225 -0.1651  0.3777 -0.1078
 9679SOL    HW129722   5.206   3.840   6.277  0.6650  0.4948  0.0643
 9679SOL    HW229723   5.260   3.900   6.149 -0.4422  0.5887 -0.3669
 9680SOL     OW29724   4.053   1.926   6.741  0.2660 -0.6100  0.0741
 9680SOL    HW129725   4.075   1.920   6.834  0.3261 -0.4449  0.0707
 9680SOL    HW229726   4.132   1.962   6.700 -0.0039 -0.0391  0.0561
 9681SOL     OW29727   6.414   4.326   5.661  0.0226  0.5643 -0.0155
 9681SOL    HW129728   6.439   4.398   5.719  0.6980  0.6310 -0.3745
 9681SOL    HW229729   6.467   4.252   5.691 -0.3555  0.3306  0.0806
 9682SOL     OW29730   2.968   3.256   1.899 -0.5714  0.2925  0.1036
 9682SOL    HW129731   3.046   3.245   1.953 -1.1446 -1.5562  0.6535
 9682SOL    HW229732   2.903   3.293   1.959 -0.0811  2.1140 -0.4302
 9683SOL     OW29733   2.616   6.530   3.469 -0.7050 -0.1826  0.5151
 9683SOL    HW129734   2.590   6.599   3.407 -0.9588 -1.5181 -0.9543
 9683SOL    HW229735   2.576   6.450   3.433  0.0033 -1.1865  1.8694
 9684SOL     OW29736   3.563   1.235   4.033 -0.0625  0.0514  0.3548
 9684SOL    HW129737   3.571   1.310   4.093  1.7444 -0.1273  0.3898
 9684SOL    HW229738   3.609   1.164   4.077 -0.7244 -0.7525 -0.2221
 9685SOL     OW29739   7.665   1.091   1.522  0.7560  0.1315  0.0107
 9685SOL    HW129740   7.755   1.100   1.489  0.2385 -0.3186 -1.6066
 9685SOL    HW229741   7.662   1.004   1.562  1.0143  0.1248  0.0187
 9686SOL     OW29742   7.003   3.668   0.149  0.2436  0.6322  0.5128
 9686SOL    HW129743   7.053   3.647   0.228  2.1174 -1.8712 -1.1541
 9686SOL    HW229744   7.035   3.754   0.123 -1.6090  2.2854  3.2189
 9687SOL     OW29745   3.833   3.519   1.750  0.6454 -0.9925 -0.2650
 9687SOL    HW129746   3.750   3.486   1.784  0.5021 -0.0091  0.3711
 9687SOL    HW229747   3.822   3.614   1.748  1.3762 -0.9116 -1.1900
 9688SOL     OW29748   1.745   1.460   6.820  0.2503 -0.8601  0.2270
 9688SOL    HW129749   1.715   1.455   6.729 -1.0376 -3.1098  0.6900
 9688SOL    HW229750   1.840   1.450   6.815  0.4564  1.0748 -0.9439
 9689SOL     OW29751   3.334   5.722   3.021 -0.0015 -0.0076  0.5584
 9689SOL    HW129752   3.430   5.718   3.015 -0.0343 -1.7448  0.6696
 9689SOL    HW229753   3.312   5.664   3.094 -1.2051 -0.6333 -0.2702
 9690SOL     OW29754   2.974   4.196   6.646 -0.4687 -0.6547  0.8625
 9690SOL    HW129755   2.930   4.261   6.701  0.7784  0.9644  0.0510
 9690SOL    HW229756   3.064   4.192   6.681 -0.3183 -1.3752  0.4154
 9691SOL     OW29757   5.269   4.105   1.620 -0.1164  0.5989  0.0003
 9691SOL    HW129758   5.321   4.184   1.607  0.0066  0.5000 -0.1090
 9691SOL    HW229759   5.198   4.132   1.678  1.1924  0.2415  1.8200
 9692SOL     OW29760   5.782   0.766   5.894 -0.3183  0.0982 -0.9192
 9692SOL    HW129761   5.720   0.726   5.833 -0.9412 -0.9349  0.3582
 9692SOL    HW229762   5.851   0.701   5.904  0.4204  0.7784 -1.4551
 9693SOL     OW29763   3.103   7.457   1.578 -0.6028  0.1268  0.2757
 9693SOL    HW129764   3.127   7.364   1.574 -0.1867  0.2414  0.1075
 9693SOL    HW229765   3.166   7.501   1.520 -1.5150  0.3669 -0.5558
 9694SOL     OW29766   7.148   6.644   1.508  0.4084  0.0025  0.4517
 9694SOL    HW129767   7.215   6.647   1.440  2.9038 -0.0558  2.6856
 9694SOL    HW229768   7.139   6.735   1.537 -1.4818  0.2066 -0.6208
 9695SOL     OW29769   0.109   3.054   0.297  0.1217  0.0095 -0.2572
 9695SOL    HW129770   0.024   3.061   0.256 -1.2207  0.4353  2.3884
 9695SOL    HW229771   0.146   2.973   0.262 -1.0526  0.1454 -1.9227
 9696SOL     OW29772   1.355   3.223   5.894 -0.0835  0.1179  0.2747
 9696SOL    HW129773   1.395   3.287   5.836  1.3121  0.7303  1.8352
 9696SOL    HW229774   1.352   3.265   5.979 -4.6912  0.3373  0.2646
 9697SOL     OW29775   4.448   2.957   1.353 -0.2067  0.3751  0.0136
 9697SOL    HW129776   4.433   3.052   1.347 -0.9721  0.1777 -1.5969
 9697SOL    HW229777   4.503   2.937   1.277 -0.3935 -0.5324  0.1100
 9698SOL     OW29778   5.606   0.336   0.033  0.1688 -0.1392  1.0201
 9698SOL    HW129779   5.620   0.429   0.015  0.2818 -0.5650 -1.4398
 9698SOL    HW229780   5.690   0.307   0.069  0.1503  0.6857  1.7750
 9699SOL     OW29781   4.577   2.994   7.297  0.0834  0.2406  0.3425
 9699SOL    HW129782   4.655   2.962   7.343  0.5634  2.2476  1.0242
 9699SOL    HW229783   4.611   3.052   7.229 -0.8073  1.3748  0.8340
 9700SOL     OW29784   5.882   3.629   5.021  0.0411 -0.7155 -0.2458
 9700SOL    HW129785   5.828   3.695   5.064 -1.4971 -2.2855  0.3213
 9700SOL    HW229786   5.930   3.587   5.093 -1.1085 -2.0739 -0.2444
 9701SOL     OW29787   5.724   4.449   0.825  0.2618 -0.0762 -0.3865
 9701SOL    HW129788   5.758   4.380   0.882 -0.5684 -0.0774  0.1227
 9701SOL    HW229789   5.631   4.455   0.847  0.0557  0.3402 -1.3259
 9702SOL     OW29790   2.000   2.017   7.335 -0.0777 -0.0739  0.3627
 9702SOL    HW129791   2.002   1.956   7.408  1.8992  0.7941  1.1315
 9702SOL    HW229792   1.932   2.080   7.358 -0.2921 -0.4827  0.8653
 9703SOL     OW29793   2.430   3.864   4.533 -0.0727 -0.1474 -0.4832
 9703SOL    HW129794   2.372   3.898   4.602  0.2355  1.5329 -1.0093
 9703SOL    HW229795   2.371   3.824   4.470 -0.5312  0.1903 -0.2745
 9704SOL     OW29796   3.690   6.026   2.448  0.0687  0.0415 -0.0515
 9704SOL    HW129797   3.669   6.027   2.355  1.7122 -1.0171 -0.4743
 9704SOL    HW229798   3.636   5.954   2.483  1.6251 -1.5726 -0.8086
 9705SOL     OW29799   3.647   7.195   0.877 -0.1619  0.2065 -0.2176
 9705SOL    HW129800   3.569   7.228   0.923  0.6830 -0.1229  1.5341
 9705SOL    HW229801   3.706   7.270   0.874 -0.6827  0.5851 -1.9546
 9706SOL     OW29802   4.620   4.178   1.998  0.9334  0.4176  0.2039
 9706SOL    HW129803   4.673   4.257   1.988 -0.2148  1.1177 -0.5853
 9706SOL    HW229804   4.565   4.196   2.075  0.6227  0.4171 -0.0175
 9707SOL     OW29805   1.344   6.454   0.192 -0.1036  0.7162  0.0273
 9707SOL    HW129806   1.373   6.457   0.100  0.2600  1.6859  0.1633
 9707SOL    HW229807   1.419   6.486   0.242 -0.4767  0.6697  0.6279
 9708SOL     OW29808   1.070   7.214   5.427  0.2443 -0.3200 -0.0972
 9708SOL    HW129809   1.067   7.266   5.507  0.3183 -1.2663  0.5321
 9708SOL    HW229810   1.026   7.268   5.361  2.8608  1.8277 -0.2362
 9709SOL     OW29811   0.729   0.389   4.165 -0.1509  0.0183  0.1234
 9709SOL    HW129812   0.648   0.413   4.209 -0.2107  0.1341 -0.0497
 9709SOL    HW229813   0.701   0.335   4.091 -0.1674  1.0880 -0.6721
 9710SOL     OW29814   7.316   5.148   6.648  0.2726  0.3005 -0.2218
 9710SOL    HW129815   7.383   5.086   6.621  0.0564  0.0759 -0.2491
 9710SOL    HW229816   7.255   5.152   6.575  0.1776  0.3924 -0.1391
 9711SOL     OW29817   6.146   0.791   3.885 -0.7378 -0.2371  0.4757
 9711SOL    HW129818   6.062   0.799   3.840 -0.2046 -0.7804 -0.6630
 9711SOL    HW229819   6.204   0.852   3.838 -0.5607  0.3871  1.4589
 9712SOL     OW29820   4.525   3.395   4.049  0.0551  0.6107  0.4648
 9712SOL    HW129821   4.465   3.344   4.104 -0.0030  1.3418  1.0977
 9712SOL    HW229822   4.558   3.332   3.985 -0.6905 -0.0141  0.6720
 9713SOL     OW29823   4.483   1.580   1.217 -0.3020 -0.5707 -0.1091
 9713SOL    HW129824   4.472   1.659   1.163  0.2292 -1.5902 -1.7822
 9713SOL    HW229825   4.398   1.567   1.258 -0.6465  0.4109 -0.4821
 9714SOL     OW29826   6.195   0.313   3.026  0.1671  0.4697 -0.2470
 9714SOL    HW129827   6.261   0.288   2.960  1.9691  1.2812  1.1535
 9714SOL    HW229828   6.182   0.407   3.011 -0.9261  0.2589 -0.6926
 9715SOL     OW29829   6.962   3.807   3.289  0.0679 -0.2796  0.2149
 9715SOL    HW129830   6.892   3.742   3.283  0.3849 -0.7291  1.1925
 9715SOL    HW229831   6.926   3.886   3.248 -1.8158  0.1698  2.5137
 9716SOL     OW29832   3.352   1.326   2.096  0.7237 -0.5304  0.2406
 9716SOL    HW129833   3.309   1.274   2.164 -0.2712 -3.1334 -2.1772
 9716SOL    HW229834   3.285   1.388   2.068 -0.1283 -1.8068 -0.6802
 9717SOL     OW29835   6.339   0.357   3.742  0.0815  0.2905  0.0253
 9717SOL    HW129836   6.346   0.397   3.655  0.8977 -0.0608 -0.0849
 9717SOL    HW229837   6.350   0.429   3.803  0.2622  0.4291 -0.1690
 9718SOL     OW29838   2.747   5.094   1.508  0.3250 -0.0596 -0.3659
 9718SOL    HW129839   2.785   5.006   1.516  0.1534 -0.0568  0.5744
 9718SOL    HW229840   2.740   5.126   1.598  2.5892  1.8894 -0.8032
 9719SOL     OW29841   7.504   3.216   5.963  0.0020 -0.5130 -0.1588
 9719SOL    HW129842   7.571   3.161   5.922 -0.1471 -0.5960 -0.2949
 9719SOL    HW229843   7.421   3.173   5.940 -0.0841 -0.5348  0.1922
 9720SOL     OW29844   2.632   3.297   3.761 -0.1396 -0.0954  0.3016
 9720SOL    HW129845   2.727   3.295   3.750 -0.2884  1.4976 -2.1169
 9720SOL    HW229846   2.600   3.223   3.709 -0.2641 -0.4569  0.8806
 9721SOL     OW29847   0.527   5.529   7.295  0.0893 -0.0752 -0.3963
 9721SOL    HW129848   0.578   5.537   7.215  1.2019 -1.7385  0.1055
 9721SOL    HW229849   0.591   5.507   7.363 -0.9828  0.1677  0.7395
 9722SOL     OW29850   4.111   5.356   5.944 -0.0516  0.3481  0.4705
 9722SOL    HW129851   4.035   5.392   5.898 -2.1381 -1.9683  1.8724
 9722SOL    HW229852   4.149   5.431   5.990 -3.4799  1.1182  2.3527
 9723SOL     OW29853   1.651   0.004   4.972  0.2404 -0.3820  0.1673
 9723SOL    HW129854   1.579   0.054   4.933 -0.5255  0.1730  2.1696
 9723SOL    HW229855   1.698  -0.032   4.897 -0.0033  2.1847 -1.3327
 9724SOL     OW29856   5.972   2.149   4.381  0.8548 -0.0335  0.1269
 9724SOL    HW129857   5.939   2.238   4.369 -0.0425 -0.4663 -0.7316
 9724SOL    HW229858   5.960   2.131   4.475  1.3199  0.8413  0.3642
 9725SOL     OW29859   3.032   4.094   1.021  0.1793  0.1938 -0.1249
 9725SOL    HW129860   3.096   4.164   1.037 -0.0318  0.3338  0.1122
 9725SOL    HW229861   3.069   4.044   0.948  0.6740  0.1375  0.1587
 9726SOL     OW29862   3.138   0.033   4.627  0.2935  0.3364 -0.5777
 9726SOL    HW129863   3.073  -0.036   4.615 -0.3773  1.0748 -1.3243
 9726SOL    HW229864   3.112   0.077   4.708  0.6679 -0.2151 -0.1507
 9727SOL     OW29865   4.760   2.432   1.910 -0.4017  0.0819 -0.1328
 9727SOL    HW129866   4.694   2.411   1.976 -1.7224  1.9873 -0.7613
 9727SOL    HW229867   4.805   2.509   1.945  2.2813 -1.7481  0.7574
 9728SOL     OW29868   6.766   0.140   2.935 -0.2691  0.4155 -0.0770
 9728SOL    HW129869   6.773   0.231   2.962  1.8409 -0.1995  1.8505
 9728SOL    HW229870   6.853   0.103   2.954 -1.6066 -2.4346  1.0731
 9729SOL     OW29871   6.786   3.311   2.619 -0.2677  0.7673 -0.5276
 9729SOL    HW129872   6.756   3.375   2.555 -0.2433 -0.8983 -2.2994
 9729SOL    HW229873   6.853   3.357   2.669 -0.5717  2.2582 -1.4290
 9730SOL     OW29874   1.665   5.474   2.076 -0.0403  0.1437  0.0182
 9730SOL    HW129875   1.745   5.468   2.129  0.5650 -2.1731 -1.0177
 9730SOL    HW229876   1.655   5.567   2.057  0.4083  0.9448  3.0877
 9731SOL     OW29877   5.846   0.044   7.224 -0.1277 -0.0658  0.4436
 9731SOL    HW129878   5.846   0.081   7.136  3.0826  0.5554  0.5979
 9731SOL    HW229879   5.753   0.033   7.245 -1.0781  2.3268 -1.9326
 9732SOL     OW29880   7.735   2.010   3.131  0.1087 -0.3259 -0.3771
 9732SOL    HW129881   7.669   2.059   3.179 -0.5737  0.2448 -1.8494
 9732SOL    HW229882   7.805   1.996   3.195  0.3206  2.5200  0.1490
 9733SOL     OW29883   5.201   6.334   4.227 -0.0916 -0.4385 -0.2803
 9733SOL    HW129884   5.289   6.301   4.242  0.1530  0.8275  1.4453
 9733SOL    HW229885   5.208   6.429   4.241 -1.5351 -0.1751 -1.0921
 9734SOL     OW29886   0.857   5.258   2.239 -0.0641  0.2635 -0.4799
 9734SOL    HW129887   0.891   5.271   2.327 -0.6932 -0.7440 -0.0705
 9734SOL    HW229888   0.915   5.310   2.183  0.2778  1.0029  0.5258
 9735SOL     OW29889   0.930   4.710   0.152  0.0977  0.4338 -0.1365
 9735SOL    HW129890   0.898   4.758   0.229 -0.4604  0.6108 -0.4786
 9735SOL    HW229891   0.930   4.775   0.082  1.0286  0.3916 -0.1937
 9736SOL     OW29892   1.678   7.310   6.242  0.3422 -0.6258  0.6876
 9736SOL    HW129893   1.641   7.397   6.253 -1.0902 -0.9319 -1.1232
 9736SOL    HW229894   1.640   7.258   6.313 -0.1877 -0.1774  0.7403
 9737SOL     OW29895   4.290   2.926   5.763  0.1838 -0.2691 -0.1882
 9737SOL    HW129896   4.279   2.895   5.853  1.3856 -0.0770  0.0401
 9737SOL    HW229897   4.274   3.020   5.768  2.4093  0.1478  0.2914
 9738SOL     OW29898   0.902   6.929   2.661 -0.0121 -0.3879 -0.7576
 9738SOL    HW129899   0.944   6.874   2.595  0.8341 -0.0858 -0.4703
 9738SOL    HW229900   0.928   7.018   2.639  1.2708 -0.3731  0.6703
 9739SOL     OW29901   2.406   1.055   1.769 -0.1525  0.2357 -0.2939
 9739SOL    HW129902   2.338   1.117   1.796  1.0907  1.0390  1.1374
 9739SOL    HW229903   2.383   0.973   1.814 -0.2875  0.4527  0.0358
 9740SOL     OW29904   0.640   3.881   0.029 -0.1083  0.0075  0.4749
 9740SOL    HW129905   0.649   3.791  -0.003  3.0308 -0.5736  2.5429
 9740SOL    HW229906   0.716   3.894   0.085 -0.7746  3.7982  0.7559
 9741SOL     OW29907   3.489   5.264   7.520 -0.2046  0.0730 -0.6659
 9741SOL    HW129908   3.548   5.210   7.468 -1.4772 -0.0216 -2.0919
 9741SOL    HW229909   3.499   5.352   7.483 -0.9913  0.0368 -0.9906
 9742SOL     OW29910   4.879   4.149   5.708  0.2446  0.0710  0.1057
 9742SOL    HW129911   4.792   4.114   5.729  1.1442 -1.8347  0.8678
 9742SOL    HW229912   4.872   4.178   5.617 -0.9078 -0.9913 -0.1788
 9743SOL     OW29913   5.842   4.825   7.658  0.6045 -0.4849 -0.1958
 9743SOL    HW129914   5.935   4.835   7.637  0.8158 -1.4630  0.2199
 9743SOL    HW229915   5.798   4.888   7.602  1.5370  0.1145 -0.2731
 9744SOL     OW29916   3.673   1.827   1.337 -0.7186  0.4715 -0.3631
 9744SOL    HW129917   3.640   1.908   1.377 -0.6679  0.8831 -1.1226
 9744SOL    HW229918   3.625   1.757   1.382 -1.1817  0.9571 -0.0824
 9745SOL     OW29919   0.135   7.610   4.635 -0.9513 -0.1172 -0.4025
 9745SOL    HW129920   0.072   7.675   4.605  0.2709  0.2742 -2.3144
 9745SOL    HW229921   0.116   7.532   4.583  0.5035  0.2214 -1.5313
 9746SOL     OW29922   1.557   5.581   5.308  0.3659  0.1579 -0.0316
 9746SOL    HW129923   1.622   5.639   5.347  2.8628 -0.6984 -2.5440
 9746SOL    HW229924   1.569   5.498   5.355 -2.2792  1.1199  2.6429
 9747SOL     OW29925   0.122   0.448   4.677 -0.1714  0.1280  0.0943
 9747SOL    HW129926   0.142   0.538   4.649  0.7165 -0.1160 -0.1061
 9747SOL    HW229927   0.092   0.404   4.597  0.5697 -0.0722 -0.0803
 9748SOL     OW29928   6.668   7.759   1.672  0.2006  0.1572  0.1120
 9748SOL    HW129929   6.618   7.832   1.634 -0.0195 -0.2482 -0.4022
 9748SOL    HW229930   6.603   7.691   1.687  0.3898  0.0952  0.6758
 9749SOL     OW29931   7.057   6.490   2.815  0.3056  0.3764 -0.0297
 9749SOL    HW129932   6.961   6.492   2.818  0.2959 -0.3694  0.4321
 9749SOL    HW229933   7.082   6.579   2.788 -0.5214  0.4633 -0.5324
 9750SOL     OW29934   0.031   6.475   0.075 -0.5234 -0.2353  0.1455
 9750SOL    HW129935   0.112   6.443   0.114 -0.2098  0.5574  0.1509
 9750SOL    HW229936   0.059   6.533   0.004 -1.0847  0.0496  0.1489
 9751SOL     OW29937   6.994   4.720   1.304 -0.1038 -0.5180 -0.4852
 9751SOL    HW129938   7.035   4.806   1.318  0.5695 -1.2598  3.4189
 9751SOL    HW229939   7.067   4.663   1.280  0.0568 -0.5818  0.1239
 9752SOL     OW29940   7.681   3.340   7.369 -0.3816 -0.6229 -0.3376
 9752SOL    HW129941   7.683   3.245   7.355  2.3746 -0.7942  0.7700
 9752SOL    HW229942   7.771   3.369   7.356  0.0246  1.0253  4.3372
 9753SOL     OW29943   3.838   5.295   5.770  0.1062 -0.0092  0.2233
 9753SOL    HW129944   3.793   5.353   5.709 -0.2877 -0.8392 -0.3001
 9753SOL    HW229945   3.871   5.223   5.715 -1.6095 -1.5964  1.1638
 9754SOL     OW29946   5.310   2.784   7.280  0.6023 -0.8394 -0.1840
 9754SOL    HW129947   5.316   2.690   7.264 -1.4496 -1.1684  0.7336
 9754SOL    HW229948   5.331   2.795   7.373 -1.4544 -0.7284  0.3132
 9755SOL     OW29949   3.217   7.505   1.901  0.1269  0.3067  0.1113
 9755SOL    HW129950   3.195   7.587   1.856 -0.2199  0.7960  1.1306
 9755SOL    HW229951   3.140   7.485   1.954  1.1053  0.6535  1.7465
 9756SOL     OW29952   1.419   6.152   7.229  0.4763  0.0831 -0.0978
 9756SOL    HW129953   1.476   6.099   7.285 -1.0432 -0.5783  0.8983
 9756SOL    HW229954   1.332   6.138   7.265 -0.9469 -1.9147 -3.7914
 9757SOL     OW29955   5.668   6.790   1.897  0.2600  0.2192  0.4957
 9757SOL    HW129956   5.673   6.721   1.963 -0.8598  0.4703  0.8716
 9757SOL    HW229957   5.575   6.793   1.873  0.4396  1.0106 -0.1441
 9758SOL     OW29958   3.150   7.006   1.892 -0.0640  0.7797  0.2800
 9758SOL    HW129959   3.058   6.999   1.917  0.2744 -0.4699  1.2683
 9758SOL    HW229960   3.167   6.928   1.839  0.5363  0.7636  0.4806
 9759SOL     OW29961   5.989   5.864   6.429 -0.0517 -0.1767 -0.0538
 9759SOL    HW129962   5.913   5.866   6.371  0.7261 -0.6506 -1.1291
 9759SOL    HW229963   5.954   5.888   6.515 -1.3403 -0.0238 -0.5912
 9760SOL     OW29964   2.853   1.245   4.993 -0.0538  0.5463 -0.4525
 9760SOL    HW129965   2.827   1.308   5.060 -1.5285  1.1647 -1.5528
 9760SOL    HW229966   2.781   1.181   4.990 -0.5964  1.1840 -2.2112
 9761SOL     OW29967   4.994   4.573   1.378 -0.1538  0.8563 -0.0368
 9761SOL    HW129968   4.980   4.480   1.360 -0.1634  0.7942  0.2880
 9761SOL    HW229969   4.907   4.606   1.403 -0.3731  1.1838 -1.1416
 9762SOL     OW29970   3.572   4.158   7.199 -0.3698  0.8452 -0.0251
 9762SOL    HW129971   3.664   4.182   7.197 -0.1377  0.0024 -1.4854
 9762SOL    HW229972   3.552   4.144   7.292  1.1336  0.4374  0.2564
 9763SOL     OW29973   0.757   3.076   3.098 -0.2821  0.1752  0.3884
 9763SOL    HW129974   0.789   3.165   3.112 -1.2847  0.7778 -0.9368
 9763SOL    HW229975   0.822   3.036   3.040  1.3279 -0.7428  2.6623
 9764SOL     OW29976   6.931   1.748   1.724  0.1424  0.4320 -0.0447
 9764SOL    HW129977   6.910   1.675   1.781  0.4071  0.4194  0.0406
 9764SOL    HW229978   6.881   1.732   1.644 -0.2523  0.4676  0.1949
 9765SOL     OW29979   7.083   7.271   3.931 -0.5343 -0.1585  0.1263
 9765SOL    HW129980   7.128   7.300   3.852 -0.4041 -0.1244  0.2111
 9765SOL    HW229981   7.109   7.335   3.998 -1.4684  0.4134 -0.0465
 9766SOL     OW29982   4.260   1.879   4.637 -0.6324  0.0292 -0.1101
 9766SOL    HW129983   4.175   1.915   4.611 -1.2798 -1.0884  0.4092
 9766SOL    HW229984   4.324   1.934   4.592 -1.5533  2.0881  0.9918
 9767SOL     OW29985   5.396   1.189   7.452  0.2810 -0.0260 -0.0464
 9767SOL    HW129986   5.408   1.106   7.406  1.5650 -0.7373  1.4623
 9767SOL    HW229987   5.322   1.231   7.408 -1.1551 -2.4849 -0.1596
 9768SOL     OW29988   1.940   6.312   1.832  0.6192  0.2762  0.1657
 9768SOL    HW129989   1.924   6.375   1.762 -0.8636 -0.3484 -0.1139
 9768SOL    HW229990   2.016   6.346   1.879  0.3281  1.8517 -0.4420
 9769SOL     OW29991   0.989   7.684   5.194  0.0606 -0.7382  0.4516
 9769SOL    HW129992   0.967   7.605   5.145  0.5105 -0.9712  0.6123
 9769SOL    HW229993   1.084   7.678   5.208  0.1247 -0.1031  0.3478
 9770SOL     OW29994   6.687   5.694   5.320 -0.0560  0.2950  0.3176
 9770SOL    HW129995   6.770   5.649   5.338 -0.7157 -0.7657  0.8333
 9770SOL    HW229996   6.706   5.786   5.337  0.1376 -0.2732  3.9765
 9771SOL     OW29997   4.970   0.807   1.569  0.4276  0.4655 -0.1786
 9771SOL    HW129998   4.898   0.765   1.617  0.6002  1.6422  1.2052
 9771SOL    HW229999   5.047   0.754   1.591  0.3621  0.5133  0.1736
 9772SOL     OW30000   3.410   2.861   6.645  0.3321 -0.1898  0.1008
 9772SOL    HW130001   3.363   2.836   6.724  1.2815 -0.1597  0.6897
 9772SOL    HW230002   3.501   2.836   6.662  0.4925 -0.5145 -1.1256
 9773SOL     OW30003   6.714   1.427   4.965 -0.4634  0.6737  0.2616
 9773SOL    HW130004   6.769   1.401   5.039 -0.5296 -0.1078  0.0450
 9773SOL    HW230005   6.774   1.469   4.903 -0.0169 -0.5615 -0.1681
 9774SOL     OW30006   1.137   1.549   4.349 -0.2453 -0.5731 -0.6218
 9774SOL    HW130007   1.110   1.506   4.268  0.4747  1.0859 -1.8127
 9774SOL    HW230008   1.066   1.610   4.369  0.4320  0.4050 -1.1155
 9775SOL     OW30009   0.090   0.303   0.100 -0.1441  0.0323 -0.3515
 9775SOL    HW130010   0.142   0.313   0.020  0.9328  1.2348  0.4509
 9775SOL    HW230011  -0.001   0.312   0.070  0.1784 -0.3765 -1.5417
 9776SOL     OW30012   4.413   4.052   5.023 -0.2806  0.1969  0.4703
 9776SOL    HW130013   4.455   3.984   5.075 -0.7370 -1.0850 -0.7789
 9776SOL    HW230014   4.333   4.074   5.072 -0.1007 -0.1132  0.9054
 9777SOL     OW30015   2.709   7.742   6.366  0.7761  0.3181  0.1736
 9777SOL    HW130016   2.794   7.699   6.365  1.2300  1.1893 -0.2563
 9777SOL    HW230017   2.680   7.739   6.274  0.1865 -0.2770  0.3772
 9778SOL     OW30018   1.456   4.286   5.523  0.1724  0.1723 -0.4187
 9778SOL    HW130019   1.521   4.353   5.544 -0.7803  0.6519  1.2005
 9778SOL    HW230020   1.485   4.250   5.439  2.4726  0.3837  0.2148
 9779SOL     OW30021   1.174   0.990   4.684  0.1759 -0.0010 -0.3247
 9779SOL    HW130022   1.203   0.919   4.740  2.6927  1.3917  0.2823
 9779SOL    HW230023   1.082   0.970   4.666 -0.5224 -1.0746  3.4731
 9780SOL     OW30024   7.664   6.888   4.458  1.2501 -0.1130 -0.6844
 9780SOL    HW130025   7.625   6.972   4.434  1.8368 -0.1273 -1.7387
 9780SOL    HW230026   7.728   6.911   4.526 -1.9172 -0.3392  2.6702
 9781SOL     OW30027   1.688   0.444   0.349  0.5854  0.0448  0.2482
 9781SOL    HW130028   1.699   0.418   0.441  4.1000  0.0684 -0.0012
 9781SOL    HW230029   1.652   0.366   0.306 -0.4740 -0.1951  1.5029
 9782SOL     OW30030   2.477   5.728   1.858  0.1212 -0.2036  0.0624
 9782SOL    HW130031   2.573   5.729   1.857  0.1518 -0.4879 -1.6472
 9782SOL    HW230032   2.454   5.655   1.915  0.9384 -0.4663  0.0740
 9783SOL     OW30033   2.873   4.730   0.063 -0.0907 -0.2066 -0.0357
 9783SOL    HW130034   2.852   4.672  -0.010  0.6555  1.1249 -1.3689
 9783SOL    HW230035   2.795   4.730   0.118 -1.4672  0.2800 -1.8886
 9784SOL     OW30036   3.993   2.976   5.946  0.5201 -0.1420  0.5115
 9784SOL    HW130037   3.920   2.944   5.998  0.7437 -0.6533  0.5186
 9784SOL    HW230038   4.061   2.909   5.957  0.7450 -0.0044 -0.0367
 9785SOL     OW30039   7.463   0.746   6.346  0.4969 -0.0196  0.4516
 9785SOL    HW130040   7.511   0.747   6.264  1.2688  0.3431  0.9015
 9785SOL    HW230041   7.394   0.681   6.332  1.7595 -1.3459  0.1649
 9786SOL     OW30042   4.295   1.113   5.982 -0.4800 -0.2393 -0.0950
 9786SOL    HW130043   4.296   1.036   5.924  1.5367 -0.2471 -0.1260
 9786SOL    HW230044   4.239   1.088   6.055 -0.1679 -1.6100 -0.3034
 9787SOL     OW30045   6.162   4.534   5.695 -0.2750 -0.4282 -0.2434
 9787SOL    HW130046   6.161   4.495   5.607  0.2547 -1.4307  0.1801
 9787SOL    HW230047   6.219   4.476   5.746  1.1202  1.3062  0.2349
 9788SOL     OW30048   1.533   2.147   7.462  0.4086  0.1391  0.1168
 9788SOL    HW130049   1.515   2.235   7.430  1.3942  0.7752  1.2572
 9788SOL    HW230050   1.531   2.154   7.557 -0.3310 -1.2632  0.2404
 9789SOL     OW30051   7.215   4.261   6.919  0.1202 -0.2187  0.0635
 9789SOL    HW130052   7.152   4.262   6.847  0.9013  0.8488 -0.6412
 9789SOL    HW230053   7.163   4.281   6.997 -0.2557  2.0860 -0.6916
 9790SOL     OW30054   4.688   7.654   6.358 -0.8601 -0.1439 -0.2303
 9790SOL    HW130055   4.644   7.580   6.399 -3.1008  0.4264 -1.4432
 9790SOL    HW230056   4.705   7.625   6.268 -1.1349  0.5704 -0.5187
 9791SOL     OW30057   1.654   5.798   4.796  0.1142  0.3243 -0.1000
 9791SOL    HW130058   1.710   5.780   4.872  3.5473 -1.2750 -2.6843
 9791SOL    HW230059   1.617   5.713   4.773 -1.2358  0.8689 -0.0200
 9792SOL     OW30060   1.014   0.780   0.859  0.5084 -0.3164 -0.3599
 9792SOL    HW130061   1.019   0.749   0.949  1.0141  1.6661  0.3482
 9792SOL    HW230062   0.968   0.710   0.812 -1.0497 -0.7690  1.7126
 9793SOL     OW30063   4.437   0.432   5.898 -0.0270  0.5395 -0.1788
 9793SOL    HW130064   4.454   0.475   5.982 -1.4013 -1.1230  1.0273
 9793SOL    HW230065   4.504   0.364   5.893 -0.3483  0.2170 -0.1049
 9794SOL     OW30066   2.723   4.321   3.800 -0.3781 -0.1829 -0.8332
 9794SOL    HW130067   2.654   4.311   3.734 -0.2653 -0.9605 -0.8316
 9794SOL    HW230068   2.701   4.404   3.843 -0.5753  0.2339 -1.6977
 9795SOL     OW30069   4.167   2.976   1.578 -0.0950  0.1483  0.1518
 9795SOL    HW130070   4.250   2.954   1.620  0.2568  2.1326  0.6207
 9795SOL    HW230071   4.192   3.021   1.497 -0.7062  0.4786  0.1383
 9796SOL     OW30072   1.595   4.739   4.681 -0.7067 -0.0284 -1.3026
 9796SOL    HW130073   1.600   4.832   4.658  0.8361  0.2932  0.1096
 9796SOL    HW230074   1.686   4.710   4.686 -1.1028 -1.1864 -0.1778
 9797SOL     OW30075   0.916   4.219   5.603 -0.2203 -0.5272  0.4654
 9797SOL    HW130076   0.993   4.192   5.653  0.1422 -1.7694 -0.7023
 9797SOL    HW230077   0.854   4.147   5.614 -0.5778 -0.2843  0.0706
 9798SOL     OW30078   4.027   5.567   5.743 -0.3323 -0.7762  0.1132
 9798SOL    HW130079   4.078   5.647   5.739 -2.7325  0.8248 -0.5147
 9798SOL    HW230080   4.064   5.512   5.674  1.0500 -0.0531  0.2385
 9799SOL     OW30081   4.878   5.671   4.454  0.0539  0.0285 -0.5521
 9799SOL    HW130082   4.838   5.735   4.395 -1.0079  0.2352  0.3627
 9799SOL    HW230083   4.842   5.692   4.540  0.4301 -1.2012 -0.0779
 9800SOL     OW30084   1.622   2.319   5.883 -0.7784  0.0361  0.0038
 9800SOL    HW130085   1.609   2.397   5.830  0.1775  1.0655  1.2389
 9800SOL    HW230086   1.695   2.273   5.841  2.1444  2.4377  2.0263
 9801SOL     OW30087   2.649   7.617   3.371  0.0271 -0.1017 -0.0358
 9801SOL    HW130088   2.724   7.569   3.404 -0.3916 -0.9832 -0.3430
 9801SOL    HW230089   2.684   7.672   3.301 -0.0003 -2.4773 -2.0513
 9802SOL     OW30090   4.516   2.115   7.321  0.2858  0.6436 -0.4950
 9802SOL    HW130091   4.591   2.105   7.262 -1.0741 -0.2279 -2.1689
 9802SOL    HW230092   4.477   2.198   7.295  1.5362  1.9587  1.5106
 9803SOL     OW30093   7.589   1.134   0.589 -0.2176  0.2404 -0.2362
 9803SOL    HW130094   7.565   1.169   0.675  0.3395  0.1594 -0.0410
 9803SOL    HW230095   7.626   1.048   0.608 -0.6383 -0.0298 -0.6185
 9804SOL     OW30096   1.147   0.663   6.034 -0.0419  0.0120  0.5578
 9804SOL    HW130097   1.179   0.745   5.997  0.5417 -0.2225  0.5181
 9804SOL    HW230098   1.155   0.674   6.129  1.3484 -0.4852  0.5248
 9805SOL     OW30099   5.204   5.515   3.348  0.1039 -0.1261  0.0642
 9805SOL    HW130100   5.169   5.426   3.358 -0.9282  0.3976  1.3983
 9805SOL    HW230101   5.235   5.538   3.435 -1.2162  1.4574  0.1525
 9806SOL     OW30102   5.820   2.468   3.559  0.5566  0.0377  0.6765
 9806SOL    HW130103   5.901   2.519   3.568  1.1703 -0.6830 -0.4947
 9806SOL    HW230104   5.792   2.451   3.649  2.7415 -1.2644  1.1889
 9807SOL     OW30105   1.831   2.370   0.111  0.0768  0.6466  0.3945
 9807SOL    HW130106   1.863   2.345   0.198  0.4026  0.6984  0.2875
 9807SOL    HW230107   1.797   2.458   0.123 -0.3924  0.4431  0.5984
 9808SOL     OW30108   3.962   4.177   1.734 -0.1532  0.3698 -0.4709
 9808SOL    HW130109   3.908   4.108   1.773 -1.3394  1.6384  0.1769
 9808SOL    HW230110   3.902   4.228   1.680  1.0748 -0.1665 -2.4881
 9809SOL     OW30111   1.673   5.742   1.998 -0.3209 -0.1269 -0.8924
 9809SOL    HW130112   1.698   5.771   1.910  2.1625  0.2872 -0.1485
 9809SOL    HW230113   1.680   5.822   2.051  1.8597 -1.0147  0.2894
 9810SOL     OW30114   0.621   1.207   2.964 -0.3412 -0.1851  0.5269
 9810SOL    HW130115   0.625   1.270   2.891 -3.5241  1.2048  1.3626
 9810SOL    HW230116   0.536   1.164   2.953 -0.7416 -0.2013  3.1806
 9811SOL     OW30117   5.662   6.985   2.108 -0.6588 -0.2417  0.0269
 9811SOL    HW130118   5.739   7.041   2.111 -1.0514  0.2752  1.4447
 9811SOL    HW230119   5.646   6.970   2.015  0.1709  1.0010 -0.3314
 9812SOL     OW30120   1.471   2.285   6.808  0.2916  0.2737 -0.2759
 9812SOL    HW130121   1.521   2.362   6.835  0.9623 -0.3531  0.2908
 9812SOL    HW230122   1.413   2.266   6.882  0.0145  0.3156 -0.4768
 9813SOL     OW30123   4.148   6.581   2.446 -0.5840  0.0257  0.1816
 9813SOL    HW130124   4.120   6.525   2.518  0.2806 -2.0406 -0.9970
 9813SOL    HW230125   4.094   6.553   2.372  0.9791 -0.3932 -0.8421
 9814SOL     OW30126   7.650   3.346   5.508 -0.0325 -0.3013 -0.3021
 9814SOL    HW130127   7.718   3.407   5.479  0.3729  0.2893  1.7768
 9814SOL    HW230128   7.698   3.271   5.543 -0.5126 -0.7843 -0.6556
 9815SOL     OW30129   3.713   0.056   6.671  0.3996 -0.3407  0.5012
 9815SOL    HW130130   3.747   0.130   6.722 -1.0857  1.2724 -0.7244
 9815SOL    HW230131   3.617   0.064   6.678  0.1729 -0.8540 -1.4132
 9816SOL     OW30132   7.097   0.300   3.482 -0.6449 -0.3148  0.4144
 9816SOL    HW130133   7.095   0.205   3.467 -1.3608 -0.2046 -0.2666
 9816SOL    HW230134   7.035   0.335   3.418 -1.2264  0.5187  1.4163
 9817SOL     OW30135   6.719   2.530   4.544 -0.3870  0.7708  0.1277
 9817SOL    HW130136   6.704   2.511   4.451 -0.9784 -1.4217  0.5973
 9817SOL    HW230137   6.634   2.512   4.585 -0.3520  2.4775  1.0253
 9818SOL     OW30138   6.798   1.999   4.685  0.7332 -0.0513  0.4958
 9818SOL    HW130139   6.766   2.068   4.743  0.1817  1.6264 -1.6790
 9818SOL    HW230140   6.727   1.934   4.685  1.4048 -0.8753  2.8299
 9819SOL     OW30141   0.344   2.976   3.132  0.1481 -0.0209 -0.5209
 9819SOL    HW130142   0.250   2.975   3.115 -0.5218 -2.4364  2.5893
 9819SOL    HW230143   0.353   3.024   3.214  1.5143 -0.7488 -0.2161
 9820SOL     OW30144   7.583   5.697   0.166 -0.1428  0.4178  0.7171
 9820SOL    HW130145   7.538   5.614   0.184 -1.7377  1.2849  0.9278
 9820SOL    HW230146   7.578   5.745   0.248  0.8983  0.6800  0.6370
 9821SOL     OW30147   0.911   1.577   1.301  0.4336 -0.0312  0.6156
 9821SOL    HW130148   0.994   1.622   1.316  0.6124 -0.0443 -0.3022
 9821SOL    HW230149   0.912   1.504   1.364  1.6167 -0.6842 -0.1264
 9822SOL     OW30150   0.685   0.081   2.068 -0.3010 -0.6380 -0.4629
 9822SOL    HW130151   0.638   0.118   2.143 -0.6092  0.4801 -1.1902
 9822SOL    HW230152   0.775   0.070   2.101  0.0285  1.5849 -0.4243
 9823SOL     OW30153   3.075   7.468   4.351  0.1123  0.2396 -0.4768
 9823SOL    HW130154   3.051   7.450   4.260  0.9723 -1.2269 -0.4330
 9823SOL    HW230155   3.138   7.540   4.346 -0.2542  0.5280 -0.9884
 9824SOL     OW30156   3.152   3.171   0.325  0.9312 -0.1592  0.3115
 9824SOL    HW130157   3.172   3.214   0.408  2.3155 -0.9113  0.4003
 9824SOL    HW230158   3.066   3.205   0.301  1.1692  1.2459  1.2771
 9825SOL     OW30159   0.457   4.429   4.557  0.1113 -0.9097  0.0860
 9825SOL    HW130160   0.378   4.375   4.560 -0.9432  0.2980 -2.9407
 9825SOL    HW230161   0.427   4.515   4.528  2.4752 -0.2442 -0.6182
 9826SOL     OW30162   5.265   3.463   7.213  0.5293  0.0040  0.3877
 9826SOL    HW130163   5.201   3.405   7.254  0.6801 -0.5338 -0.1200
 9826SOL    HW230164   5.220   3.547   7.205 -0.4346 -0.5825 -0.7452
 9827SOL     OW30165   6.383   1.009   4.125 -0.3364  0.2444  0.1388
 9827SOL    HW130166   6.443   0.992   4.052 -1.0476 -0.5878 -0.2635
 9827SOL    HW230167   6.337   0.927   4.138  0.3935  0.0866  2.1265
 9828SOL     OW30168   3.883   3.632   5.801  0.1247  0.1810  0.0833
 9828SOL    HW130169   3.842   3.629   5.715 -0.3542  0.4492  0.2980
 9828SOL    HW230170   3.970   3.595   5.788  0.1524  0.4746 -0.5681
 9829SOL     OW30171   0.342   6.731   3.963 -0.9369  0.2533 -0.0061
 9829SOL    HW130172   0.370   6.768   3.880 -0.8684 -2.1257 -1.1263
 9829SOL    HW230173   0.410   6.757   4.025  1.2702 -1.3402 -1.6137
 9830SOL     OW30174   6.215   5.861   2.865 -0.7421 -0.0642 -0.3430
 9830SOL    HW130175   6.215   5.947   2.822 -0.1757 -0.1931 -0.6226
 9830SOL    HW230176   6.227   5.880   2.958  1.6894  0.1052 -0.6234
 9831SOL     OW30177   5.182   3.967   3.825 -0.1362  0.2100 -0.3927
 9831SOL    HW130178   5.232   4.028   3.879 -0.8257 -0.4829  1.0789
 9831SOL    HW230179   5.211   3.985   3.735 -0.0058  2.3901  0.0283
 9832SOL     OW30180   5.382   0.914   4.998 -0.8740 -0.4128 -0.6082
 9832SOL    HW130181   5.455   0.977   4.999 -0.4046 -0.9595  0.3303
 9832SOL    HW230182   5.309   0.963   4.961 -0.1352  0.2630 -1.2189
 9833SOL     OW30183   6.516   1.742   6.679  0.2047 -0.1391 -0.8979
 9833SOL    HW130184   6.510   1.740   6.774  0.0992  1.4399 -0.8489
 9833SOL    HW230185   6.564   1.662   6.656 -0.3446 -0.8717  0.4113
 9834SOL     OW30186   6.468   2.009   1.542 -0.2817 -0.1530 -0.4659
 9834SOL    HW130187   6.432   1.921   1.555 -0.8744 -0.0059 -1.0543
 9834SOL    HW230188   6.552   1.994   1.499 -0.1113 -0.4536 -0.0402
 9835SOL     OW30189   5.186   6.334   2.284 -0.1760 -0.0861 -0.1126
 9835SOL    HW130190   5.246   6.325   2.210  1.4201  1.3196  0.9319
 9835SOL    HW230191   5.149   6.246   2.296 -0.4582 -0.3590 -2.5050
 9836SOL     OW30192   7.126   2.998   2.978  0.6693  0.6108 -0.4466
 9836SOL    HW130193   7.159   2.950   2.902  0.9428 -0.1512  0.1362
 9836SOL    HW230194   7.157   2.948   3.053  5.1290  4.1318  0.4949
 9837SOL     OW30195   4.373   0.149   3.878  0.5624 -0.4589 -0.2476
 9837SOL    HW130196   4.313   0.139   3.952  1.6729 -1.6157  0.5599
 9837SOL    HW230197   4.389   0.243   3.872 -0.2943 -0.2616  0.3576
 9838SOL     OW30198   1.327   7.124   6.566 -0.7031 -0.4994  0.9505
 9838SOL    HW130199   1.390   7.176   6.516 -2.3478  0.3902 -0.2898
 9838SOL    HW230200   1.381   7.064   6.617  1.1891  1.1476  0.9970
 9839SOL     OW30201   6.367   4.360   1.330 -0.4091  0.1921 -0.2054
 9839SOL    HW130202   6.306   4.316   1.389 -0.6995  0.9179  0.0472
 9839SOL    HW230203   6.434   4.294   1.311 -1.0355 -0.4747 -0.1406
 9840SOL     OW30204   5.642   0.635   1.375 -0.2346  0.3899 -0.1075
 9840SOL    HW130205   5.736   0.624   1.383 -0.2984 -2.4689 -1.9272
 9840SOL    HW230206   5.612   0.652   1.465  1.8273 -0.2858  0.7710
 9841SOL     OW30207   4.809   7.211   5.540 -0.2331  0.0650 -0.6472
 9841SOL    HW130208   4.765   7.199   5.624  1.5201 -2.1108  0.0505
 9841SOL    HW230209   4.814   7.306   5.530  0.9719  0.4909  2.5737
 9842SOL     OW30210   1.144   3.234   2.360  0.4525  0.0761 -1.1002
 9842SOL    HW130211   1.115   3.310   2.310  0.3042  0.2511 -0.7481
 9842SOL    HW230212   1.113   3.250   2.449  0.6354 -0.2788 -0.9705
 9843SOL     OW30213   0.528   2.962   6.027 -0.0763  0.0770  0.3371
 9843SOL    HW130214   0.562   2.993   6.110 -0.4247  1.0001  0.1487
 9843SOL    HW230215   0.433   2.966   6.037 -0.1199 -0.0960  0.0057
 9844SOL     OW30216   5.060   6.535   7.728 -0.3778  0.7988 -0.1352
 9844SOL    HW130217   5.004   6.458   7.732 -0.4965  0.8408 -0.8515
 9844SOL    HW230218   5.013   6.603   7.777  1.4740 -0.5935  4.1232
 9845SOL     OW30219   6.357   3.519   0.624  0.2729 -0.4471 -0.6986
 9845SOL    HW130220   6.267   3.534   0.597  0.7050  2.2009 -0.9680
 9845SOL    HW230221   6.357   3.432   0.663 -2.5761 -0.1961  0.0376
 9846SOL     OW30222   6.662   0.346   3.506 -0.1080  0.1114 -0.3033
 9846SOL    HW130223   6.709   0.420   3.545 -0.1508 -1.0834  2.2292
 9846SOL    HW230224   6.705   0.269   3.542 -3.0559 -1.0523  1.1105
 9847SOL     OW30225   2.855   7.540   1.270  0.4316  0.0562  0.5255
 9847SOL    HW130226   2.791   7.530   1.199  1.1551  0.2012 -0.1607
 9847SOL    HW230227   2.830   7.621   1.313  0.4548  0.3846 -0.0676
 9848SOL     OW30228   3.888   2.231   6.276  0.7388 -0.0688 -0.2527
 9848SOL    HW130229   3.899   2.323   6.304  1.3304 -0.1767 -0.1141
 9848SOL    HW230230   3.878   2.183   6.358 -1.4881  0.0832 -0.3655
 9849SOL     OW30231   6.797   5.716   5.988  0.2396  0.6196 -0.4630
 9849SOL    HW130232   6.882   5.760   5.994 -0.0276  1.0994 -0.0839
 9849SOL    HW230233   6.779   5.688   6.078  0.6582 -0.7764 -0.7843
 9850SOL     OW30234   6.171   7.400   2.519  0.1349  0.3708  0.1720
 9850SOL    HW130235   6.229   7.466   2.481 -0.1798  1.4386  1.4783
 9850SOL    HW230236   6.220   7.366   2.594 -0.4039  0.3713  0.5275
 9851SOL     OW30237   5.021   2.068   1.715 -0.0565  0.0592 -0.8761
 9851SOL    HW130238   5.034   1.981   1.677  0.7875 -0.5455  0.7219
 9851SOL    HW230239   5.097   2.119   1.685  0.1014 -0.1241 -0.7875
 9852SOL     OW30240   2.978   2.054   3.191  0.4037 -0.2742 -0.1338
 9852SOL    HW130241   2.936   2.075   3.274  0.4730  1.0247 -0.4061
 9852SOL    HW230242   3.042   2.124   3.178 -0.9078  0.6449 -2.1919
 9853SOL     OW30243   7.589   1.101   6.151 -0.8038  0.5131  0.5839
 9853SOL    HW130244   7.504   1.062   6.173 -1.1392  1.0591  0.3037
 9853SOL    HW230245   7.636   1.106   6.234 -0.8333 -0.2888  0.6561
 9854SOL     OW30246   1.984   7.496   7.367  0.0634 -0.5483 -0.2661
 9854SOL    HW130247   1.949   7.566   7.312 -1.2433 -1.9144 -1.2472
 9854SOL    HW230248   2.074   7.483   7.336  0.2102  0.4651 -0.2812
 9855SOL     OW30249   1.411   5.121   2.766 -0.8071  0.3055 -0.1051
 9855SOL    HW130250   1.444   5.031   2.768  1.0509  0.9453  0.1927
 9855SOL    HW230251   1.486   5.173   2.737 -1.5548  1.8703  0.6406
 9856SOL     OW30252   6.455   6.681   0.858 -0.0183  0.2737 -0.0161
 9856SOL    HW130253   6.360   6.676   0.850 -0.0369  2.1199 -1.9804
 9856SOL    HW230254   6.483   6.591   0.871 -1.9225 -0.5595 -1.2951
 9857SOL     OW30255   2.529   5.096   7.711 -0.0922 -0.3136 -0.4236
 9857SOL    HW130256   2.523   5.077   7.618 -0.7277 -0.5607 -0.3344
 9857SOL    HW230257   2.440   5.086   7.744  0.0972 -0.0753  0.1830
 9858SOL     OW30258   0.844   0.981   4.390  0.0636  0.4477  0.5078
 9858SOL    HW130259   0.874   0.932   4.314 -1.6284  2.8985 -1.9189
 9858SOL    HW230260   0.871   1.071   4.372 -0.9064  1.2071  2.5495
 9859SOL     OW30261   0.681   2.790   2.821  0.2291  0.3419 -0.6901
 9859SOL    HW130262   0.709   2.720   2.880  1.9416  0.1142 -1.7056
 9859SOL    HW230263   0.609   2.751   2.770 -0.9426  0.3868  0.8596
 9860SOL     OW30264   4.339   3.178   1.500 -0.1331 -0.0941  0.4149
 9860SOL    HW130265   4.351   3.269   1.473  1.0943 -0.6490 -1.0563
 9860SOL    HW230266   4.417   3.158   1.551 -1.0433  0.0466  1.9237
 9861SOL     OW30267   5.930   2.450   1.741  0.4266 -0.0879  0.4744
 9861SOL    HW130268   6.016   2.410   1.746 -0.0268 -1.1908 -0.1418
 9861SOL    HW230269   5.876   2.399   1.801 -0.0989 -0.2595 -0.1261
 9862SOL     OW30270   4.671   4.512   5.287  0.0512 -0.4066 -0.4193
 9862SOL    HW130271   4.743   4.570   5.311  0.2023 -1.2978  1.5206
 9862SOL    HW230272   4.592   4.562   5.306  0.1734 -0.2440 -0.3411
 9863SOL     OW30273   2.385   5.416   2.303 -0.0328 -0.0814  0.1370
 9863SOL    HW130274   2.453   5.358   2.337  0.1131 -0.0585 -0.1136
 9863SOL    HW230275   2.303   5.377   2.335  0.1275  0.2574  0.9717
 9864SOL     OW30276   3.265   1.224   3.666  0.0851  0.2031 -0.0815
 9864SOL    HW130277   3.263   1.303   3.720 -0.1689  0.2157 -0.1107
 9864SOL    HW230278   3.245   1.254   3.578  1.3147  0.3070 -0.3424
 9865SOL     OW30279   3.086   1.057   5.657 -0.3387  0.9275  0.2916
 9865SOL    HW130280   3.112   1.060   5.565  1.8260  0.1848  0.8194
 9865SOL    HW230281   2.994   1.032   5.656  0.7816 -4.6659 -1.6720
 9866SOL     OW30282   5.358   5.518   7.151 -0.6630 -0.6531  0.2366
 9866SOL    HW130283   5.360   5.500   7.057  0.2840 -0.7630  0.2648
 9866SOL    HW230284   5.402   5.603   7.160 -2.8811  0.5524  0.3575
 9867SOL     OW30285   0.838   3.476   7.383 -0.2487  0.1638  0.0287
 9867SOL    HW130286   0.825   3.568   7.359  2.3286  0.4697 -0.4891
 9867SOL    HW230287   0.830   3.428   7.301  1.6305  0.3647 -0.3097
 9868SOL     OW30288   4.652   4.253   6.514  0.2531 -0.0289 -0.0104
 9868SOL    HW130289   4.689   4.233   6.600 -0.4134 -0.7016  0.1359
 9868SOL    HW230290   4.595   4.328   6.529 -0.3195 -0.5121  0.2617
 9869SOL     OW30291   2.622   7.546   0.185 -0.3198  0.1243 -0.2037
 9869SOL    HW130292   2.670   7.586   0.112  1.0606  1.0774  1.1755
 9869SOL    HW230293   2.532   7.574   0.172 -0.3396 -0.6556 -2.1544
 9870SOL     OW30294   4.030   1.270   3.853 -0.8823  0.5403 -0.1398
 9870SOL    HW130295   3.998   1.206   3.916 -1.8020 -0.5025 -1.6023
 9870SOL    HW230296   4.121   1.286   3.879 -1.0693 -0.2597  1.1046
 9871SOL     OW30297   5.869   3.145   6.076 -0.2172  0.1360  0.0854
 9871SOL    HW130298   5.792   3.202   6.079 -0.0193  0.3946  0.3378
 9871SOL    HW230299   5.886   3.133   5.983 -0.8724 -0.3501  0.0169
 9872SOL     OW30300   4.913   2.699   6.144  0.0627  0.1063  0.0303
 9872SOL    HW130301   4.843   2.650   6.100  0.1966  0.2332 -0.3342
 9872SOL    HW230302   4.980   2.633   6.161 -0.8740 -0.3929  2.0235
 9873SOL     OW30303   3.155   5.817   3.500 -0.0354 -0.5236 -0.1449
 9873SOL    HW130304   3.166   5.769   3.582 -0.6273 -0.9366 -0.2980
 9873SOL    HW230305   3.188   5.904   3.519 -2.2291  0.0797  1.2497
 9874SOL     OW30306   6.732   6.748   1.569 -0.3202 -0.5409  0.1624
 9874SOL    HW130307   6.748   6.654   1.567  0.6414 -0.3937  0.2090
 9874SOL    HW230308   6.805   6.784   1.620 -0.4613  0.2665 -0.1814
 9875SOL     OW30309   0.627   4.431   2.642 -0.2863 -0.3369  0.3208
 9875SOL    HW130310   0.605   4.363   2.705 -0.1595  0.3945  1.1670
 9875SOL    HW230311   0.684   4.491   2.690 -0.3768  0.3576 -0.4172
 9876SOL     OW30312   1.899   4.729   2.060 -0.1552 -0.0727  0.6246
 9876SOL    HW130313   1.854   4.650   2.029 -0.1213  0.4300 -0.7587
 9876SOL    HW230314   1.992   4.711   2.047 -0.1049 -0.0758  0.9775
 9877SOL     OW30315   6.756   5.689   4.394  0.1637 -0.6019 -0.4070
 9877SOL    HW130316   6.776   5.771   4.440  0.3173  0.9003 -2.9993
 9877SOL    HW230317   6.785   5.621   4.455  0.0650  1.2102  1.8485
 9878SOL     OW30318   2.230   5.360   4.393 -0.1724  0.2223 -0.2920
 9878SOL    HW130319   2.186   5.355   4.308 -0.6307  0.7319 -0.0934
 9878SOL    HW230320   2.159   5.360   4.457  0.1589  0.1064  0.0799
 9879SOL     OW30321   0.288   1.511   0.706 -0.7373  0.4978 -0.1878
 9879SOL    HW130322   0.277   1.595   0.750 -2.6634  0.2196 -0.0519
 9879SOL    HW230323   0.291   1.447   0.778  0.5444  0.4198 -0.2965
 9880SOL     OW30324   7.285   7.047   0.949  0.5396  0.1708  0.7271
 9880SOL    HW130325   7.301   7.041   1.043 -0.4621  0.0707  0.9098
 9880SOL    HW230326   7.192   7.069   0.943  0.0867 -1.7742 -0.2659
 9881SOL     OW30327   6.467   5.435   1.224 -0.0296  0.4667 -0.2897
 9881SOL    HW130328   6.467   5.423   1.129 -2.1124 -1.3581 -0.1392
 9881SOL    HW230329   6.380   5.468   1.244 -0.1941 -0.7037  1.0987
 9882SOL     OW30330   3.069   2.709   1.760  0.2578 -0.3137 -0.0192
 9882SOL    HW130331   3.024   2.793   1.755  0.9899  0.0338 -1.4189
 9882SOL    HW230332   3.088   2.687   1.668  1.8655 -1.0120  0.4475
 9883SOL     OW30333   2.370   0.806   0.373 -0.1580  0.2101  0.6856
 9883SOL    HW130334   2.399   0.737   0.433  1.2012  0.5523  0.4605
 9883SOL    HW230335   2.448   0.859   0.359 -0.8534  1.0288 -0.1891
 9884SOL     OW30336   5.775   4.063   5.941 -0.2604  0.3611 -0.0243
 9884SOL    HW130337   5.809   4.143   5.901 -1.4258 -0.1527 -2.2409
 9884SOL    HW230338   5.796   3.994   5.878  0.0004 -0.9812  1.4558
 9885SOL     OW30339   5.570   1.958   6.322  0.1240  0.4413 -0.5694
 9885SOL    HW130340   5.544   1.881   6.271  0.3605  0.6746 -1.0573
 9885SOL    HW230341   5.546   2.033   6.267  1.1781  0.6775 -0.7406
 9886SOL     OW30342   0.683   4.878   7.181 -0.5326  0.1501  0.2956
 9886SOL    HW130343   0.588   4.889   7.173 -0.6491 -1.3296 -0.8995
 9886SOL    HW230344   0.704   4.807   7.120  1.3866  0.6049  0.3602
 9887SOL     OW30345   0.598   2.523   1.625  0.1107  0.5702 -0.0898
 9887SOL    HW130346   0.588   2.618   1.612 -1.5275  0.3240 -0.9143
 9887SOL    HW230347   0.647   2.515   1.706  1.4026  2.1345 -0.6495
 9888SOL     OW30348   3.074   4.571   6.743 -0.0331  0.5008  0.0148
 9888SOL    HW130349   3.151   4.531   6.782 -0.0480  1.9268  1.6376
 9888SOL    HW230350   3.004   4.556   6.807 -0.9473 -0.0933 -1.0714
 9889SOL     OW30351   3.459   1.504   7.762 -0.1334  0.1777  0.2582
 9889SOL    HW130352   3.554   1.500   7.771 -0.0608  1.4956  0.2259
 9889SOL    HW230353   3.444   1.526   7.670 -0.3945  1.6375  0.6234
 9890SOL     OW30354   1.128   0.727   2.035  0.3122  0.4182 -0.0120
 9890SOL    HW130355   1.134   0.762   1.946 -3.3073  0.3692 -0.4547
 9890SOL    HW230356   1.099   0.802   2.088  0.4116 -0.0217  0.6778
 9891SOL     OW30357   4.510   7.703   4.018 -0.1812 -1.0723 -0.1394
 9891SOL    HW130358   4.606   7.700   4.025 -0.0138  1.0021 -0.6580
 9891SOL    HW230359   4.495   7.750   3.936 -1.6444 -0.7907  0.2776
 9892SOL     OW30360   3.150   1.537   6.284  0.2343 -0.5337  0.4212
 9892SOL    HW130361   3.077   1.543   6.223  2.0787 -0.5029 -1.9113
 9892SOL    HW230362   3.132   1.458   6.335  0.9034 -3.5194 -3.5189
 9893SOL     OW30363   3.090   1.469   0.707 -0.1085 -0.4578 -0.3145
 9893SOL    HW130364   3.110   1.474   0.800  0.2886 -1.1343 -0.3567
 9893SOL    HW230365   3.072   1.377   0.690 -2.6644 -0.0145 -0.4347
 9894SOL     OW30366   1.410   5.658   5.035  0.2563 -0.2521 -0.1752
 9894SOL    HW130367   1.329   5.611   5.016 -1.8693  3.3099 -1.0915
 9894SOL    HW230368   1.446   5.614   5.111 -2.3697 -2.2320  0.0792
 9895SOL     OW30369   6.898   2.926   2.159 -0.2388  0.3071  0.1199
 9895SOL    HW130370   6.812   2.929   2.118 -1.0091  0.0544  1.6552
 9895SOL    HW230371   6.886   2.873   2.238  1.1713  0.7764  0.6867
 9896SOL     OW30372   4.115   3.007   0.151 -0.0538  0.5694  0.2122
 9896SOL    HW130373   4.039   3.058   0.125 -1.2694 -1.5807 -0.6960
 9896SOL    HW230374   4.147   2.968   0.070  0.5262 -0.5007  0.9311
 9897SOL     OW30375   2.446   4.853   1.315  0.3800 -0.2367 -0.0216
 9897SOL    HW130376   2.489   4.779   1.359  0.7448  0.5748  1.0268
 9897SOL    HW230377   2.466   4.928   1.370 -2.6418  0.1414  0.7316
 9898SOL     OW30378   7.221   2.622   1.196 -0.4579 -0.3463 -0.6834
 9898SOL    HW130379   7.153   2.641   1.132  0.5935  1.9773 -1.2208
 9898SOL    HW230380   7.295   2.590   1.144  0.2184  1.0460 -0.6277
 9899SOL     OW30381   1.437   5.405   1.601 -0.1340  0.0466 -0.2196
 9899SOL    HW130382   1.405   5.328   1.649  0.4390 -1.1711 -1.6768
 9899SOL    HW230383   1.362   5.463   1.597 -1.1416 -1.2177 -0.5581
 9900SOL     OW30384   1.957   3.767   6.584 -0.1153 -0.0388 -0.1371
 9900SOL    HW130385   1.990   3.856   6.570 -0.4857 -0.2457 -2.9202
 9900SOL    HW230386   1.951   3.730   6.496  0.2033 -2.9075  0.9620
 9901SOL     OW30387   7.503   1.878   1.106 -0.2418 -0.2906 -0.6042
 9901SOL    HW130388   7.581   1.830   1.081 -0.7205  0.0635 -2.9622
 9901SOL    HW230389   7.430   1.827   1.072 -1.3159 -1.5733  3.0690
 9902SOL     OW30390   5.027   5.673   2.461 -0.5750 -0.8312 -0.0911
 9902SOL    HW130391   4.980   5.690   2.379 -1.3971 -2.1807  0.0781
 9902SOL    HW230392   5.119   5.666   2.434 -0.8858 -1.7498 -0.9951
 9903SOL     OW30393   2.356   2.402   1.574 -0.3305  0.1774 -0.0200
 9903SOL    HW130394   2.367   2.480   1.629  0.7348 -0.9220  1.3929
 9903SOL    HW230395   2.266   2.409   1.541 -0.1781  2.1114 -0.1165
 9904SOL     OW30396   3.099   7.241   7.511 -0.5537  0.0136  0.0263
 9904SOL    HW130397   3.123   7.163   7.460  0.0696  0.2639 -0.0834
 9904SOL    HW230398   3.183   7.275   7.541 -0.8056  0.7495 -0.0892
 9905SOL     OW30399   4.560   7.671   6.942  0.1005  0.1456  0.5821
 9905SOL    HW130400   4.602   7.753   6.916 -0.1307  0.2895  0.6488
 9905SOL    HW230401   4.598   7.651   7.027 -0.5444  0.7082  1.0195
 9906SOL     OW30402   6.308   0.797   4.692  0.5997  0.3075  0.4683
 9906SOL    HW130403   6.265   0.812   4.608  0.7967 -1.3206  0.0430
 9906SOL    HW230404   6.244   0.749   4.744  1.1729 -0.4091  0.5326
 9907SOL     OW30405   1.292   4.015   1.848 -0.1027  0.2037  0.2676
 9907SOL    HW130406   1.237   3.995   1.772 -0.7622 -0.6884  0.9531
 9907SOL    HW230407   1.328   4.101   1.829  1.5865 -0.9038 -2.1335
 9908SOL     OW30408   4.774   2.154   4.259  0.0323  0.2377 -0.6116
 9908SOL    HW130409   4.797   2.069   4.297  0.1345  0.1888 -0.7862
 9908SOL    HW230410   4.856   2.203   4.257 -0.5152  1.5471  2.5180
 9909SOL     OW30411   1.379   4.907   4.012  0.1379  0.0230  0.2834
 9909SOL    HW130412   1.301   4.962   4.014  1.4571  1.9926  1.7560
 9909SOL    HW230413   1.361   4.836   4.074 -1.3501 -0.9568 -1.1841
 9910SOL     OW30414   3.145   1.060   2.539  0.2879  0.1636 -0.0737
 9910SOL    HW130415   3.056   1.083   2.565  0.3522  0.8598 -0.4432
 9910SOL    HW230416   3.185   1.028   2.620 -0.1543  0.2905  0.2013
 9911SOL     OW30417   6.242   6.181   6.538  0.1779 -0.5617 -0.1932
 9911SOL    HW130418   6.188   6.174   6.617 -1.0944 -3.0305 -1.1877
 9911SOL    HW230419   6.272   6.272   6.538 -2.0801  0.2896  1.6633
 9912SOL     OW30420   2.503   7.167   1.197 -0.0354 -0.2753  0.3418
 9912SOL    HW130421   2.529   7.252   1.163  0.2012 -0.2135  0.6697
 9912SOL    HW230422   2.568   7.148   1.266 -1.0244  0.0106  1.3778
 9913SOL     OW30423   3.387   0.136   5.651  0.3542 -0.2761  0.3839
 9913SOL    HW130424   3.417   0.057   5.696 -1.1146 -0.0105  1.8958
 9913SOL    HW230425   3.301   0.155   5.689  0.3265  1.6030 -0.5069
 9914SOL     OW30426   5.026   4.694   1.121  0.0698 -0.1027  0.7604
 9914SOL    HW130427   5.037   4.789   1.123 -2.1704  0.2158  0.4802
 9914SOL    HW230428   5.030   4.668   1.213  0.7335  0.2267  0.8363
 9915SOL     OW30429   4.269   5.393   6.331 -0.1153  0.0403  0.3281
 9915SOL    HW130430   4.278   5.363   6.421 -0.9103 -0.8003  0.1345
 9915SOL    HW230431   4.297   5.485   6.334  0.8247 -0.2516  1.2301
 9916SOL     OW30432   3.967   3.103   1.238 -0.2040  0.0481 -0.2920
 9916SOL    HW130433   3.886   3.054   1.253 -0.8989  1.4670  0.9284
 9916SOL    HW230434   4.029   3.038   1.207 -1.6950 -1.1614 -0.8682
 9917SOL     OW30435   3.193   0.480   3.729  0.1978 -0.1225 -0.0559
 9917SOL    HW130436   3.227   0.569   3.739 -0.9218  0.2044  1.1335
 9917SOL    HW230437   3.131   0.486   3.656 -0.1505  0.1767  0.2571
 9918SOL     OW30438   5.324   0.510   0.296  0.4761 -0.2164 -0.2503
 9918SOL    HW130439   5.353   0.481   0.383 -0.3591 -0.1412  0.0702
 9918SOL    HW230440   5.334   0.605   0.298  0.4533 -0.2143 -0.2335
 9919SOL     OW30441   3.514   7.586   4.107  0.3289 -0.5402 -0.2566
 9919SOL    HW130442   3.523   7.625   4.020 -0.2385  1.6536  0.5930
 9919SOL    HW230443   3.604   7.583   4.141  0.4690 -0.7335 -0.6380
 9920SOL     OW30444   5.350   3.774   5.947 -0.1978  0.4079 -0.3577
 9920SOL    HW130445   5.314   3.788   5.859  0.4826 -0.2172 -0.7425
 9920SOL    HW230446   5.420   3.838   5.956 -0.7098  0.9311  0.0002
 9921SOL     OW30447   3.321   6.002   2.551 -0.1188  0.4601 -0.3197
 9921SOL    HW130448   3.408   5.967   2.570 -1.5032 -3.1531  0.2750
 9921SOL    HW230449   3.277   5.932   2.503 -2.6960  2.1571 -0.6518
 9922SOL     OW30450   6.942   0.205   4.107 -0.1143  0.6858 -0.2220
 9922SOL    HW130451   6.964   0.284   4.155 -0.3626  0.8719 -0.4099
 9922SOL    HW230452   6.974   0.133   4.161  3.7260  0.9721 -1.8354
 9923SOL     OW30453   3.101   7.279   2.212  0.2855  0.5580  0.2034
 9923SOL    HW130454   3.170   7.250   2.151  0.2108  0.4819  0.1544
 9923SOL    HW230455   3.109   7.219   2.286  0.7128  0.9725  0.5010
 9924SOL     OW30456   5.407   5.588   0.910 -0.0606  0.7004  0.0746
 9924SOL    HW130457   5.451   5.648   0.970 -0.2360  0.7466  0.1557
 9924SOL    HW230458   5.431   5.619   0.823  2.6881 -1.1049  0.0438
 9925SOL     OW30459   3.682   4.310   3.596 -0.4932  0.4903  0.1856
 9925SOL    HW130460   3.629   4.349   3.527 -2.6053 -0.8467  0.9394
 9925SOL    HW230461   3.760   4.277   3.551 -0.5568  1.9897 -1.0772
 9926SOL     OW30462   5.169   0.206   4.783  0.5800  0.0273 -0.2766
 9926SOL    HW130463   5.165   0.152   4.704 -1.4866 -0.0325 -0.1859
 9926SOL    HW230464   5.145   0.294   4.752 -3.4162 -0.5369  0.6127
 9927SOL     OW30465   5.167   5.458   6.932  0.4227 -0.0454  0.2858
 9927SOL    HW130466   5.249   5.471   6.885 -0.2781  0.1411 -0.9288
 9927SOL    HW230467   5.111   5.412   6.869 -0.6914  0.5901  0.7874
 9928SOL     OW30468   7.598   6.927   7.356  0.1872 -0.3415 -0.2903
 9928SOL    HW130469   7.631   6.963   7.274  0.2795  0.9228  0.2920
 9928SOL    HW230470   7.638   6.981   7.424 -1.3240 -0.1936  0.5128
 9929SOL     OW30471   0.367   7.593   5.698 -0.0480 -0.6617  0.0306
 9929SOL    HW130472   0.390   7.610   5.790 -0.2485 -2.3775  0.4384
 9929SOL    HW230473   0.443   7.546   5.663 -0.2515 -0.6054 -0.4863
 9930SOL     OW30474   3.561   7.654   1.200 -0.0868 -0.1865 -0.2974
 9930SOL    HW130475   3.528   7.685   1.284  1.1410  1.3963 -0.3547
 9930SOL    HW230476   3.527   7.565   1.192 -1.0967  0.0158  1.3760
 9931SOL     OW30477   6.206   6.695   4.796 -0.4147 -0.4346 -0.3645
 9931SOL    HW130478   6.275   6.644   4.840 -0.8747 -0.7497 -0.0015
 9931SOL    HW230479   6.217   6.784   4.831 -1.0902 -0.7853  0.7838
 9932SOL     OW30480   7.460   1.960   3.337 -0.6913 -0.2581 -0.4698
 9932SOL    HW130481   7.403   1.902   3.388 -0.4573  0.3499  0.5229
 9932SOL    HW230482   7.542   1.962   3.387 -0.8000  1.1637 -0.3045
 9933SOL     OW30483   7.491   5.783   4.600  0.2883 -0.1041  0.2824
 9933SOL    HW130484   7.579   5.790   4.563  1.2583  0.3007  2.5198
 9933SOL    HW230485   7.459   5.873   4.602  0.2992 -0.1063  0.5557
 9934SOL     OW30486   2.229   5.799   1.058 -0.1256 -0.0799  0.3212
 9934SOL    HW130487   2.194   5.715   1.088 -1.1365 -0.0804 -0.7388
 9934SOL    HW230488   2.172   5.822   0.984  0.8595  0.9780 -0.1265
 9935SOL     OW30489   5.892   6.379   4.556 -0.1343 -0.5030 -0.4789
 9935SOL    HW130490   5.879   6.393   4.650 -0.9898  1.8474 -0.8890
 9935SOL    HW230491   5.873   6.286   4.543 -0.8592 -0.6789  1.5337
 9936SOL     OW30492   3.905   4.462   1.397  0.1227  0.5586 -0.4177
 9936SOL    HW130493   3.911   4.540   1.452  1.3717  0.4565 -0.3824
 9936SOL    HW230494   3.878   4.393   1.457 -0.9078  0.9191 -0.4323
 9937SOL     OW30495   6.649   3.306   5.319  0.2145  0.1711 -0.0967
 9937SOL    HW130496   6.635   3.366   5.392  0.7830 -1.0540  1.0608
 9937SOL    HW230497   6.575   3.321   5.260 -1.0047  0.2403  1.4011
 9938SOL     OW30498   1.256   1.553   1.599  0.4122  0.2103  0.2060
 9938SOL    HW130499   1.280   1.645   1.587 -2.1517  0.9300 -0.0708
 9938SOL    HW230500   1.300   1.528   1.680 -1.9983  3.0443  2.6809
 9939SOL     OW30501   6.418   1.758   1.428  0.0515  0.4768  0.0836
 9939SOL    HW130502   6.323   1.762   1.441 -0.3108 -0.9953 -1.6312
 9939SOL    HW230503   6.448   1.694   1.492 -0.2667  0.2422  0.0028
 9940SOL     OW30504   4.041   4.196   3.574  0.3380  0.4594 -0.4401
 9940SOL    HW130505   4.064   4.139   3.500 -0.8487 -1.6807  0.7244
 9940SOL    HW230506   4.008   4.136   3.641 -0.5203  2.5081  1.0939
 9941SOL     OW30507   1.620   7.528   1.966 -0.2182 -0.0959 -0.6637
 9941SOL    HW130508   1.616   7.433   1.963  2.4629 -0.2626 -2.2528
 9941SOL    HW230509   1.660   7.548   2.051 -2.2005 -0.2023  0.3687
 9942SOL     OW30510   7.576   1.200   5.895  0.5449  0.5523  0.8210
 9942SOL    HW130511   7.547   1.291   5.902  1.8666  1.1697 -0.8023
 9942SOL    HW230512   7.563   1.163   5.982 -2.4670  1.4965  0.8809
 9943SOL     OW30513   1.145   2.063   3.714 -0.0677  0.1613  0.0965
 9943SOL    HW130514   1.218   2.002   3.721 -0.2565 -0.0205  0.5132
 9943SOL    HW230515   1.184   2.145   3.685  0.2464 -0.0423 -0.0578
 9944SOL     OW30516   3.742   6.538   2.496 -0.5549  0.4313 -0.5133
 9944SOL    HW130517   3.682   6.552   2.423  1.9919  1.9557 -2.5035
 9944SOL    HW230518   3.757   6.626   2.531  1.2285  0.2562 -0.7491
 9945SOL     OW30519   4.798   2.074   5.993  1.1984  0.5975  0.2463
 9945SOL    HW130520   4.888   2.102   6.008  0.9120  1.2536  0.8254
 9945SOL    HW230521   4.745   2.152   6.011  0.5351  0.2954 -0.3437
 9946SOL     OW30522   5.305   6.728   2.761  0.1460  0.4714  0.1262
 9946SOL    HW130523   5.387   6.685   2.786 -0.2685 -0.1445  0.4596
 9946SOL    HW230524   5.323   6.821   2.770  0.5307  0.3149  1.1265
 9947SOL     OW30525   5.406   3.076   2.059 -0.1703 -0.4622 -0.1160
 9947SOL    HW130526   5.354   3.079   1.979  0.0687 -0.6172 -0.2771
 9947SOL    HW230527   5.367   3.144   2.115 -0.0563 -0.0454 -0.5313
 9948SOL     OW30528   5.989   5.572   1.036  0.1210 -0.3933 -0.5511
 9948SOL    HW130529   6.081   5.598   1.031  0.3331 -1.0621 -0.2650
 9948SOL    HW230530   5.991   5.486   1.078 -0.7204  0.1603  0.6930
 9949SOL     OW30531   1.508   7.460   3.085  0.3878 -0.1537 -0.2676
 9949SOL    HW130532   1.506   7.522   3.159 -1.3675 -1.7484  1.1426
 9949SOL    HW230533   1.579   7.400   3.106  0.9310  0.3200 -0.7226
 9950SOL     OW30534   3.449   6.896   7.044 -0.0418  0.0307 -0.4417
 9950SOL    HW130535   3.508   6.968   7.022 -0.9851  0.9193 -0.1696
 9950SOL    HW230536   3.495   6.847   7.113 -0.2257  1.5717  0.8327
 9951SOL     OW30537   7.006   4.984   6.262  0.0507  0.1306  0.0312
 9951SOL    HW130538   6.984   5.065   6.217  1.0140  0.0409 -0.6392
 9951SOL    HW230539   7.031   4.924   6.192 -0.3771 -0.6646  0.5389
 9952SOL     OW30540   0.594   0.587   6.309 -0.2834 -0.1260 -0.0603
 9952SOL    HW130541   0.616   0.550   6.223  2.2533 -2.0746  1.3077
 9952SOL    HW230542   0.498   0.586   6.311 -0.4103 -0.4586 -2.6595
 9953SOL     OW30543   4.122   3.842   3.847 -0.0381 -0.3660  0.4552
 9953SOL    HW130544   4.213   3.835   3.874 -0.5920 -0.5567  2.4268
 9953SOL    HW230545   4.076   3.774   3.897 -1.0610 -1.3960 -1.6939
 9954SOL     OW30546   5.158   4.622   4.681 -0.0044  0.2225  0.2520
 9954SOL    HW130547   5.161   4.708   4.724 -1.2206  0.6467 -0.4754
 9954SOL    HW230548   5.068   4.614   4.649 -0.2126 -1.7829  1.1943
 9955SOL     OW30549   7.093   7.452   7.145 -0.4660 -0.0776 -0.1916
 9955SOL    HW130550   7.109   7.373   7.094  1.4119  0.8354 -1.1351
 9955SOL    HW230551   7.053   7.513   7.083  0.9943  0.7340 -0.3860
 9956SOL     OW30552   7.027   7.074   4.962  0.5928 -0.5821 -0.1227
 9956SOL    HW130553   7.000   7.041   5.047  3.1215 -1.0218  0.5761
 9956SOL    HW230554   6.961   7.040   4.901 -1.2115 -0.3173  1.5994
 9957SOL     OW30555   6.568   3.021   4.391  0.1765  0.1326  0.2925
 9957SOL    HW130556   6.566   2.929   4.364  1.1726  0.4337 -0.8879
 9957SOL    HW230557   6.601   3.019   4.480  0.0454 -0.6603  0.3312
 9958SOL     OW30558   4.672   3.204   4.557 -0.3779 -0.8956  0.0951
 9958SOL    HW130559   4.658   3.141   4.487  0.9744  0.1516 -1.1775
 9958SOL    HW230560   4.735   3.161   4.615 -0.0435 -1.0251 -0.3568
 9959SOL     OW30561   4.286   0.078   1.818 -0.5904  0.6682 -0.3102
 9959SOL    HW130562   4.285  -0.017   1.813  0.4094  0.6060  0.4861
 9959SOL    HW230563   4.269   0.107   1.728 -0.8353 -0.2492 -0.5692
 9960SOL     OW30564   6.034   5.481   2.616 -0.0391 -0.2004 -0.0346
 9960SOL    HW130565   5.969   5.527   2.668 -0.1405 -0.2009 -0.1586
 9960SOL    HW230566   6.112   5.536   2.620 -0.1122 -0.0945 -0.0566
 9961SOL     OW30567   7.531   2.411   3.061  0.2394 -0.5386  0.5141
 9961SOL    HW130568   7.545   2.426   3.154 -1.2241  1.2683  0.5066
 9961SOL    HW230569   7.498   2.495   3.028  0.3594 -1.2432 -1.5642
 9962SOL     OW30570   2.838   3.508   6.224  0.0552 -0.2279  0.3393
 9962SOL    HW130571   2.796   3.429   6.191 -1.4583  1.0632 -1.0379
 9962SOL    HW230572   2.789   3.531   6.303 -0.4129  0.0569 -0.0261
 9963SOL     OW30573   1.756   1.061   1.223  0.0140 -0.4137  0.2547
 9963SOL    HW130574   1.729   1.007   1.298 -1.7302 -0.7251 -0.5441
 9963SOL    HW230575   1.832   1.016   1.186 -1.2522 -2.2277 -0.2373
 9964SOL     OW30576   7.664   2.120   1.153 -0.1659 -0.0430  0.0072
 9964SOL    HW130577   7.711   2.037   1.147  0.8441  0.5440 -0.4320
 9964SOL    HW230578   7.731   2.184   1.175 -0.8040  0.7780 -0.3745
 9965SOL     OW30579   4.850   0.725   4.931  0.0811  1.1027 -0.1733
 9965SOL    HW130580   4.920   0.753   4.990 -0.2298 -0.4970  1.0094
 9965SOL    HW230581   4.788   0.678   4.987 -0.5463  0.0674 -1.6629
 9966SOL     OW30582   0.050   5.434   5.707 -0.0467  0.6048 -0.4732
 9966SOL    HW130583   0.089   5.500   5.764 -2.1590  1.1809  0.4020
 9966SOL    HW230584  -0.006   5.382   5.764 -1.1573  0.3083 -1.7672
 9967SOL     OW30585   5.381   5.967   1.711 -0.0709  0.3242  0.4097
 9967SOL    HW130586   5.465   5.947   1.668  0.9315 -0.5118  2.6112
 9967SOL    HW230587   5.317   5.963   1.640  1.0592 -3.9116 -0.6661
 9968SOL     OW30588   0.740   2.930   5.263 -0.3430  0.4378 -0.3456
 9968SOL    HW130589   0.717   2.950   5.172 -1.3651 -1.3299 -0.5329
 9968SOL    HW230590   0.656   2.916   5.306  0.1161  1.6138  1.0033
 9969SOL     OW30591   4.003   7.387   0.390 -0.3107  0.1702  0.0268
 9969SOL    HW130592   4.081   7.419   0.346  0.4509 -0.4074  0.9180
 9969SOL    HW230593   3.955   7.466   0.416  0.5997  0.5714  0.5455
 9970SOL     OW30594   3.358   4.214   0.606  0.6185 -0.3865  0.5545
 9970SOL    HW130595   3.335   4.251   0.691  0.4191  0.9275 -0.0458
 9970SOL    HW230596   3.353   4.119   0.619  1.7470 -0.2619  2.3151
 9971SOL     OW30597   4.484   4.658   4.710 -0.1265 -0.0278  0.0815
 9971SOL    HW130598   4.414   4.628   4.653  0.9267 -0.4441 -1.0385
 9971SOL    HW230599   4.502   4.584   4.767  0.7360 -0.6455 -0.9674
 9972SOL     OW30600   5.035   0.406   7.198 -0.3464  0.0596 -0.2332
 9972SOL    HW130601   5.085   0.359   7.133  1.1185  2.0252 -0.6212
 9972SOL    HW230602   5.092   0.412   7.274  0.1978  2.4911 -0.7441
 9973SOL     OW30603   2.058   3.589   5.521  0.3116  0.6208  0.4323
 9973SOL    HW130604   2.000   3.598   5.445  0.9229  0.1500 -0.1017
 9973SOL    HW230605   1.999   3.590   5.597 -0.4308 -0.2348 -0.1155
 9974SOL     OW30606   2.307   2.512   1.840  0.4869  0.0437  0.4577
 9974SOL    HW130607   2.268   2.547   1.920  1.1499  0.5809  0.5544
 9974SOL    HW230608   2.307   2.586   1.779  0.4368 -0.2293  0.1217
 9975SOL     OW30609   7.259   7.510   7.768  0.0357  0.2813  0.1243
 9975SOL    HW130610   7.327   7.474   7.710 -0.3998  0.5890 -0.5916
 9975SOL    HW230611   7.275   7.604   7.768 -0.1097  0.3059  0.3178
 9976SOL     OW30612   3.149   0.239   5.812 -0.4239 -0.2173  0.1054
 9976SOL    HW130613   3.186   0.177   5.875  0.5031  0.1598 -0.0487
 9976SOL    HW230614   3.076   0.192   5.771 -0.0464 -1.0242  0.3526
 9977SOL     OW30615   1.717   7.466   0.487  0.3126 -0.4492  0.8833
 9977SOL    HW130616   1.779   7.500   0.424  0.9982 -0.0346  1.7593
 9977SOL    HW230617   1.733   7.371   0.489  0.5023 -0.4210  0.6821
 9978SOL     OW30618   4.288   2.711   0.378  0.2101  0.2975 -0.4813
 9978SOL    HW130619   4.368   2.673   0.415 -0.7649  0.0408  1.4612
 9978SOL    HW230620   4.218   2.651   0.405 -0.9831  1.9029  0.1437
 9979SOL     OW30621   6.187   6.165   3.859  0.1808  0.3340  0.1886
 9979SOL    HW130622   6.271   6.172   3.814  0.1037 -2.3108 -0.5437
 9979SOL    HW230623   6.123   6.197   3.796  0.5564  2.1106  0.6518
 9980SOL     OW30624   0.509   3.640   7.291 -0.3040 -0.2286  0.2895
 9980SOL    HW130625   0.596   3.663   7.323 -0.6520 -0.6169  1.5480
 9980SOL    HW230626   0.477   3.574   7.353 -1.2330 -0.5784 -0.5336
 9981SOL     OW30627   6.245   1.802   7.095  0.0041  0.4291 -0.0813
 9981SOL    HW130628   6.200   1.718   7.100 -0.5501  0.5965 -1.6882
 9981SOL    HW230629   6.270   1.822   7.186 -3.0577  0.2777  0.9133
 9982SOL     OW30630   1.437   7.100   5.885 -0.2662  0.2305  0.3608
 9982SOL    HW130631   1.398   7.049   5.815 -0.2054  0.5408  0.0999
 9982SOL    HW230632   1.363   7.139   5.931 -0.2668  1.1273 -0.3646
 9983SOL     OW30633   5.597   3.276   3.431 -0.6065  0.2090  0.2794
 9983SOL    HW130634   5.667   3.329   3.467 -0.7374  0.9167 -0.5047
 9983SOL    HW230635   5.545   3.336   3.378 -0.4681 -0.7863 -1.0346
 9984SOL     OW30636   6.806   4.868   6.772 -0.1161 -0.3489  0.1073
 9984SOL    HW130637   6.738   4.925   6.808 -0.6218 -1.7022  1.4264
 9984SOL    HW230638   6.817   4.800   6.839  0.2590 -1.9482 -1.5089
 9985SOL     OW30639   0.592   6.439   6.601  0.5984  0.6312 -0.0026
 9985SOL    HW130640   0.646   6.456   6.524  0.9422 -1.0821 -0.1614
 9985SOL    HW230641   0.506   6.474   6.578  0.2874 -1.1426 -1.7965
 9986SOL     OW30642   2.611   4.798   0.432  0.5212  0.0482  0.3667
 9986SOL    HW130643   2.562   4.876   0.458 -0.3532 -0.1673 -0.5597
 9986SOL    HW230644   2.692   4.832   0.394  0.0379  0.5296 -0.2594
 9987SOL     OW30645   4.662   6.884   6.330  0.4932  0.2893 -0.3201
 9987SOL    HW130646   4.568   6.901   6.334 -0.2420 -3.0666  0.2094
 9987SOL    HW230647   4.684   6.851   6.417  0.9047 -3.6776 -1.6991
 9988SOL     OW30648   0.760   5.036   5.176 -0.3476  0.5581  0.8663
 9988SOL    HW130649   0.854   5.036   5.192 -0.2566 -1.9626  0.6494
 9988SOL    HW230650   0.746   4.963   5.116 -2.5491  0.3409  1.5609
 9989SOL     OW30651   2.187   1.779   1.738  0.2277 -0.1793  0.5865
 9989SOL    HW130652   2.101   1.745   1.715 -0.0164 -1.3156  2.8343
 9989SOL    HW230653   2.197   1.859   1.687 -1.4792 -0.8467 -0.8771
 9990SOL     OW30654   7.642   6.019   4.450 -0.2299  0.6621 -0.1069
 9990SOL    HW130655   7.657   5.951   4.385 -0.9899  0.6707 -0.3004
 9990SOL    HW230656   7.567   6.068   4.417 -0.9647  0.3444  1.0282
 9991SOL     OW30657   2.314   2.712   1.645 -0.4705  0.1938  0.4668
 9991SOL    HW130658   2.356   2.797   1.661 -0.3127 -0.1501  2.0002
 9991SOL    HW230659   2.286   2.717   1.554 -0.1180  1.7460  0.4040
 9992SOL     OW30660   5.401   2.641   5.780  0.0664 -0.0690  0.5176
 9992SOL    HW130661   5.481   2.633   5.832  0.1655 -2.3637  0.0950
 9992SOL    HW230662   5.428   2.617   5.691 -1.1495 -1.3519  0.4655
 9993SOL     OW30663   1.949   0.722   5.756  0.1176  0.3975  0.5301
 9993SOL    HW130664   2.038   0.711   5.722  0.1749 -1.2047  1.1187
 9993SOL    HW230665   1.942   0.657   5.826 -0.4688  2.5969  2.6564
 9994SOL     OW30666   5.144   3.103   0.808 -0.1221 -0.1977  0.3240
 9994SOL    HW130667   5.160   3.090   0.714 -1.0245  1.1790 -0.0540
 9994SOL    HW230668   5.189   3.030   0.850  0.1589 -0.9501 -1.1916
 9995SOL     OW30669   3.043   0.393   6.804  0.3149 -0.3386  0.2218
 9995SOL    HW130670   2.991   0.318   6.834  0.5984 -0.5401  0.2145
 9995SOL    HW230671   3.036   0.457   6.875 -2.9691  1.1861 -1.2358
 9996SOL     OW30672   0.553   1.898   0.669  0.3020 -0.0845 -0.4275
 9996SOL    HW130673   0.472   1.934   0.705 -0.3038 -0.6582 -1.1670
 9996SOL    HW230674   0.553   1.807   0.697  0.3760 -0.2482 -0.9548
 9997SOL     OW30675   2.524   2.439   0.290  0.3209  0.0400  0.4161
 9997SOL    HW130676   2.585   2.445   0.364  0.6751  0.7742  0.0831
 9997SOL    HW230677   2.464   2.513   0.304 -0.9593 -1.0915  1.1297
 9998SOL     OW30678   4.769   5.142   0.199  0.1973 -0.2179  0.3656
 9998SOL    HW130679   4.720   5.191   0.133  0.0239 -0.1661  0.5318
 9998SOL    HW230680   4.834   5.092   0.149  1.7367  1.7101  0.3169
 9999SOL     OW30681   1.512   0.830   0.904  0.0713  0.1253  0.2413
 9999SOL    HW130682   1.477   0.916   0.880 -1.0139 -0.3952 -0.1320
 9999SOL    HW230683   1.434   0.777   0.922  0.7478 -0.1412  2.8532
10000SOL     OW30684   6.071   7.062   6.917  0.2439 -0.3042 -0.0474
10000SOL    HW130685   6.110   6.985   6.875 -0.8028 -1.1033  0.4432
10000SOL    HW230686   6.013   7.098   6.850 -0.5021 -0.8803  0.2864
10001SOL     OW30687   5.913   2.491   6.618 -0.6886 -0.1569  0.2402
10001SOL    HW130688   5.883   2.516   6.706 -1.8095  2.0416 -0.6910
10001SOL    HW230689   6.008   2.492   6.625 -0.7421 -1.2867  1.7307
10002SOL     OW30690   3.129   3.837   2.200  0.1463  0.5661 -0.4837
10002SOL    HW130691   3.112   3.926   2.168  1.0475  1.3135  0.9937
10002SOL    HW230692   3.223   3.836   2.218 -0.1114 -0.1856  0.9575
10003SOL     OW30693   2.166   1.153   3.477 -0.0391 -0.0558  0.3082
10003SOL    HW130694   2.199   1.097   3.546  2.3121  0.0011 -0.6654
10003SOL    HW230695   2.199   1.240   3.499 -3.5333  1.1057  1.7404
10004SOL     OW30696   2.477   1.094   1.510  0.5834 -0.1146 -0.1403
10004SOL    HW130697   2.403   1.076   1.452 -1.2095  0.4695  1.8154
10004SOL    HW230698   2.436   1.111   1.595  2.8879  1.5577  0.7378
10005SOL     OW30699   1.592   1.056   5.293 -0.8758 -0.1620  0.0590
10005SOL    HW130700   1.578   1.019   5.206 -0.8731 -0.2371  0.0904
10005SOL    HW230701   1.582   0.981   5.352  0.5274 -0.4037  0.0242
10006SOL     OW30702   0.228   2.480   6.795  0.0169  0.0177  0.0631
10006SOL    HW130703   0.268   2.402   6.755 -0.5108  0.2668 -0.9924
10006SOL    HW230704   0.275   2.491   6.877  0.8843 -0.7560 -0.3052
10007SOL     OW30705   3.631   3.015   2.087 -0.0413  0.2676  0.2228
10007SOL    HW130706   3.569   3.063   2.141  0.3023  0.1965  0.6878
10007SOL    HW230707   3.654   2.938   2.138 -1.0411 -0.7204 -0.7740
10008SOL     OW30708   7.396   7.329   4.501  0.0035  0.1571 -0.0835
10008SOL    HW130709   7.348   7.356   4.579  1.0578  0.4521  0.4817
10008SOL    HW230710   7.343   7.360   4.428 -0.6943  0.4144  0.5239
10009SOL     OW30711   3.824   4.076   1.303 -0.3440 -0.5665 -0.1839
10009SOL    HW130712   3.794   4.097   1.215  0.4845 -1.9999 -0.8278
10009SOL    HW230713   3.757   4.017   1.338 -0.0095 -1.0567 -0.3593
10010SOL     OW30714   7.197   3.865   2.539 -0.8181 -0.2520  0.2589
10010SOL    HW130715   7.163   3.953   2.519 -1.9814 -0.4048  1.4510
10010SOL    HW230716   7.200   3.821   2.454  0.0867  1.0199 -0.4056
10011SOL     OW30717   2.924   7.385   6.718 -0.1992  0.0596  0.1158
10011SOL    HW130718   3.004   7.335   6.735 -0.0642  0.7258  1.7468
10011SOL    HW230719   2.853   7.330   6.751 -0.2211  0.1791  0.2755
10012SOL     OW30720   0.323   1.320   6.989  0.2090  0.5657 -0.2852
10012SOL    HW130721   0.344   1.294   6.899  1.6946 -1.2617  0.5201
10012SOL    HW230722   0.230   1.301   6.998  0.1215  0.4271 -1.3311
10013SOL     OW30723   0.655   5.630   5.222 -0.2714 -0.1064  0.1760
10013SOL    HW130724   0.718   5.562   5.202  0.9554  0.8780  0.5678
10013SOL    HW230725   0.597   5.591   5.287  0.6458 -0.6447  0.6833
10014SOL     OW30726   1.422   4.213   3.041 -0.0627 -0.4143  0.1389
10014SOL    HW130727   1.434   4.132   2.992 -0.4442  0.4372 -1.4829
10014SOL    HW230728   1.504   4.260   3.030  0.3359 -0.7692  1.4879
10015SOL     OW30729   6.563   2.661   7.229 -0.3846 -0.1380  0.2163
10015SOL    HW130730   6.618   2.627   7.300  0.7243 -1.2276 -1.1317
10015SOL    HW230731   6.578   2.756   7.231  1.9364 -0.4375 -0.3846
10016SOL     OW30732   5.007   4.135   2.138 -0.2952  0.0702  0.0448
10016SOL    HW130733   5.086   4.082   2.145 -0.5999 -0.6032 -1.2824
10016SOL    HW230734   4.939   4.082   2.180 -0.7157 -0.9121 -1.7550
10017SOL     OW30735   7.433   2.248   1.294 -0.0611 -0.0229 -0.3191
10017SOL    HW130736   7.350   2.275   1.332  0.0109  1.4103 -1.1233
10017SOL    HW230737   7.497   2.309   1.331  0.0714  1.1430 -2.3741
10018SOL     OW30738   6.580   2.588   0.124 -0.1092 -0.3267 -0.1672
10018SOL    HW130739   6.658   2.532   0.120  0.0496 -0.1162 -0.0516
10018SOL    HW230740   6.516   2.537   0.174  0.0617 -0.3730  0.0060
10019SOL     OW30741   1.225   6.980   0.284 -0.1251  0.0597 -0.2057
10019SOL    HW130742   1.253   7.068   0.261  0.3728 -0.6922 -2.7538
10019SOL    HW230743   1.305   6.927   0.279 -0.5334 -0.6625  0.6448
10020SOL     OW30744   5.723   5.053   3.508  0.2978  0.4893 -0.3649
10020SOL    HW130745   5.681   5.139   3.514 -0.1321  0.3482 -1.1820
10020SOL    HW230746   5.715   5.029   3.416 -1.0018 -1.1332  0.1172
10021SOL     OW30747   6.907   7.370   0.328 -0.3218 -0.0436 -0.2427
10021SOL    HW130748   6.880   7.288   0.287 -0.0595  0.1917 -0.9016
10021SOL    HW230749   6.992   7.390   0.288 -0.7345  0.9416 -0.6734
10022SOL     OW30750   5.515   7.041   1.296  0.2510 -0.1153 -0.5924
10022SOL    HW130751   5.601   7.063   1.331 -1.0403  3.1496  0.9800
10022SOL    HW230752   5.471   6.995   1.367  0.4707 -1.2962 -1.1985
10023SOL     OW30753   2.159   5.740   2.995  0.1904 -0.1230  0.3268
10023SOL    HW130754   2.232   5.796   3.023  0.9928 -0.0971 -1.6717
10023SOL    HW230755   2.081   5.782   3.031  0.8549  1.8250 -0.4013
10024SOL     OW30756   4.276   7.210   6.443 -0.3000  0.6021  0.1345
10024SOL    HW130757   4.320   7.278   6.495  0.2265  1.0534 -0.8857
10024SOL    HW230758   4.183   7.232   6.449 -0.1514  1.2804 -0.0036
10025SOL     OW30759   2.331   3.008   2.450  0.5429  0.2183  0.3454
10025SOL    HW130760   2.260   2.982   2.391  0.0005  1.1588  0.5730
10025SOL    HW230761   2.407   2.960   2.418  0.6191  1.7925 -2.0271
10026SOL     OW30762   1.495   0.933   4.764 -0.2423 -0.6159 -0.1575
10026SOL    HW130763   1.509   0.884   4.683 -0.0880 -0.9608  0.0733
10026SOL    HW230764   1.543   1.015   4.751  0.5989 -1.0798 -0.0400
10027SOL     OW30765   4.810   0.313   5.014 -0.5222  0.2348 -0.1746
10027SOL    HW130766   4.743   0.278   4.955 -1.0544  0.0185  0.5506
10027SOL    HW230767   4.790   0.407   5.019  0.3671  0.5241 -1.4141
10028SOL     OW30768   7.621   5.549   3.474  0.5091 -0.0893  0.0034
10028SOL    HW130769   7.614   5.642   3.451 -0.9089 -0.1813  0.0171
10028SOL    HW230770   7.646   5.506   3.392 -1.0118  0.0438 -0.5681
10029SOL     OW30771   1.433   4.373   3.350 -0.0882  0.2896  0.2837
10029SOL    HW130772   1.420   4.456   3.397 -1.3354  0.1762  0.1641
10029SOL    HW230773   1.352   4.359   3.302  0.2938 -0.7688 -0.0881
10030SOL     OW30774   7.509   4.188   7.458  0.2360  0.3214  0.2533
10030SOL    HW130775   7.472   4.100   7.455  1.2096 -0.1472  1.3289
10030SOL    HW230776   7.600   4.177   7.433  0.0608  1.2394 -0.8861
10031SOL     OW30777   2.361   3.237   0.084 -0.6158  0.2160  0.4660
10031SOL    HW130778   2.306   3.306   0.123 -0.7282 -0.2235  1.1002
10031SOL    HW230779   2.433   3.226   0.146 -0.9903 -0.7567  0.7476
10032SOL     OW30780   5.198   0.651   5.253  0.6223 -0.6089 -0.0272
10032SOL    HW130781   5.241   0.666   5.337  0.1605 -2.2247  0.5348
10032SOL    HW230782   5.269   0.635   5.192  0.9164 -0.9740  0.4012
10033SOL     OW30783   0.294   4.888   5.807  0.1530 -0.4251  0.1315
10033SOL    HW130784   0.322   4.961   5.863  0.6908 -0.5404  0.0140
10033SOL    HW230785   0.198   4.890   5.812  0.1532  0.3773  0.0247
10034SOL     OW30786   1.379   1.323   5.861  0.6539  0.2342  0.2520
10034SOL    HW130787   1.357   1.234   5.834 -0.8352  0.7674 -0.4545
10034SOL    HW230788   1.449   1.313   5.925  0.3757 -1.4485  0.3312
10035SOL     OW30789   4.174   4.725   3.385 -0.1103  0.4571  0.0784
10035SOL    HW130790   4.102   4.664   3.371  1.4187 -1.2406 -0.8581
10035SOL    HW230791   4.220   4.691   3.462  0.0456  1.1783  0.3102
10036SOL     OW30792   0.407   4.979   1.180 -0.4983  0.3227 -0.0025
10036SOL    HW130793   0.368   4.940   1.258 -0.5217  0.7076  0.1789
10036SOL    HW230794   0.344   4.960   1.110 -0.8478  0.6379  0.2225
10037SOL     OW30795   0.718   0.456   5.068 -0.1726  0.4380  0.0224
10037SOL    HW130796   0.632   0.489   5.042 -0.9411 -0.1251  1.7533
10037SOL    HW230797   0.730   0.486   5.158  0.5511 -1.1991  0.5087
10038SOL     OW30798   2.667   5.558   2.473  0.7572 -0.2829  0.6995
10038SOL    HW130799   2.716   5.601   2.404  1.4909 -0.9270  0.8089
10038SOL    HW230800   2.588   5.612   2.484  0.5510 -0.2689 -0.7340
10039SOL     OW30801   5.308   1.597   6.292 -0.2547  0.1985 -0.2039
10039SOL    HW130802   5.247   1.656   6.337  0.4986 -0.5553  1.9517
10039SOL    HW230803   5.271   1.510   6.305  0.2390 -0.0861 -0.6511
10040SOL     OW30804   7.731   6.787   0.590 -0.4741 -0.4906  0.1426
10040SOL    HW130805   7.742   6.727   0.516  0.1784  0.1970 -0.3407
10040SOL    HW230806   7.684   6.862   0.553 -1.6301 -0.8546  0.8296
10041SOL     OW30807   3.139   6.290   1.814  0.5505 -0.1667  0.0542
10041SOL    HW130808   3.068   6.245   1.769  0.7434  1.3372 -1.8533
10041SOL    HW230809   3.219   6.252   1.778  0.7174 -0.1053  0.3538
10042SOL     OW30810   2.632   1.219   7.667 -0.3007  0.6176  0.4688
10042SOL    HW130811   2.655   1.175   7.749 -0.5601  0.6418  0.5554
10042SOL    HW230812   2.631   1.149   7.601  2.0270  0.8963  0.0335
10043SOL     OW30813   7.501   1.789   3.064  0.3487 -0.2786  0.6584
10043SOL    HW130814   7.471   1.858   3.124  0.5870 -0.9428  1.5730
10043SOL    HW230815   7.560   1.736   3.118  0.4955 -0.9498 -0.1541
10044SOL     OW30816   6.299   7.689   6.907  0.3943 -0.0969  0.2560
10044SOL    HW130817   6.266   7.766   6.955  0.4853 -0.9473  1.7435
10044SOL    HW230818   6.365   7.652   6.964 -0.0358 -1.6064 -0.1796
10045SOL     OW30819   4.959   0.949   2.013  0.0184  0.0965 -0.2336
10045SOL    HW130820   5.048   0.914   2.007  0.4702  0.8910  1.1945
10045SOL    HW230821   4.970   1.031   2.062 -1.6314 -0.3922  1.0314
10046SOL     OW30822   3.935   6.003   3.784  0.0763  0.3373 -0.4431
10046SOL    HW130823   3.842   5.983   3.773  0.3750 -0.5095 -1.6452
10046SOL    HW230824   3.947   6.085   3.736  0.0170  0.2438 -0.6200
10047SOL     OW30825   1.704   3.925   7.629 -0.4540 -0.2373  0.9432
10047SOL    HW130826   1.615   3.938   7.663 -0.5320 -0.6651  0.9161
10047SOL    HW230827   1.705   3.833   7.600 -0.8987  0.5185 -1.7456
10048SOL     OW30828   3.483   2.782   4.465 -0.2304 -0.1822  0.1536
10048SOL    HW130829   3.398   2.755   4.431  0.2732  0.7245 -1.9559
10048SOL    HW230830   3.463   2.852   4.527 -1.0264 -0.1230 -0.1597
10049SOL     OW30831   1.258   4.738   2.932 -0.1244 -0.0265  0.2809
10049SOL    HW130832   1.274   4.722   2.839 -1.3245  0.5180 -0.0346
10049SOL    HW230833   1.319   4.679   2.977  0.6553 -0.1100 -0.8394
10050SOL     OW30834   2.534   0.938   3.594 -0.2948 -0.0676  0.0042
10050SOL    HW130835   2.563   0.854   3.629  0.0452  0.8294  2.0034
10050SOL    HW230836   2.614   0.976   3.556 -0.4131 -0.5527 -0.7512
10051SOL     OW30837   6.332   0.255   4.096 -0.4911 -0.1324  0.1305
10051SOL    HW130838   6.281   0.336   4.092 -2.6800 -1.3539  1.4254
10051SOL    HW230839   6.412   0.279   4.143 -1.6424  1.0311  1.5621
10052SOL     OW30840   0.263   2.974   6.047 -0.2736 -0.1314 -0.3586
10052SOL    HW130841   0.236   2.950   6.136  1.4349 -1.6894 -0.1815
10052SOL    HW230842   0.209   2.921   5.990  0.6110 -1.3445 -0.1057
10053SOL     OW30843   4.533   2.155   7.591 -0.0337 -0.3762  0.5771
10053SOL    HW130844   4.439   2.169   7.604 -0.1066  0.8827 -0.9927
10053SOL    HW230845   4.541   2.133   7.498  1.1375 -1.6178  0.9329
10054SOL     OW30846   4.540   2.667   1.784  1.0700 -0.2442  0.2758
10054SOL    HW130847   4.530   2.731   1.714 -0.8322 -1.0441 -0.2723
10054SOL    HW230848   4.580   2.591   1.742 -0.0674 -0.7226  0.0012
10055SOL     OW30849   2.508   7.127   2.278  0.0702 -0.0921  0.0374
10055SOL    HW130850   2.493   7.203   2.223 -1.2393 -0.0681  0.4007
10055SOL    HW230851   2.493   7.158   2.367 -0.1150 -0.6871  0.2196
10056SOL     OW30852   2.944   1.857   6.648  0.7997 -0.1017 -0.4616
10056SOL    HW130853   2.892   1.929   6.611 -0.6065 -2.2649 -3.1066
10056SOL    HW230854   2.882   1.811   6.705 -0.2908 -2.4241 -3.2723
10057SOL     OW30855   6.147   4.628   0.777 -0.1528  0.9645  0.0732
10057SOL    HW130856   6.064   4.609   0.732  0.0161  2.0144 -0.7384
10057SOL    HW230857   6.174   4.544   0.814  0.4551 -0.3603 -3.0653
10058SOL     OW30858   1.713   2.231   1.966 -0.0529 -0.2238 -0.1444
10058SOL    HW130859   1.705   2.325   1.948 -1.4084 -0.0912  0.9880
10058SOL    HW230860   1.690   2.188   1.884  1.2526  0.4068 -0.8858
10059SOL     OW30861   1.373   3.898   5.318 -0.5026 -0.1773 -0.3731
10059SOL    HW130862   1.341   3.845   5.245 -1.6630 -0.2674  0.1723
10059SOL    HW230863   1.323   3.979   5.313 -2.0067 -0.9053  1.3637
10060SOL     OW30864   5.159   5.976   4.505 -0.7814 -0.4770  0.1662
10060SOL    HW130865   5.116   5.910   4.560 -2.2805  1.8171  1.9438
10060SOL    HW230866   5.089   6.038   4.483  0.2800 -0.1175 -2.5435
10061SOL     OW30867   0.440   7.332   2.499  0.2836  0.0651  0.1272
10061SOL    HW130868   0.501   7.262   2.473 -0.6001 -0.0007 -1.9652
10061SOL    HW230869   0.460   7.404   2.439 -2.3847 -0.3574 -1.4036
10062SOL     OW30870   4.847   5.231   7.710 -0.0235  0.6552 -0.0032
10062SOL    HW130871   4.803   5.159   7.664  0.8893 -0.1433  0.3416
10062SOL    HW230872   4.914   5.188   7.763 -0.1611  1.6780  1.0422
10063SOL     OW30873   4.399   6.763   4.665  0.3675  0.2207 -0.4197
10063SOL    HW130874   4.336   6.695   4.641  0.7864 -0.9727  1.6498
10063SOL    HW230875   4.483   6.730   4.633  0.6500 -0.5327  1.0177
10064SOL     OW30876   6.962   6.502   4.876  0.2507 -0.2222  0.8184
10064SOL    HW130877   6.992   6.413   4.858 -0.4567 -0.0213 -1.6737
10064SOL    HW230878   7.025   6.536   4.940  1.2433 -2.0775  0.9059
10065SOL     OW30879   2.814   6.653   2.244  0.4687 -0.5115  0.1250
10065SOL    HW130880   2.886   6.704   2.206 -0.4923 -0.7624 -2.1833
10065SOL    HW230881   2.834   6.562   2.218  0.3723 -0.8695  1.2566
10066SOL     OW30882   1.279   2.373   6.108 -0.0116 -0.4495 -0.0800
10066SOL    HW130883   1.307   2.448   6.056  1.2265 -0.9658 -0.1882
10066SOL    HW230884   1.282   2.405   6.199 -0.5203 -0.0568 -0.2002
10067SOL     OW30885   2.307   1.845   1.301  0.5321  0.4949 -0.0802
10067SOL    HW130886   2.232   1.825   1.246 -0.1402  0.9720  0.6441
10067SOL    HW230887   2.382   1.806   1.255 -0.4917 -2.4684  0.5639
10068SOL     OW30888   3.983   5.800   1.332  0.5053  0.0198 -0.1204
10068SOL    HW130889   3.916   5.735   1.351  1.5058 -1.0979 -0.3250
10068SOL    HW230890   4.014   5.779   1.244 -0.0985  1.6336 -0.7569
10069SOL     OW30891   1.802   5.769   2.779 -0.0547 -0.2455  0.2569
10069SOL    HW130892   1.884   5.805   2.745 -0.2980 -0.0965 -0.1771
10069SOL    HW230893   1.735   5.833   2.754 -0.3348 -0.4655  0.4321
10070SOL     OW30894   1.498   6.088   5.694 -0.5501 -0.5269  0.4777
10070SOL    HW130895   1.580   6.042   5.677 -0.0520  0.9281 -1.3077
10070SOL    HW230896   1.434   6.044   5.638 -0.3626  0.0663 -0.2190
10071SOL     OW30897   5.638   3.346   1.247 -0.2304 -0.0318  0.7204
10071SOL    HW130898   5.595   3.423   1.210 -2.1655 -0.9257  0.9583
10071SOL    HW230899   5.679   3.377   1.327 -2.0672  0.5606  1.4974
10072SOL     OW30900   3.106   3.784   5.043  0.0882 -0.1598 -0.1984
10072SOL    HW130901   3.031   3.812   4.991  0.0823  0.4618  0.1340
10072SOL    HW230902   3.167   3.857   5.037  0.4902 -0.4912 -0.1229
10073SOL     OW30903   2.277   7.426   6.295  0.4010 -0.2996  0.6467
10073SOL    HW130904   2.286   7.417   6.200 -2.0725  1.4142  0.1452
10073SOL    HW230905   2.287   7.337   6.328  0.9538 -0.9994 -1.2511
10074SOL     OW30906   3.329   4.553   4.059 -0.4903 -0.8562 -0.6122
10074SOL    HW130907   3.273   4.623   4.093  0.5732 -0.2680 -0.0055
10074SOL    HW230908   3.270   4.481   4.041 -1.5666  0.0640 -0.8732
10075SOL     OW30909   6.511   4.414   4.941  0.0862 -0.0138  0.0810
10075SOL    HW130910   6.590   4.401   4.993 -1.5588 -1.4413  2.4285
10075SOL    HW230911   6.469   4.492   4.979 -0.0694  0.2427 -0.5914
10076SOL     OW30912   3.593   0.459   0.717 -0.6498 -0.0797  0.4515
10076SOL    HW130913   3.543   0.536   0.743 -0.9275 -0.2453  0.4159
10076SOL    HW230914   3.536   0.385   0.740 -1.7664 -0.2046 -2.3285
10077SOL     OW30915   5.818   5.271   5.228  0.0590  0.2122  0.5227
10077SOL    HW130916   5.731   5.280   5.267  0.2982 -0.5669  1.2585
10077SOL    HW230917   5.869   5.223   5.293  0.7325 -0.2951 -0.3535
10078SOL     OW30918   7.327   7.463   6.109 -0.8246 -0.2162  0.2349
10078SOL    HW130919   7.287   7.489   6.192 -1.0665  1.3284 -0.3184
10078SOL    HW230920   7.267   7.399   6.072  0.5555 -2.9301  2.3717
10079SOL     OW30921   6.489   7.547   6.603 -0.0049  0.2013  0.6024
10079SOL    HW130922   6.536   7.555   6.687 -0.1989  2.2011  0.5703
10079SOL    HW230923   6.558   7.531   6.539  0.3020  0.0417  0.9658
10080SOL     OW30924   1.120   5.383   0.526 -0.0960  0.3725  0.2751
10080SOL    HW130925   1.125   5.376   0.622  0.2376  0.2871  0.2506
10080SOL    HW230926   1.040   5.434   0.511 -1.2068 -1.2090  0.5444
10081SOL     OW30927   3.459   3.450   7.128 -0.2585 -0.7106 -0.0496
10081SOL    HW130928   3.462   3.370   7.181  3.0487  0.3250  1.5867
10081SOL    HW230929   3.429   3.517   7.189  1.2291  0.0556 -0.1281
10082SOL     OW30930   7.545   6.107   5.191  0.4455 -0.1482  0.7244
10082SOL    HW130931   7.577   6.099   5.101  1.3880  2.9385  0.6985
10082SOL    HW230932   7.522   6.199   5.201  0.4834 -0.3545  3.7080
10083SOL     OW30933   7.101   1.128   0.223  0.3234 -0.2441 -0.0391
10083SOL    HW130934   7.075   1.118   0.315 -1.0268 -0.5843 -0.4464
10083SOL    HW230935   7.178   1.185   0.227 -0.5421  0.9106  1.2040
10084SOL     OW30936   6.019   1.736   4.545  0.0374  0.4460  0.1612
10084SOL    HW130937   5.987   1.648   4.526  1.3837 -0.7097  2.6926
10084SOL    HW230938   6.064   1.728   4.629  1.8857  3.1691 -0.4132
10085SOL     OW30939   3.064   0.059   2.445  0.2171  1.1508 -0.3421
10085SOL    HW130940   3.068  -0.025   2.398  0.4871  0.7904  0.3144
10085SOL    HW230941   2.999   0.110   2.397  0.0219  0.5493 -0.7288
10086SOL     OW30942   5.070   2.014   3.450 -0.1841  0.4703 -0.1137
10086SOL    HW130943   5.002   2.075   3.422  0.6900  0.9777 -1.2079
10086SOL    HW230944   5.065   1.942   3.387  0.5588  0.7041 -0.4396
10087SOL     OW30945   0.787   4.003   4.177 -0.2325 -0.3076  0.1166
10087SOL    HW130946   0.773   4.051   4.259 -0.4636 -1.1590  0.5926
10087SOL    HW230947   0.725   3.930   4.181  1.7179 -2.0377  0.5666
10088SOL     OW30948   0.427   1.101   1.365  0.0063 -0.3367 -0.1188
10088SOL    HW130949   0.460   1.013   1.384  0.7146  0.2143  1.2873
10088SOL    HW230950   0.457   1.119   1.276  0.3072 -1.3025 -0.2235
10089SOL     OW30951   3.429   0.281   4.898 -0.0480  0.5338  0.4070
10089SOL    HW130952   3.514   0.317   4.924  0.7600 -1.3211  0.4184
10089SOL    HW230953   3.400   0.231   4.974 -0.9362  0.7399  0.2156
10090SOL     OW30954   4.678   5.285   2.754 -0.2425  0.1546 -0.0595
10090SOL    HW130955   4.757   5.333   2.730  0.3509 -0.5359  0.4788
10090SOL    HW230956   4.708   5.215   2.811 -1.4439  0.8935  1.5661
10091SOL     OW30957   5.817   0.629   3.432  0.0241  0.2806  0.0114
10091SOL    HW130958   5.739   0.672   3.465  0.0076  1.3146 -1.2771
10091SOL    HW230959   5.812   0.639   3.337  0.8710 -1.1342 -0.2209
10092SOL     OW30960   0.557   0.929   3.166 -0.4363  0.3662  0.0362
10092SOL    HW130961   0.536   0.836   3.163 -4.0628  1.0652 -1.6854
10092SOL    HW230962   0.565   0.949   3.259 -0.9988 -1.4255  0.5127
10093SOL     OW30963   2.917   5.945   5.258 -0.4289 -0.1779 -0.1306
10093SOL    HW130964   2.864   5.907   5.188  1.5671  1.9974 -3.1421
10093SOL    HW230965   2.883   6.034   5.267  0.5116  0.1446  0.3368
10094SOL     OW30966   5.492   4.430   6.032 -0.1028  0.1770  0.4613
10094SOL    HW130967   5.409   4.383   6.034  0.2913 -0.5501  0.1470
10094SOL    HW230968   5.481   4.495   5.962 -0.7860  0.8269  1.1612
10095SOL     OW30969   2.971   3.007   1.503  0.1276 -0.6823 -0.3116
10095SOL    HW130970   3.017   3.071   1.557 -0.5280  1.0692 -1.7069
10095SOL    HW230971   3.034   2.982   1.435  0.6259 -2.1319  0.6422
10096SOL     OW30972   5.694   3.382   5.615 -0.2428 -0.3388  0.3419
10096SOL    HW130973   5.620   3.328   5.586 -0.8567  0.0111  1.2168
10096SOL    HW230974   5.655   3.464   5.643  0.1653 -0.9630  2.9753
10097SOL     OW30975   0.622   5.733   6.853  0.1245 -0.5014 -0.7132
10097SOL    HW130976   0.591   5.715   6.765 -2.0006 -0.7439  0.0366
10097SOL    HW230977   0.610   5.827   6.864 -0.9924 -0.6980 -0.1946
10098SOL     OW30978   2.087   4.769   4.544  0.4193  0.1245 -0.3932
10098SOL    HW130979   2.091   4.855   4.585  1.0238  0.4732 -1.1418
10098SOL    HW230980   2.132   4.711   4.604  1.1471  0.5929 -0.4735
10099SOL     OW30981   1.841   3.831   1.096  0.0828 -0.1384  0.1364
10099SOL    HW130982   1.748   3.853   1.091 -0.0085 -0.5979 -0.1589
10099SOL    HW230983   1.864   3.846   1.188 -0.4716 -0.8045  0.3873
10100SOL     OW30984   3.600   0.722   7.266  0.1066  0.0175 -0.3751
10100SOL    HW130985   3.635   0.771   7.340  0.3815  0.1791 -0.6051
10100SOL    HW230986   3.678   0.685   7.223 -0.0809 -0.3980 -0.3546
10101SOL     OW30987   0.241   6.731   0.624 -0.2098  0.5331 -0.1777
10101SOL    HW130988   0.297   6.771   0.690 -1.9363 -0.3752  1.9734
10101SOL    HW230989   0.162   6.785   0.624 -1.5116 -1.2175  0.9030
10102SOL     OW30990   6.284   3.572   5.235  0.1791  0.3577 -0.5447
10102SOL    HW130991   6.368   3.544   5.272  0.2459  0.2663 -0.7671
10102SOL    HW230992   6.307   3.614   5.152 -0.1010 -0.8166 -1.2370
10103SOL     OW30993   7.651   6.135   6.397  0.2079 -0.3311  0.4140
10103SOL    HW130994   7.572   6.189   6.406  0.8228  0.5584  0.6484
10103SOL    HW230995   7.670   6.136   6.303 -0.2977 -0.8990  0.3050
10104SOL     OW30996   0.373   2.267   6.662  0.3666 -0.4869  0.0488
10104SOL    HW130997   0.344   2.255   6.572  1.4772  1.9105 -0.7069
10104SOL    HW230998   0.403   2.180   6.690 -2.3542 -1.8786 -0.9256
10105SOL     OW30999   3.382   1.973   2.759  0.0583  0.1833  0.0916
10105SOL    HW131000   3.421   1.897   2.716 -0.8755 -0.9311  1.1455
10105SOL    HW231001   3.452   2.037   2.762  1.3281 -1.1622  0.4696
10106SOL     OW31002   2.762   5.843   3.455  0.2742 -0.9081  0.0693
10106SOL    HW131003   2.719   5.806   3.378  0.1805 -2.5606  0.8816
10106SOL    HW231004   2.785   5.768   3.509  0.1805  0.2162  1.7653
10107SOL     OW31005   2.265   6.382   0.225  0.0931 -0.2683 -0.0934
10107SOL    HW131006   2.220   6.350   0.147 -0.4250 -0.1624  0.1608
10107SOL    HW231007   2.337   6.321   0.238 -1.0091 -1.4713  0.5244
10108SOL     OW31008   2.377   1.252   0.905 -0.9275  0.0561 -0.0325
10108SOL    HW131009   2.400   1.345   0.904 -1.3304  0.1863  1.0825
10108SOL    HW231010   2.281   1.251   0.906 -0.9418 -0.4000 -0.8421
10109SOL     OW31011   2.357   2.907   6.627  0.3751 -0.1212  0.1258
10109SOL    HW131012   2.309   2.854   6.564  0.8939 -0.6316  0.1465
10109SOL    HW231013   2.291   2.961   6.669 -0.0630 -0.2465 -0.4030
10110SOL     OW31014   5.556   4.212   7.594 -0.5344 -0.1391  0.3049
10110SOL    HW131015   5.582   4.120   7.595 -1.2970 -0.3690  0.0353
10110SOL    HW231016   5.529   4.231   7.684  1.5163  0.4055  0.8487
10111SOL     OW31017   6.514   3.296   7.188  0.2325  0.6921 -0.5295
10111SOL    HW131018   6.502   3.242   7.110 -2.0755  0.0677  0.1925
10111SOL    HW231019   6.444   3.361   7.184 -1.4363 -0.7333  2.0535
10112SOL     OW31020   2.387   1.764   5.315  0.0789 -0.2388 -0.4287
10112SOL    HW131021   2.396   1.706   5.391 -1.6715  1.7332  1.4133
10112SOL    HW231022   2.459   1.826   5.324 -0.0857 -0.0477 -0.4380
10113SOL     OW31023   3.072   2.540   3.649  0.4373 -0.5280 -0.3668
10113SOL    HW131024   3.131   2.566   3.579  0.0454 -1.1436 -0.9316
10113SOL    HW231025   3.093   2.448   3.666  0.5473 -0.3808  0.3435
10114SOL     OW31026   2.949   4.923   3.007  0.4263 -0.2664 -0.1646
10114SOL    HW131027   2.993   4.840   3.026 -1.2754 -1.1123  0.2174
10114SOL    HW231028   2.958   4.974   3.088  0.1269 -0.7046  0.1498
10115SOL     OW31029   3.966   3.386   0.645  0.0129 -0.5287  0.2919
10115SOL    HW131030   4.032   3.409   0.710  0.7823 -0.0834 -0.6348
10115SOL    HW231031   4.009   3.323   0.588 -0.4071 -0.3366 -0.2401
10116SOL     OW31032   4.858   5.238   4.985  0.0264 -0.4995  0.4120
10116SOL    HW131033   4.811   5.322   4.985 -0.5052 -0.6723  3.7887
10116SOL    HW231034   4.790   5.172   4.972  0.3708 -0.5309 -1.6409
10117SOL     OW31035   4.505   2.347   5.277 -0.1661  0.2987  0.1723
10117SOL    HW131036   4.567   2.326   5.346  0.1278 -1.0026 -0.4508
10117SOL    HW231037   4.425   2.300   5.302 -0.9453  2.0042  0.9978
10118SOL     OW31038   6.211   1.152   5.431 -0.2137 -0.0973  0.5067
10118SOL    HW131039   6.270   1.108   5.369  0.6469  0.0298  1.2214
10118SOL    HW231040   6.123   1.134   5.397  0.2658  2.3523 -2.4379
10119SOL     OW31041   3.950   2.865   3.114  0.0065  0.0266  0.3582
10119SOL    HW131042   3.904   2.788   3.147  1.8886 -0.9171  0.9366
10119SOL    HW231043   3.975   2.913   3.193 -2.0623  1.8905 -0.0061
10120SOL     OW31044   2.646   1.587   7.041 -0.2094  0.4515  0.2329
10120SOL    HW131045   2.608   1.668   7.009 -1.0188  0.0317  0.1041
10120SOL    HW231046   2.721   1.614   7.093 -0.2522  1.2591 -0.1155
10121SOL     OW31047   6.772   0.785   6.509  0.2102  0.3855 -0.3443
10121SOL    HW131048   6.812   0.807   6.593 -0.9892  1.1299  0.0530
10121SOL    HW231049   6.845   0.755   6.455  0.6714 -3.0058  1.8543
10122SOL     OW31050   1.640   1.444   1.453  0.0345  0.2305  0.2463
10122SOL    HW131051   1.612   1.393   1.529  1.3962 -0.7623  0.1222
10122SOL    HW231052   1.686   1.520   1.490  0.0013  0.1655  0.4198
10123SOL     OW31053   7.540   0.405   2.820 -0.0767 -0.5397 -0.4841
10123SOL    HW131054   7.575   0.409   2.909 -1.5228 -1.0184  0.1379
10123SOL    HW231055   7.590   0.335   2.777  0.7819 -0.1521 -0.1354
10124SOL     OW31056   5.711   0.028   1.863  0.4007  0.2625  0.0449
10124SOL    HW131057   5.745  -0.047   1.814  0.3487  1.2869 -1.6314
10124SOL    HW231058   5.616   0.022   1.853  0.1968 -0.7932  2.0233
10125SOL     OW31059   1.720   2.261   3.988 -0.1520 -0.5651  0.0903
10125SOL    HW131060   1.650   2.225   4.042 -0.3108  0.3200  0.4968
10125SOL    HW231061   1.771   2.316   4.047  0.9738 -1.2946 -0.1742
10126SOL     OW31062   3.300   1.253   5.400  0.0429 -0.3614 -0.0314
10126SOL    HW131063   3.243   1.182   5.369 -2.6336  1.4001  0.5334
10126SOL    HW231064   3.268   1.331   5.355  2.6964  0.6235 -0.3973
10127SOL     OW31065   5.070   3.962   7.082  0.3193 -0.3785 -0.4354
10127SOL    HW131066   5.033   4.041   7.119  1.3779  0.6126 -1.3851
10127SOL    HW231067   5.110   3.991   7.000  1.3542 -1.7594 -0.4571
10128SOL     OW31068   0.429   4.406   7.111  0.0518 -0.0254 -0.3791
10128SOL    HW131069   0.390   4.491   7.089 -1.3775 -0.5650 -0.0164
10128SOL    HW231070   0.354   4.348   7.124  0.9689 -1.0131  0.7175
10129SOL     OW31071   5.616   5.470   4.345 -0.2237 -0.2161 -0.1310
10129SOL    HW131072   5.608   5.560   4.314  0.8317  0.0727  0.3706
10129SOL    HW231073   5.631   5.419   4.265  0.7642  0.2816 -0.2858
10130SOL     OW31074   2.442   3.466   7.331 -0.1158  0.0378  0.3020
10130SOL    HW131075   2.468   3.422   7.412  0.3340  1.3702  0.9035
10130SOL    HW231076   2.522   3.508   7.300 -0.6377  0.8174  0.0000
10131SOL     OW31077   6.487   2.786   1.351 -0.4761  0.1426  0.1967
10131SOL    HW131078   6.462   2.821   1.436  1.2511  1.1200  0.3441
10131SOL    HW231079   6.574   2.820   1.335  0.4513 -2.3576 -0.6673
10132SOL     OW31080   0.940   6.991   1.515 -0.2136  0.8118 -0.3142
10132SOL    HW131081   0.880   6.936   1.465 -0.2950 -0.0090  0.6499
10132SOL    HW231082   0.885   7.030   1.583  0.4837 -0.8510  1.3018
10133SOL     OW31083   7.599   0.609   1.970 -0.1942  0.5703  0.0832
10133SOL    HW131084   7.615   0.616   2.064  1.2231 -0.1117 -0.0871
10133SOL    HW231085   7.644   0.684   1.932  1.8830 -0.7860 -0.3003
10134SOL     OW31086   3.161   5.918   3.903 -0.1036  0.2840 -0.1452
10134SOL    HW131087   3.081   5.880   3.869 -0.1755  0.5604 -0.2879
10134SOL    HW231088   3.201   5.961   3.827 -0.6834  1.6333  0.2844
10135SOL     OW31089   1.809   5.503   2.744 -0.2168  0.2626 -0.6066
10135SOL    HW131090   1.810   5.597   2.761  0.8659  0.6875 -2.6965
10135SOL    HW231091   1.867   5.466   2.812  0.4237  1.2805 -0.5783
10136SOL     OW31092   5.623   5.432   4.620  0.2809 -0.6819  0.0547
10136SOL    HW131093   5.627   5.469   4.532  0.0915  0.4022  0.4927
10136SOL    HW231094   5.714   5.437   4.652 -0.1696  1.9993  1.1319
10137SOL     OW31095   5.209   3.115   5.200 -0.2674  0.0605  0.5770
10137SOL    HW131096   5.120   3.124   5.167 -0.2734  1.0251  0.8329
10137SOL    HW231097   5.204   3.141   5.292  0.5462  1.7504  0.1951
10138SOL     OW31098   7.764   4.133   6.442  0.2701  0.6533  0.6780
10138SOL    HW131099   7.774   4.205   6.505 -0.3902  1.2965  0.0617
10138SOL    HW231100   7.764   4.176   6.357 -0.6681 -0.0276  0.3264
10139SOL     OW31101   0.015   7.278   0.017  0.0915  0.9686 -0.1853
10139SOL    HW131102   0.097   7.230  -0.000  0.2917  1.8353 -1.8129
10139SOL    HW231103  -0.000   7.329  -0.062 -0.6431  2.8464  1.0882
10140SOL     OW31104   7.114   0.034   3.588 -0.2493 -0.5023  0.4611
10140SOL    HW131105   7.158  -0.051   3.599 -2.0369 -1.2247  2.4706
10140SOL    HW231106   7.155   0.091   3.653 -0.5819 -0.4652  0.6388
10141SOL     OW31107   0.747   5.717   1.378  0.6593 -0.1633 -0.4983
10141SOL    HW131108   0.785   5.759   1.455  0.3178 -0.2289 -0.2937
10141SOL    HW231109   0.767   5.624   1.390  0.7615 -0.1513 -0.5769
10142SOL     OW31110   2.369   2.315   7.081 -0.1392 -0.3750 -0.4445
10142SOL    HW131111   2.315   2.394   7.072 -0.3714  0.0405  3.0241
10142SOL    HW231112   2.306   2.245   7.097  0.1672 -0.3364  1.1403
10143SOL     OW31113   7.755   6.837   1.058 -0.2086  0.3798  0.7046
10143SOL    HW131114   7.764   6.919   1.107  0.4797  1.3399 -0.9273
10143SOL    HW231115   7.700   6.860   0.983 -0.7355 -0.8837  0.6800
10144SOL     OW31116   5.793   2.473   2.233 -0.1985 -0.0526 -0.1337
10144SOL    HW131117   5.825   2.561   2.215 -0.1845 -0.0414 -0.0561
10144SOL    HW231118   5.818   2.422   2.156  0.3040 -0.1219  0.0727
10145SOL     OW31119   0.109   2.441   0.270  0.5093 -0.3290 -0.0163
10145SOL    HW131120   0.163   2.363   0.285 -0.3078 -0.8061  0.4809
10145SOL    HW231121   0.021   2.407   0.255 -0.6605  0.5694  3.7489
10146SOL     OW31122   3.150   4.511   7.116 -0.5280 -0.4977  0.5488
10146SOL    HW131123   3.065   4.482   7.149  0.2516 -1.7017  1.6240
10146SOL    HW231124   3.148   4.606   7.128 -1.7567 -0.4888  0.4537
10147SOL     OW31125   2.129   6.952   6.718 -0.2865 -0.3716  0.2645
10147SOL    HW131126   2.171   6.882   6.768  0.0583 -0.4430 -0.1197
10147SOL    HW231127   2.108   6.912   6.634 -1.5824 -0.4788  0.6245
10148SOL     OW31128   3.999   1.020   6.043 -0.4665  0.0391 -0.0026
10148SOL    HW131129   4.033   0.936   6.075 -0.8362  0.0651  0.4644
10148SOL    HW231130   4.024   1.021   5.950 -1.5114 -1.1308 -0.3255
10149SOL     OW31131   6.504   3.979   2.130 -0.4058  0.1247 -0.1871
10149SOL    HW131132   6.525   4.057   2.078 -1.0710 -0.2563 -1.0531
10149SOL    HW231133   6.539   3.999   2.217 -2.9204  2.5465  0.4216
10150SOL     OW31134   1.947   5.869   3.127 -0.0967  0.2961  0.2822
10150SOL    HW131135   1.878   5.884   3.062  0.6699  0.3285 -0.5585
10150SOL    HW231136   1.966   5.956   3.162  0.5036  0.5162 -0.5472
10151SOL     OW31137   7.083   0.414   5.563  0.2089  0.1335 -0.0253
10151SOL    HW131138   7.050   0.483   5.506 -0.2707 -0.5957 -0.6498
10151SOL    HW231139   7.162   0.451   5.602  0.0006  1.0035 -0.4013
10152SOL     OW31140   0.611   1.892   2.337 -0.5548  0.0520  0.2274
10152SOL    HW131141   0.613   1.916   2.429  1.8974 -0.9608  0.4860
10152SOL    HW231142   0.687   1.936   2.298 -0.4299 -1.0855 -0.8936
10153SOL     OW31143   2.270   5.821   1.504 -0.4048 -0.6179  0.9156
10153SOL    HW131144   2.360   5.790   1.518 -0.5382 -1.9609 -0.8234
10153SOL    HW231145   2.257   5.888   1.571  1.7472 -0.6832  1.4757
10154SOL     OW31146   3.588   6.767   2.047 -0.4680 -0.4330 -0.3758
10154SOL    HW131147   3.538   6.845   2.072  2.1928  0.6190  2.2011
10154SOL    HW231148   3.680   6.796   2.047  0.4844 -3.1093 -1.3246
10155SOL     OW31149   1.194   1.294   5.376 -0.3506 -0.3635  0.2575
10155SOL    HW131150   1.239   1.319   5.456 -1.4230  0.3802  0.6489
10155SOL    HW231151   1.242   1.218   5.344  0.9049  0.1429  0.8801
10156SOL     OW31152   2.522   5.612   4.990 -0.1443 -0.0538  0.3205
10156SOL    HW131153   2.497   5.588   4.901 -0.7766 -0.1168  0.5132
10156SOL    HW231154   2.617   5.601   4.992 -0.1950 -0.6349 -0.1739
10157SOL     OW31155   0.911   4.232   6.518 -0.3080  0.6288  0.2363
10157SOL    HW131156   0.929   4.213   6.610  1.7782 -0.8057 -0.3923
10157SOL    HW231157   0.848   4.304   6.520 -3.8553 -2.1128  2.8500
10158SOL     OW31158   5.776   0.317   7.375  0.4150 -0.5259 -0.2690
10158SOL    HW131159   5.712   0.360   7.318 -0.7932 -0.6035  0.9691
10158SOL    HW231160   5.809   0.387   7.431  1.0494 -0.5827 -0.5686
10159SOL     OW31161   3.502   5.688   5.815 -0.8702 -0.9320 -0.0936
10159SOL    HW131162   3.577   5.664   5.762 -0.0103  1.8593 -0.3005
10159SOL    HW231163   3.448   5.743   5.758  0.4844  2.8483  1.9176
10160SOL     OW31164   4.867   6.642   2.914  0.1958  0.4888  0.5546
10160SOL    HW131165   4.871   6.648   2.818 -0.6143 -1.8424  0.3028
10160SOL    HW231166   4.775   6.657   2.935 -0.7497 -3.7598  0.3697
10161SOL     OW31167   1.399   2.995   6.020  0.0900 -0.4862  0.4187
10161SOL    HW131168   1.332   2.936   5.985  0.1314 -0.0842 -0.3357
10161SOL    HW231169   1.395   3.073   5.965  0.8476 -0.2583  0.6716
10162SOL     OW31170   1.535   2.140   4.203  0.2993 -0.2744 -0.0038
10162SOL    HW131171   1.609   2.118   4.259 -0.8117 -1.8677  0.9104
10162SOL    HW231172   1.460   2.145   4.262 -0.0454  3.6215 -0.5414
10163SOL     OW31173   1.537   6.072   6.137  0.1151 -0.2767  0.1792
10163SOL    HW131174   1.496   6.036   6.216  1.6010 -0.6269  0.8242
10163SOL    HW231175   1.627   6.039   6.139  1.1832  2.3358  0.1049
10164SOL     OW31176   6.971   4.496   2.212 -0.1695 -0.7046  0.0601
10164SOL    HW131177   6.922   4.498   2.294 -2.4912 -0.9427 -1.2275
10164SOL    HW231178   6.956   4.408   2.178  1.1553 -0.7649 -0.4236
10165SOL     OW31179   5.391   6.240   2.781 -0.5739  0.0145 -0.4237
10165SOL    HW131180   5.423   6.245   2.691 -0.4672  0.6044 -0.3589
10165SOL    HW231181   5.351   6.153   2.788 -0.4813 -0.0772 -1.0038
10166SOL     OW31182   1.148   7.289   6.687  0.1024 -0.0937  0.6555
10166SOL    HW131183   1.164   7.304   6.781  0.9302  0.0067  0.5102
10166SOL    HW231184   1.222   7.235   6.659  0.4501  0.7752 -0.1658
10167SOL     OW31185   6.118   3.351   3.928  0.1922 -0.0864 -0.4055
10167SOL    HW131186   6.168   3.269   3.934 -0.0203 -0.5105 -3.3079
10167SOL    HW231187   6.173   3.409   3.876 -0.3104  1.1296  0.3781
10168SOL     OW31188   2.205   4.901   4.973  0.0521 -0.2442 -0.3980
10168SOL    HW131189   2.170   4.937   4.891  2.4632  0.3383 -1.2594
10168SOL    HW231190   2.188   4.969   5.038  1.1559  0.8378 -1.1986
10169SOL     OW31191   5.762   4.674   2.418 -0.4885 -0.4608  0.2555
10169SOL    HW131192   5.800   4.683   2.506 -0.9297 -1.4179  0.5538
10169SOL    HW231193   5.751   4.580   2.406  0.0303 -0.3797 -1.0363
10170SOL     OW31194   4.795   0.069   3.298  0.2102  0.0428  1.3458
10170SOL    HW131195   4.737  -0.004   3.278 -0.6791  1.1878 -0.6721
10170SOL    HW231196   4.790   0.079   3.393  0.3718 -2.4588  1.6858
10171SOL     OW31197   2.607   1.736   3.966  0.3042  0.2496 -0.2099
10171SOL    HW131198   2.637   1.707   4.052 -1.0815 -0.0216  0.2135
10171SOL    HW231199   2.521   1.696   3.956  0.2770  0.6019 -1.5613
10172SOL     OW31200   5.628   2.291   6.966 -0.8031 -0.6422 -0.9310
10172SOL    HW131201   5.615   2.286   6.872 -1.9029  1.7003 -0.9482
10172SOL    HW231202   5.553   2.244   7.003 -1.0047 -0.5346 -1.2039
10173SOL     OW31203   7.302   4.149   4.681  1.1103 -0.5826 -1.0827
10173SOL    HW131204   7.271   4.218   4.622  0.5113 -0.4297 -0.6017
10173SOL    HW231205   7.225   4.093   4.695  0.1050  1.4128  2.4486
10174SOL     OW31206   6.337   7.173   0.109  0.1796 -0.0704 -0.1276
10174SOL    HW131207   6.322   7.162   0.203  1.6182  0.5408  0.2094
10174SOL    HW231208   6.422   7.132   0.094 -0.5350 -1.1519 -1.3930
10175SOL     OW31209   6.552   2.627   6.077  0.4750  0.2186 -0.1667
10175SOL    HW131210   6.636   2.593   6.048 -0.1607  0.9790 -3.3736
10175SOL    HW231211   6.573   2.708   6.123  1.5317  0.7948 -1.5830
10176SOL     OW31212   0.474   3.497   1.627 -0.5389 -0.5946 -0.0857
10176SOL    HW131213   0.474   3.428   1.561 -0.3213 -0.7956  0.1249
10176SOL    HW231214   0.382   3.523   1.633 -1.4840 -3.8514  2.8994
10177SOL     OW31215   0.656   6.008   1.444 -0.1429 -0.1331  0.7428
10177SOL    HW131216   0.731   5.958   1.476  0.1245 -0.0808  0.2160
10177SOL    HW231217   0.628   6.061   1.519 -0.0706 -0.6461  1.1337
10178SOL     OW31218   5.410   5.800   6.682  0.0978 -0.3080 -0.0191
10178SOL    HW131219   5.403   5.890   6.712  0.1375 -0.3175  0.0188
10178SOL    HW231220   5.471   5.759   6.743  0.0212 -0.3795  0.0102
10179SOL     OW31221   3.955   7.189   6.324  0.1216 -0.1932  0.2074
10179SOL    HW131222   3.946   7.281   6.350  0.0351  0.1128 -0.8633
10179SOL    HW231223   3.866   7.162   6.300  0.4262 -0.0028 -1.2282
10180SOL     OW31224   1.840   3.818   3.769 -0.4697 -0.5104 -0.1707
10180SOL    HW131225   1.802   3.818   3.681  0.5032 -0.3393 -0.6063
10180SOL    HW231226   1.922   3.771   3.759 -0.2546 -0.3065  0.6101
10181SOL     OW31227   5.071   7.154   2.030 -0.0478 -0.1136 -0.0288
10181SOL    HW131228   5.027   7.176   2.112  0.2757  1.0501 -0.1548
10181SOL    HW231229   5.130   7.227   2.013  0.8061 -0.9165 -0.6710
10182SOL     OW31230   5.918   1.547   5.384 -0.0607  0.2738 -0.2481
10182SOL    HW131231   5.945   1.616   5.323 -1.4736  1.1092  0.0340
10182SOL    HW231232   5.828   1.569   5.408  0.2664 -0.3064  1.7528
10183SOL     OW31233   4.652   3.186   5.100 -0.5115  0.3164 -0.4086
10183SOL    HW131234   4.603   3.104   5.107 -0.8366  0.5405 -0.0103
10183SOL    HW231235   4.585   3.253   5.086 -0.0784  0.1578 -4.2269
10184SOL     OW31236   3.315   5.238   4.452  0.1201 -0.1536  0.0475
10184SOL    HW131237   3.342   5.154   4.414 -1.0176 -1.5416  2.0929
10184SOL    HW231238   3.230   5.256   4.412  0.5564  0.2465 -0.7055
10185SOL     OW31239   3.646   1.633   1.667 -1.1026 -0.5125 -0.0479
10185SOL    HW131240   3.581   1.612   1.600  1.0735 -2.6353 -1.6819
10185SOL    HW231241   3.634   1.566   1.734 -1.0594 -0.4682  0.0041
10186SOL     OW31242   7.149   1.923   2.857 -0.3293  0.5884  0.0139
10186SOL    HW131243   7.161   1.835   2.892  0.7883  0.7419  0.0549
10186SOL    HW231244   7.183   1.981   2.925 -1.4022  1.0727  0.1421
10187SOL     OW31245   5.606   5.883   5.193  0.0832  0.3685  0.2623
10187SOL    HW131246   5.587   5.932   5.273 -0.5110  0.7438 -0.0974
10187SOL    HW231247   5.598   5.948   5.123  3.1129  0.6613  0.0711
10188SOL     OW31248   4.449   3.085   4.902 -0.4520 -0.4279  0.1307
10188SOL    HW131249   4.433   3.179   4.895  0.4145 -0.2803  0.0256
10188SOL    HW231250   4.381   3.053   4.961 -0.4720  0.3432  0.5321
10189SOL     OW31251   6.523   7.365   2.095  0.2368 -0.2234  0.4167
10189SOL    HW131252   6.540   7.418   2.018  1.3840  0.4603  1.1078
10189SOL    HW231253   6.590   7.392   2.158  1.2605 -2.8541  0.6192
10190SOL     OW31254   0.371   5.784   2.130  0.1812  0.2577 -0.1544
10190SOL    HW131255   0.411   5.865   2.097 -1.5131  0.7722 -1.0568
10190SOL    HW231256   0.369   5.795   2.225  3.3080 -0.3729  0.1127
10191SOL     OW31257   5.872   5.760   5.961 -0.9080  0.0158 -0.2231
10191SOL    HW131258   5.842   5.816   6.033  1.6452  0.4033  0.6553
10191SOL    HW231259   5.967   5.769   5.962 -0.5322 -2.7506 -1.3918
10192SOL     OW31260   1.903   5.024   2.197  0.3042 -0.2211  0.0637
10192SOL    HW131261   1.974   5.071   2.240  0.1640 -0.9952  1.1947
10192SOL    HW231262   1.935   4.934   2.190  0.5119 -0.0385 -1.9280
10193SOL     OW31263   6.610   3.611   6.522  0.2782  0.0784 -0.1658
10193SOL    HW131264   6.528   3.636   6.566  0.9011  0.3336  0.8764
10193SOL    HW231265   6.659   3.692   6.514  0.2977 -0.0116 -1.1181
10194SOL     OW31266   6.809   4.642   1.751  0.4231  0.1423  0.4071
10194SOL    HW131267   6.882   4.592   1.789  0.0111  0.6562  1.9375
10194SOL    HW231268   6.824   4.637   1.657  1.3263 -1.4442  0.5921
10195SOL     OW31269   1.899   2.420   7.488 -0.3693 -0.3547 -0.1894
10195SOL    HW131270   1.921   2.348   7.547 -0.4463 -0.9617 -0.8877
10195SOL    HW231271   1.818   2.456   7.524  0.0726 -0.1234  0.5981
10196SOL     OW31272   5.241   6.777   2.284  0.2620 -0.1514  0.4175
10196SOL    HW131273   5.304   6.847   2.272  0.3031 -0.3496 -0.6392
10196SOL    HW231274   5.285   6.715   2.343  1.5266 -0.8143 -1.1382
10197SOL     OW31275   6.930   5.079   5.118  0.0701 -0.4082 -0.4284
10197SOL    HW131276   6.892   5.024   5.050  1.7566 -3.7984  1.1452
10197SOL    HW231277   7.019   5.047   5.129  0.4843  1.2702  2.0555
10198SOL     OW31278   4.095   2.528   2.187 -0.1154  0.3483 -0.1677
10198SOL    HW131279   4.052   2.456   2.141  0.0076 -0.5481  1.0720
10198SOL    HW231280   4.175   2.544   2.138  0.9361 -1.8254  0.7023
10199SOL     OW31281   5.153   7.082   7.122  0.2633  0.3879  0.8888
10199SOL    HW131282   5.184   7.139   7.052  0.8697 -0.0398  0.8042
10199SOL    HW231283   5.208   7.004   7.116 -2.4777 -1.6081 -0.9830
10200SOL     OW31284   1.155   4.133   5.690  0.3438 -0.3263  0.1607
10200SOL    HW131285   1.239   4.104   5.654  1.3008  2.8498 -0.3937
10200SOL    HW231286   1.167   4.126   5.785 -0.4203 -3.9375  0.1564
10201SOL     OW31287   4.700   5.690   1.195  0.7475 -0.0506 -0.0444
10201SOL    HW131288   4.691   5.637   1.274 -1.5334 -1.3282 -1.0881
10201SOL    HW231289   4.655   5.640   1.127  3.3152  0.6002 -2.4085
10202SOL     OW31290   1.588   3.445   5.510  0.1364  0.3755 -0.1554
10202SOL    HW131291   1.599   3.530   5.553  2.4810  0.7493 -1.3229
10202SOL    HW231292   1.586   3.466   5.417 -1.5397 -0.7030 -0.4051
10203SOL     OW31293   5.716   2.361   5.959 -0.0938  0.6016 -0.4432
10203SOL    HW131294   5.716   2.314   5.876 -0.1981  1.2444 -0.8088
10203SOL    HW231295   5.661   2.308   6.017  0.8604 -0.4307 -0.4428
10204SOL     OW31296   3.778   7.590   3.257  0.3658 -0.3009  0.3995
10204SOL    HW131297   3.853   7.531   3.249  1.6755  1.4469 -0.8614
10204SOL    HW231298   3.731   7.580   3.174 -0.7992 -1.3247  1.1491
10205SOL     OW31299   5.962   1.115   3.020  0.2240 -0.1851  0.1394
10205SOL    HW131300   5.917   1.120   3.104 -1.5284 -0.0740 -0.7578
10205SOL    HW231301   5.951   1.202   2.982  1.1597 -0.1779 -0.1274
10206SOL     OW31302   7.732   6.176   0.179 -0.2644  0.0739 -0.0648
10206SOL    HW131303   7.814   6.130   0.198 -0.0575  0.2920 -0.4132
10206SOL    HW231304   7.760   6.265   0.156 -0.7357  0.7215  1.7129
10207SOL     OW31305   7.729   4.174   7.154  0.2922 -0.0578  0.0400
10207SOL    HW131306   7.693   4.136   7.234  0.5614 -1.2701 -0.3865
10207SOL    HW231307   7.653   4.200   7.102  0.1139  0.4515  0.5445
10208SOL     OW31308   5.763   3.022   6.707  0.5515 -0.0210  0.0614
10208SOL    HW131309   5.766   2.926   6.704 -1.3069 -0.0977 -1.5104
10208SOL    HW231310   5.748   3.043   6.799  0.0359 -1.2867  0.2875
10209SOL     OW31311   4.317   2.335   6.928 -0.5012  0.0329 -0.1804
10209SOL    HW131312   4.313   2.262   6.990 -0.5428  0.5600  0.4432
10209SOL    HW231313   4.258   2.401   6.965  0.8034  1.0512  0.1522
10210SOL     OW31314   1.558   6.351   6.061 -0.0002 -0.0876 -0.0482
10210SOL    HW131315   1.544   6.265   6.100  0.8750 -0.5475 -0.7203
10210SOL    HW231316   1.525   6.343   5.972 -1.1397  0.6878  0.2784
10211SOL     OW31317   2.692   5.388   7.412 -0.1265 -0.7782  0.3172
10211SOL    HW131318   2.614   5.342   7.382 -0.7165 -0.4248  1.2691
10211SOL    HW231319   2.663   5.478   7.427  0.3206 -0.7752  1.2240
10212SOL     OW31320   7.207   2.760   6.246  0.0293  0.4912 -0.1728
10212SOL    HW131321   7.120   2.720   6.253 -0.1496  0.9534  0.3191
10212SOL    HW231322   7.222   2.769   6.152  0.7857 -2.2685 -0.3998
10213SOL     OW31323   0.803   6.070   0.207 -0.1939 -0.5621 -0.2437
10213SOL    HW131324   0.798   6.145   0.149 -1.6527  0.1430  0.7249
10213SOL    HW231325   0.853   6.005   0.159 -2.5045 -0.5484 -2.9203
10214SOL     OW31326   4.060   0.197   2.504  0.2750  0.0618 -0.0627
10214SOL    HW131327   4.127   0.260   2.531 -0.1268 -0.4513  2.3282
10214SOL    HW231328   4.025   0.233   2.422  1.3792  1.8992  0.2120
10215SOL     OW31329   1.661   5.473   3.591  0.4338  0.5927 -0.3512
10215SOL    HW131330   1.715   5.551   3.582  0.1734  0.6923 -1.1122
10215SOL    HW231331   1.589   5.487   3.529  0.2181 -0.1039 -0.2606
10216SOL     OW31332   4.027   7.035   5.709  0.1758  0.6508 -0.5624
10216SOL    HW131333   3.952   7.058   5.765  0.5966  0.0568  0.2664
10216SOL    HW231334   4.054   7.118   5.671  0.3215  1.2080  0.6939
10217SOL     OW31335   4.433   5.430   2.426  0.1366  0.0380 -0.4872
10217SOL    HW131336   4.357   5.420   2.482  0.3348 -0.6143 -0.3318
10217SOL    HW231337   4.482   5.348   2.435 -0.0906 -0.3013 -2.0026
10218SOL     OW31338   2.350   7.664   1.101  0.0932  0.1736  0.3171
10218SOL    HW131339   2.308   7.694   1.182 -1.3249  0.2979 -0.4305
10218SOL    HW231340   2.284   7.609   1.059  1.0709 -0.4474 -0.4278
10219SOL     OW31341   4.030   6.275   5.684  0.2318 -0.0141 -0.2975
10219SOL    HW131342   4.084   6.343   5.725  0.0133  0.4610 -0.7861
10219SOL    HW231343   3.983   6.321   5.614 -0.9280 -0.3861  0.2189
10220SOL     OW31344   4.830   7.073   4.916  0.7338 -0.1195 -0.2911
10220SOL    HW131345   4.853   7.158   4.877  1.0802  0.0966  0.3604
10220SOL    HW231346   4.899   7.014   4.886  2.2603  0.5391  1.6981
10221SOL     OW31347   2.505   5.715   1.594 -0.1548 -0.1163 -0.1195
10221SOL    HW131348   2.474   5.703   1.684 -0.0976 -2.1919 -0.3272
10221SOL    HW231349   2.585   5.768   1.604 -0.5126  0.2504  0.9755
10222SOL     OW31350   0.437   3.097   3.373 -0.9572  0.1882  0.0300
10222SOL    HW131351   0.416   3.156   3.445 -0.8890  0.7693 -0.4246
10222SOL    HW231352   0.528   3.072   3.387 -1.7690 -2.1702  1.8921
10223SOL     OW31353   3.297   5.055   6.453  0.3676 -0.3047  0.0220
10223SOL    HW131354   3.264   4.983   6.508  1.4977  0.1203  1.2858
10223SOL    HW231355   3.378   5.021   6.415  0.4180 -0.0284 -0.1192
10224SOL     OW31356   0.451   0.098   2.668 -0.2519  1.0164 -0.4351
10224SOL    HW131357   0.483   0.093   2.578  1.0022  0.3943  0.0251
10224SOL    HW231358   0.502   0.169   2.707 -0.0023  0.5470  0.0935
10225SOL     OW31359   3.150   6.207   2.124 -0.4942  0.1724 -0.1700
10225SOL    HW131360   3.175   6.264   2.052 -1.1605  0.5961 -0.0723
10225SOL    HW231361   3.131   6.122   2.083 -0.6145  0.3362 -0.4500
10226SOL     OW31362   0.828   5.130   7.208 -0.2675  0.0058 -0.3165
10226SOL    HW131363   0.782   5.046   7.212  0.1626 -0.2229 -0.1561
10226SOL    HW231364   0.788   5.183   7.277  0.8277 -0.7540  0.9375
10227SOL     OW31365   2.064   2.248   5.562 -0.0429 -0.3578 -0.0203
10227SOL    HW131366   2.086   2.331   5.604 -1.4954  0.7110 -1.2409
10227SOL    HW231367   2.095   2.181   5.622  1.2241  1.0648  0.9730
10228SOL     OW31368   1.800   3.019   6.973 -0.8505  0.0520 -0.0815
10228SOL    HW131369   1.884   3.037   6.930 -0.2894 -1.5095  0.2692
10228SOL    HW231370   1.823   3.000   7.064 -1.5023 -1.0093 -0.1205
10229SOL     OW31371   2.068   0.940   0.378  0.5306  0.1384 -0.0741
10229SOL    HW131372   2.123   0.930   0.456  0.0913 -2.4471  0.0253
10229SOL    HW231373   2.002   1.004   0.403  1.6414  0.9335  0.9142
10230SOL     OW31374   1.779   1.607   4.145  0.5320 -0.0699  0.0895
10230SOL    HW131375   1.749   1.638   4.231 -1.1333  0.3065 -0.5933
10230SOL    HW231376   1.860   1.655   4.130  1.5912 -1.1007  1.9935
10231SOL     OW31377   7.310   0.278   7.762 -0.1720  0.4407 -0.2369
10231SOL    HW131378   7.318   0.297   7.668 -0.2717 -0.6465 -0.4693
10231SOL    HW231379   7.261   0.353   7.797  0.9695  1.4881 -0.8136
10232SOL     OW31380   7.081   7.320   5.013 -0.5466  0.4010  0.6047
10232SOL    HW131381   7.174   7.319   4.994 -0.9190  0.1745 -1.4278
10232SOL    HW231382   7.045   7.247   4.964 -2.0583  1.6650 -0.2848
10233SOL     OW31383   5.558   5.071   2.286  0.0489  0.1171  0.1434
10233SOL    HW131384   5.645   5.105   2.268  0.4024 -0.2018  1.1535
10233SOL    HW231385   5.574   4.990   2.335 -0.8054 -0.2924 -0.2425
10234SOL     OW31386   2.264   0.991   3.673 -0.5248 -0.0475 -0.3662
10234SOL    HW131387   2.231   0.939   3.745  2.6581  1.3714  2.4163
10234SOL    HW231388   2.344   0.945   3.645 -1.9461 -0.8539 -3.5006
10235SOL     OW31389   5.766   1.967   1.728 -0.6579 -0.0003 -0.4771
10235SOL    HW131390   5.844   1.914   1.749 -1.7096 -1.0590  1.0054
10235SOL    HW231391   5.753   1.955   1.634  1.1008  0.4015 -0.8000
10236SOL     OW31392   0.895   4.293   0.636  0.2942 -0.0766 -0.1950
10236SOL    HW131393   0.967   4.291   0.698 -0.1005  0.2077  0.2772
10236SOL    HW231394   0.912   4.220   0.577  0.2938 -0.7854  0.6651
10237SOL     OW31395   2.170   6.711   7.343  0.2159  0.0353  0.6167
10237SOL    HW131396   2.089   6.699   7.393 -0.0072 -1.5039 -0.0678
10237SOL    HW231397   2.235   6.732   7.409 -0.3220 -0.7969  1.4459
10238SOL     OW31398   7.521   3.204   3.589 -0.1204  0.0314 -0.1096
10238SOL    HW131399   7.439   3.184   3.634 -0.2257  2.4616  0.9361
10238SOL    HW231400   7.588   3.158   3.640 -0.6495 -0.4891  0.1291
10239SOL     OW31401   2.963   3.685   0.327 -0.2414 -0.1807  0.3444
10239SOL    HW131402   2.975   3.680   0.422 -1.7301  0.3251  0.5945
10239SOL    HW231403   3.049   3.706   0.293  0.2363  0.0477  1.6265
10240SOL     OW31404   7.663   5.833   3.111  0.2093 -0.5220 -0.0329
10240SOL    HW131405   7.631   5.757   3.063  0.4413  0.3320 -1.6111
10240SOL    HW231406   7.757   5.835   3.093  0.0032  0.8827 -1.1739
10241SOL     OW31407   2.522   2.818   5.468 -0.0851 -0.7266 -0.1471
10241SOL    HW131408   2.612   2.830   5.436 -0.1878 -0.5631 -0.3708
10241SOL    HW231409   2.517   2.876   5.545 -0.5959  0.7768 -1.2527
10242SOL     OW31410   1.913   2.108   2.582 -0.3416  0.1016 -0.0723
10242SOL    HW131411   1.822   2.091   2.559  0.1773 -0.6812 -1.6894
10242SOL    HW231412   1.960   2.109   2.498  1.2687 -0.3956  0.7685
10243SOL     OW31413   4.236   4.223   4.236  0.3567  0.2523 -0.3813
10243SOL    HW131414   4.166   4.173   4.278  0.8012  0.6685  0.8999
10243SOL    HW231415   4.212   4.224   4.143 -1.5022  0.6344  0.0553
10244SOL     OW31416   0.280   7.352   6.775 -0.6516 -0.2271 -0.0863
10244SOL    HW131417   0.320   7.435   6.749 -0.0752 -0.9193 -1.5500
10244SOL    HW231418   0.239   7.319   6.694 -0.1128 -1.7715  0.2369
10245SOL     OW31419   3.963   5.442   1.084  0.1360  0.0875  0.2460
10245SOL    HW131420   3.891   5.414   1.028  0.4688  1.5897 -1.0395
10245SOL    HW231421   4.041   5.432   1.029  0.7921 -0.5994  1.2734
10246SOL     OW31422   2.059   3.273   2.423 -0.3162  0.1594 -0.2147
10246SOL    HW131423   2.028   3.263   2.333  0.9026  1.0619 -0.7515
10246SOL    HW231424   2.021   3.198   2.470 -1.2720 -0.1074 -1.3809
10247SOL     OW31425   1.893   5.565   3.182 -0.1301  0.1207  0.0171
10247SOL    HW131426   1.928   5.618   3.110 -1.5923  1.2722  0.1027
10247SOL    HW231427   1.836   5.501   3.139  0.5055 -0.4628  0.0260
10248SOL     OW31428   5.719   5.873   5.545  0.2138 -0.2178 -0.4089
10248SOL    HW131429   5.738   5.959   5.508 -0.2490  0.3490  0.6298
10248SOL    HW231430   5.625   5.874   5.562  0.5743  0.0294  1.8946
10249SOL     OW31431   2.735   1.769   3.681  0.5936 -0.7725 -0.0455
10249SOL    HW131432   2.689   1.822   3.746 -2.8974 -2.2593 -1.0641
10249SOL    HW231433   2.826   1.766   3.713 -0.0846  1.7397  2.5802
10250SOL     OW31434   4.389   0.152   0.054 -0.2935 -0.2382  0.0981
10250SOL    HW131435   4.386   0.212  -0.020  2.0297 -0.3604 -0.1551
10250SOL    HW231436   4.331   0.080   0.028 -1.1048  0.6610 -0.6856
10251SOL     OW31437   2.946   0.325   0.974  0.1327  0.0983  0.0362
10251SOL    HW131438   2.930   0.251   1.032  1.4377 -1.4074 -1.4442
10251SOL    HW231439   2.859   0.350   0.942 -0.3334 -0.7115  0.6561
10252SOL     OW31440   1.346   2.402   3.525 -0.0627 -0.4029  0.0520
10252SOL    HW131441   1.268   2.371   3.479 -0.3561 -0.8066  0.8116
10252SOL    HW231442   1.409   2.331   3.515 -0.2762 -0.6830  0.6333
10253SOL     OW31443   1.301   4.416   2.682  0.1773 -0.4510  0.4043
10253SOL    HW131444   1.250   4.363   2.621  0.1324  0.8964 -0.7913
10253SOL    HW231445   1.300   4.504   2.644 -0.5588  0.6614  2.7773
10254SOL     OW31446   3.915   2.859   1.595  0.3741  0.1887 -0.3471
10254SOL    HW131447   3.932   2.873   1.688  0.3322  0.1502 -0.3340
10254SOL    HW231448   3.982   2.911   1.551 -0.1823  0.9630 -0.3038
10255SOL     OW31449   0.540   2.782   3.098  0.0274  0.0671  0.6585
10255SOL    HW131450   0.618   2.827   3.065 -0.7900  0.9026 -0.1734
10255SOL    HW231451   0.489   2.850   3.141  0.1344 -0.6362  1.9378
10256SOL     OW31452   0.985   2.731   4.946  0.4555  0.3354  0.1130
10256SOL    HW131453   0.979   2.808   4.889 -1.8548 -0.7543 -1.2877
10256SOL    HW231454   1.053   2.677   4.906 -0.7236 -0.1385 -1.3635
10257SOL     OW31455   6.565   3.772   0.890  0.2770  0.3649 -0.1317
10257SOL    HW131456   6.497   3.711   0.919  0.9237 -0.0934  0.4292
10257SOL    HW231457   6.534   3.858   0.921 -0.6286  0.3440 -0.9162
10258SOL     OW31458   1.853   6.372   5.992 -0.5980 -0.4564  0.1016
10258SOL    HW131459   1.763   6.405   5.983 -0.7826 -0.6179  1.1274
10258SOL    HW231460   1.857   6.340   6.082  0.7419  0.3017  0.3363
10259SOL     OW31461   1.663   5.964   1.239 -0.6133  0.0157 -0.4152
10259SOL    HW131462   1.737   5.922   1.283 -1.2724 -1.2341 -0.4771
10259SOL    HW231463   1.613   5.892   1.202 -0.8856  0.9618 -1.9607
10260SOL     OW31464   3.841   5.196   4.573 -0.4265  0.0909  0.3924
10260SOL    HW131465   3.752   5.176   4.544 -0.2316 -1.4351  0.7814
10260SOL    HW231466   3.836   5.287   4.604 -1.9431 -0.0930  0.7750
10261SOL     OW31467   5.505   0.614   5.817 -0.7440 -0.3513 -0.0495
10261SOL    HW131468   5.473   0.574   5.736 -0.0789 -1.0266  0.0088
10261SOL    HW231469   5.510   0.708   5.797 -1.5937 -0.3780 -0.4359
10262SOL     OW31470   0.689   7.635   1.926  0.2450 -0.0294  0.3282
10262SOL    HW131471   0.696   7.716   1.976 -0.4512  0.4477 -0.3404
10262SOL    HW231472   0.618   7.586   1.968 -0.4130  0.4192 -0.2504
10263SOL     OW31473   4.732   5.310   2.260  0.3693  0.1402 -0.3281
10263SOL    HW131474   4.707   5.247   2.328 -0.7789 -0.1154 -0.9526
10263SOL    HW231475   4.722   5.396   2.302 -1.1848  0.0239 -0.4034
10264SOL     OW31476   7.329   3.631   4.181 -0.8475 -0.4254  0.1106
10264SOL    HW131477   7.244   3.635   4.137 -0.4843 -0.4820 -0.6041
10264SOL    HW231478   7.376   3.709   4.150 -0.7438 -0.2418  0.7231
10265SOL     OW31479   0.950   1.209   3.478 -0.2842  0.0064 -0.2481
10265SOL    HW131480   0.966   1.120   3.510 -0.4556  0.1359  0.2114
10265SOL    HW231481   1.029   1.257   3.501 -0.5584  0.1903  0.3251
10266SOL     OW31482   4.267   5.691   2.726 -0.3760 -0.4624  0.0251
10266SOL    HW131483   4.362   5.681   2.718 -0.3933  0.1281 -1.2139
10266SOL    HW231484   4.243   5.751   2.655 -1.4091  1.1096  1.6125
10267SOL     OW31485   4.392   3.094   2.207  0.5714 -0.3463 -0.3277
10267SOL    HW131486   4.379   3.089   2.112 -0.0379 -0.5491 -0.2359
10267SOL    HW231487   4.392   3.002   2.236 -1.3253 -0.2433  0.1319
10268SOL     OW31488   4.334   4.991   7.646  0.4391 -0.3825  0.0773
10268SOL    HW131489   4.296   4.982   7.558  1.6489 -0.0437 -0.5069
10268SOL    HW231490   4.391   5.068   7.639 -1.3618  1.2342  1.8813
10269SOL     OW31491   4.987   5.972   3.882  0.8205  0.8662  0.0750
10269SOL    HW131492   5.053   6.028   3.923  0.8258  0.2616  0.9280
10269SOL    HW231493   4.921   5.961   3.951  1.9707 -2.1385  0.8477
10270SOL     OW31494   5.983   7.620   4.090  0.0382 -0.7061  0.6441
10270SOL    HW131495   6.008   7.541   4.138  0.7122  0.0484  1.5750
10270SOL    HW231496   6.064   7.651   4.050 -0.3803 -0.9208 -0.4201
10271SOL     OW31497   0.845   1.565   0.218  0.4584 -0.4466 -0.2660
10271SOL    HW131498   0.879   1.561   0.308 -0.2998  0.9986  0.1226
10271SOL    HW231499   0.754   1.595   0.229 -0.6430 -3.1095 -1.3298
10272SOL     OW31500   2.153   5.452   5.729 -0.0706 -0.4574 -0.5333
10272SOL    HW131501   2.112   5.538   5.723  2.4895  0.9884  0.8108
10272SOL    HW231502   2.081   5.392   5.749 -1.7283  1.5972 -0.0084
10273SOL     OW31503   7.393   1.438   6.095 -0.3311 -0.0170 -0.6013
10273SOL    HW131504   7.447   1.473   6.165 -1.2656 -0.6802  0.4831
10273SOL    HW231505   7.373   1.348   6.122  1.4788 -1.2514 -3.0029
10274SOL     OW31506   3.770   6.417   3.449  0.4760 -0.0411 -0.2076
10274SOL    HW131507   3.790   6.373   3.532  3.5004 -0.8940 -1.2493
10274SOL    HW231508   3.856   6.442   3.414 -0.7934  1.6711 -2.3893
10275SOL     OW31509   2.136   6.894   7.127  0.0257  0.4105  0.2744
10275SOL    HW131510   2.116   6.978   7.169 -3.1775  0.2794 -0.7052
10275SOL    HW231511   2.167   6.838   7.198 -0.6995  1.5625  1.5506
10276SOL     OW31512   0.495   3.757   7.012  0.0337  0.0858 -1.1839
10276SOL    HW131513   0.551   3.834   7.004  1.5706 -0.7167  0.9727
10276SOL    HW231514   0.439   3.775   7.087 -1.1300 -0.0481 -1.9822
10277SOL     OW31515   1.884   1.705   6.695 -0.1110  0.2081 -0.2265
10277SOL    HW131516   1.958   1.754   6.660  0.3156 -0.0373  0.3280
10277SOL    HW231517   1.898   1.616   6.662 -1.1304  0.5250 -1.6232
10278SOL     OW31518   1.350   0.136   7.414  0.0309 -0.2280  0.3455
10278SOL    HW131519   1.305   0.117   7.331 -1.1598 -0.8601  1.1102
10278SOL    HW231520   1.431   0.086   7.408 -0.9514 -1.9378  0.3565
10279SOL     OW31521   2.909   7.629   6.842 -0.4065 -0.2400 -0.3386
10279SOL    HW131522   2.906   7.547   6.791  1.3287  0.7145 -2.1296
10279SOL    HW231523   2.956   7.606   6.921 -1.5668 -1.3621  0.0724
10280SOL     OW31524   6.175   2.867   4.736 -0.1210 -0.6364 -0.4780
10280SOL    HW131525   6.097   2.896   4.688 -0.7481  1.6722  1.6832
10280SOL    HW231526   6.248   2.886   4.676 -1.0179 -0.2049 -1.4810
10281SOL     OW31527   7.110   0.070   6.798 -0.2718 -0.5398 -0.2024
10281SOL    HW131528   7.071  -0.012   6.830 -1.3688 -0.6426 -1.7135
10281SOL    HW231529   7.043   0.136   6.815  0.4612 -0.0120  0.6666
10282SOL     OW31530   2.278   3.856   6.363  0.1182  0.2967 -0.0721
10282SOL    HW131531   2.277   3.780   6.420 -0.5838  0.0945 -0.3339
10282SOL    HW231532   2.217   3.833   6.292 -0.7711  1.4158  0.2882
10283SOL     OW31533   5.128   5.698   7.045 -0.3268 -0.5550  0.2168
10283SOL    HW131534   5.095   5.669   7.130 -0.3808  0.7222  0.6435
10283SOL    HW231535   5.154   5.617   7.001  0.9573 -1.1669  1.9783
10284SOL     OW31536   4.350   7.330   2.928 -0.7150  0.0166 -0.0995
10284SOL    HW131537   4.354   7.291   3.015  1.4138  0.9595  0.3067
10284SOL    HW231538   4.392   7.416   2.938  1.0249 -0.4502 -2.3094
10285SOL     OW31539   3.502   6.590   1.501 -0.3753 -0.0607 -0.3995
10285SOL    HW131540   3.565   6.625   1.437  0.0302 -0.1782 -0.0746
10285SOL    HW231541   3.499   6.496   1.483 -1.2159  0.0896 -1.0599
10286SOL     OW31542   2.111   3.690   3.018 -0.3753 -0.1137 -0.5980
10286SOL    HW131543   2.116   3.675   2.924 -1.7287  1.4018 -0.9512
10286SOL    HW231544   2.188   3.645   3.054  0.0339 -0.9085 -2.3839
10287SOL     OW31545   1.534   3.053   7.460  0.3517 -0.4044 -0.0295
10287SOL    HW131546   1.523   3.137   7.415  0.0018  1.3945  3.0619
10287SOL    HW231547   1.628   3.042   7.469  0.3912  0.3005  0.5385
10288SOL     OW31548   1.018   4.547   6.427 -0.0584  0.6593 -0.4974
10288SOL    HW131549   0.985   4.622   6.377 -2.4857  0.4934  0.7420
10288SOL    HW231550   0.981   4.558   6.514  0.0467 -1.6579 -0.1159
10289SOL     OW31551   4.434   3.334   1.043  0.2272 -0.0118 -0.2336
10289SOL    HW131552   4.391   3.402   0.990 -0.0475 -0.9112 -1.2063
10289SOL    HW231553   4.382   3.255   1.027  1.0281 -0.6459  0.2290
10290SOL     OW31554   1.209   4.307   5.944  0.2969  0.3740  0.3196
10290SOL    HW131555   1.193   4.231   5.999 -2.2239  0.6980  0.1893
10290SOL    HW231556   1.203   4.382   6.003 -0.8132  0.6299 -0.0818
10291SOL     OW31557   6.100   3.780   4.937 -0.5300 -0.3325  0.0690
10291SOL    HW131558   6.015   3.746   4.966 -0.4885  1.1745  2.1851
10291SOL    HW231559   6.080   3.868   4.905  0.1110 -0.2896 -0.2202
10292SOL     OW31560   7.053   7.575   2.935 -0.1575  0.1744 -0.3650
10292SOL    HW131561   7.124   7.591   2.874 -1.1467 -0.0656 -1.6076
10292SOL    HW231562   6.984   7.534   2.883 -1.4146  0.8608  0.6840
10293SOL     OW31563   5.603   6.224   3.236 -0.1312 -0.4612  0.2904
10293SOL    HW131564   5.587   6.204   3.144 -0.3791  1.6417 -0.1612
10293SOL    HW231565   5.612   6.319   3.239  1.8924 -0.6293  2.1385
10294SOL     OW31566   3.349   2.769   2.728 -0.1934  0.0327  0.4534
10294SOL    HW131567   3.325   2.723   2.808  1.5327 -3.1045 -0.6480
10294SOL    HW231568   3.442   2.788   2.738 -0.0971  0.1655 -0.5242
10295SOL     OW31569   7.177   7.212   1.570  0.0938 -0.0911  0.5775
10295SOL    HW131570   7.092   7.248   1.544  0.5275 -0.0083 -0.8213
10295SOL    HW231571   7.227   7.288   1.600  0.9082  0.5325 -2.1006
10296SOL     OW31572   4.749   4.906   0.643  0.1246  0.0351 -0.3888
10296SOL    HW131573   4.718   4.936   0.557 -2.0568  2.8358  1.1806
10296SOL    HW231574   4.821   4.966   0.665  0.3556 -0.3574 -0.0723
10297SOL     OW31575   6.879   1.400   3.061 -0.4528 -0.1027  0.2322
10297SOL    HW131576   6.924   1.456   2.997 -1.8403 -0.2551 -0.9301
10297SOL    HW231577   6.811   1.457   3.098 -1.4681 -0.7970 -0.5083
10298SOL     OW31578   0.914   6.845   0.603 -0.0328 -0.1800  0.4895
10298SOL    HW131579   0.953   6.843   0.690 -1.4116  2.5688  1.2965
10298SOL    HW231580   0.967   6.910   0.555  0.7061 -1.6523 -0.7654
10299SOL     OW31581   0.043   6.641   4.164 -0.1996 -0.3748  0.2600
10299SOL    HW131582  -0.039   6.689   4.166 -0.5602 -0.9808  0.1259
10299SOL    HW231583   0.034   6.579   4.091  0.2912 -0.5892  0.3730
10300SOL     OW31584   0.810   1.643   5.177 -0.1029 -0.0230  0.6939
10300SOL    HW131585   0.757   1.596   5.241 -0.2484  1.7242  1.9306
10300SOL    HW231586   0.892   1.662   5.224  0.3274  0.1256 -0.1008
10301SOL     OW31587   6.197   7.131   3.501  0.3519 -0.1358 -0.2591
10301SOL    HW131588   6.184   7.157   3.410 -1.0647 -0.0840 -0.0607
10301SOL    HW231589   6.184   7.037   3.501  1.4456 -0.3062 -0.2739
10302SOL     OW31590   6.046   7.624   2.140  0.1113 -0.3369  0.2605
10302SOL    HW131591   5.984   7.627   2.213  0.8659 -0.4968  0.9193
10302SOL    HW231592   6.078   7.714   2.132 -0.3903 -0.1974 -0.2515
10303SOL     OW31593   5.433   7.492   1.928  0.2074  0.2566 -0.7123
10303SOL    HW131594   5.490   7.514   1.855 -1.3662  2.1976 -1.4599
10303SOL    HW231595   5.445   7.564   1.991 -0.0332 -0.2701 -0.0447
10304SOL     OW31596   3.376   5.400   0.783 -0.0405  0.5093 -0.0628
10304SOL    HW131597   3.292   5.419   0.825  0.1756 -0.3495  0.7816
10304SOL    HW231598   3.411   5.325   0.830  3.3674  3.4964  2.8204
10305SOL     OW31599   1.732   5.157   6.782 -0.8330 -0.5217 -0.4165
10305SOL    HW131600   1.670   5.141   6.710 -2.5198 -0.1074  0.8756
10305SOL    HW231601   1.720   5.083   6.841 -0.2238 -0.3466 -0.0706
10306SOL     OW31602   6.550   6.948   6.229  0.3859  0.1984 -0.3026
10306SOL    HW131603   6.472   6.981   6.186  0.5526  0.4433 -0.4197
10306SOL    HW231604   6.526   6.860   6.259 -0.2414  0.6393  0.5090
10307SOL     OW31605   3.817   6.959   2.042  0.4549 -0.2714 -0.2243
10307SOL    HW131606   3.895   6.903   2.039 -0.2961 -1.3091 -2.2311
10307SOL    HW231607   3.831   7.023   1.973 -1.2835 -1.7063 -2.0245
10308SOL     OW31608   0.912   6.009   2.961 -0.1445 -0.1552 -0.1514
10308SOL    HW131609   0.913   6.088   2.907 -0.6256 -1.0516 -1.5286
10308SOL    HW231610   0.959   5.944   2.909 -1.8187 -1.4393 -0.1490
10309SOL     OW31611   4.098   0.824   1.216 -0.7243 -0.4651 -0.4809
10309SOL    HW131612   4.079   0.736   1.248 -1.0716 -0.6206 -1.1037
10309SOL    HW231613   4.122   0.873   1.295 -3.3676 -0.3290  0.3325
10310SOL     OW31614   5.583   5.452   0.381 -0.1890 -0.2981 -0.4239
10310SOL    HW131615   5.660   5.504   0.406 -0.6659 -0.3997  1.3996
10310SOL    HW231616   5.619   5.367   0.356  0.3848  0.0331 -0.7405
10311SOL     OW31617   0.412   6.059   2.160 -0.4407 -0.6114  0.1244
10311SOL    HW131618   0.366   6.052   2.244 -1.5170  1.5565 -0.2084
10311SOL    HW231619   0.499   6.091   2.183 -1.4642  2.3009  0.3674
10312SOL     OW31620   1.257   4.369   6.592 -0.6272  0.1487 -0.3637
10312SOL    HW131621   1.206   4.364   6.511 -2.5610  0.8574  0.7563
10312SOL    HW231622   1.239   4.456   6.626 -0.6649 -0.4926  1.3459
10313SOL     OW31623   3.058   2.018   1.798 -0.2929  0.2387 -0.2032
10313SOL    HW131624   2.985   2.042   1.741 -1.1743 -0.4498  0.6200
10313SOL    HW231625   3.019   2.009   1.885  0.4859 -1.5570 -0.0033
10314SOL     OW31626   7.398   2.438   3.844 -0.0916  0.3329 -0.5646
10314SOL    HW131627   7.438   2.412   3.927 -0.6826  0.2456 -0.2977
10314SOL    HW231628   7.360   2.357   3.809 -0.2708  0.4655 -0.6780
10315SOL     OW31629   7.416   6.990   6.122 -0.1382  0.7969 -0.3079
10315SOL    HW131630   7.477   7.062   6.138  1.1269 -0.2085 -0.3814
10315SOL    HW231631   7.463   6.933   6.060 -0.9024 -0.3197  0.1101
10316SOL     OW31632   6.462   4.345   0.032  0.1075 -0.2687  0.3195
10316SOL    HW131633   6.547   4.325   0.072 -0.0396  1.5105  1.6529
10316SOL    HW231634   6.405   4.368   0.105 -1.3218 -0.6477 -0.6278
10317SOL     OW31635   4.327   3.498   0.655  0.2624  0.0879  0.6833
10317SOL    HW131636   4.354   3.411   0.627 -0.3366  0.1293 -0.0430
10317SOL    HW231637   4.270   3.530   0.585  0.1723  0.9128  1.1162
10318SOL     OW31638   3.401   7.272   7.723  0.2809 -0.2861  0.3885
10318SOL    HW131639   3.457   7.303   7.793  1.5545 -1.4931 -0.0470
10318SOL    HW231640   3.430   7.182   7.706  0.3881  0.1149 -2.0121
10319SOL     OW31641   7.471   4.787   5.058  0.4268 -0.0329 -0.1274
10319SOL    HW131642   7.416   4.709   5.063  1.7822 -1.0844 -0.9169
10319SOL    HW231643   7.480   4.816   5.149  1.2660 -1.7922  0.3797
10320SOL     OW31644   0.630   3.997   6.952 -0.5175 -0.6975  0.0280
10320SOL    HW131645   0.632   3.951   6.868 -2.4410  0.9097 -0.9871
10320SOL    HW231646   0.595   4.084   6.931 -2.4566 -0.7165  2.6516
10321SOL     OW31647   6.002   5.259   3.396  0.1411 -0.5211 -0.6283
10321SOL    HW131648   5.922   5.210   3.376  0.3545 -0.0456 -2.9499
10321SOL    HW231649   5.972   5.337   3.442 -0.2789 -2.2699  2.3761
10322SOL     OW31650   4.949   1.854   3.928  0.1413 -0.0659 -0.2089
10322SOL    HW131651   5.000   1.923   3.971  0.3515 -0.0594 -0.4630
10322SOL    HW231652   4.981   1.773   3.966  1.0077 -0.1273 -1.0288
10323SOL     OW31653   5.045   0.295   2.898  0.3833 -0.2112 -0.2249
10323SOL    HW131654   5.065   0.386   2.873 -0.7294  0.0098 -0.3449
10323SOL    HW231655   5.034   0.249   2.815 -1.0585  0.0117 -0.1726
10324SOL     OW31656   4.799   5.644   4.738 -1.0339 -0.4407  0.0147
10324SOL    HW131657   4.862   5.678   4.802 -0.2543 -0.9948 -0.4427
10324SOL    HW231658   4.757   5.571   4.783  2.0310 -3.1946 -1.2117
10325SOL     OW31659   0.938   4.495   6.957  0.2461  0.5311  0.3604
10325SOL    HW131660   1.007   4.543   6.911  0.3438 -0.7262 -0.8695
10325SOL    HW231661   0.984   4.422   6.999 -0.3597 -0.6200 -0.8983
10326SOL     OW31662   6.771   5.225   1.651  0.1904 -0.4973 -0.2871
10326SOL    HW131663   6.725   5.187   1.726  1.1262 -1.1998 -0.0535
10326SOL    HW231664   6.724   5.307   1.634 -0.8756 -0.9837  0.1999
10327SOL     OW31665   2.975   5.410   5.001  0.5353  0.0911  0.3368
10327SOL    HW131666   2.944   5.500   5.003  0.8915  0.3195 -2.0060
10327SOL    HW231667   2.895   5.357   4.992  0.2325  0.0219  2.6945
10328SOL     OW31668   3.316   4.196   2.724 -0.1282 -0.1506  0.0498
10328SOL    HW131669   3.332   4.242   2.641 -0.0908 -0.3567 -0.0598
10328SOL    HW231670   3.380   4.124   2.724 -0.3573 -0.3573  0.0953
10329SOL     OW31671   3.034   1.790   3.076 -0.2258  0.4925  0.3669
10329SOL    HW131672   2.962   1.741   3.116  0.8823  0.0303  1.8792
10329SOL    HW231673   3.025   1.879   3.111 -0.3114  0.5428  0.2171
10330SOL     OW31674   6.448   1.758   2.438 -0.3066 -0.7184 -0.4140
10330SOL    HW131675   6.543   1.750   2.443 -0.4347 -1.9349  0.6128
10330SOL    HW231676   6.431   1.851   2.454  0.7142 -0.4040 -1.0352
10331SOL     OW31677   2.960   7.027   3.345  0.0313  0.2446  0.7971
10331SOL    HW131678   2.928   7.015   3.256  1.4457  1.5271  0.0717
10331SOL    HW231679   3.018   7.103   3.340  0.9819 -0.2957  2.5809
10332SOL     OW31680   2.133   0.388   5.869  0.5473  0.3606 -0.2092
10332SOL    HW131681   2.178   0.308   5.841  0.4742  0.2085  0.1019
10332SOL    HW231682   2.057   0.394   5.811  1.5630  1.2343 -1.5112
10333SOL     OW31683   1.892   1.047   7.087 -0.0822  0.1733  0.2372
10333SOL    HW131684   1.873   1.107   7.159 -1.2829 -0.1916  0.2484
10333SOL    HW231685   1.889   0.960   7.128 -0.7982 -0.0382 -0.2611
10334SOL     OW31686   3.110   1.486   2.074 -0.5793 -0.0318 -0.0694
10334SOL    HW131687   3.169   1.535   2.131 -0.5037  1.2030 -1.1647
10334SOL    HW231688   3.045   1.550   2.045  0.4966 -0.0911 -2.8939
10335SOL     OW31689   5.511   5.082   2.667  0.2987 -0.1505  0.2332
10335SOL    HW131690   5.457   5.150   2.627 -0.7644 -0.4016  1.1893
10335SOL    HW231691   5.513   5.012   2.601 -1.0501 -0.3691  0.3801
10336SOL     OW31692   2.331   2.447   1.154  0.3932  0.3555 -0.0542
10336SOL    HW131693   2.360   2.370   1.202  0.2909  0.5816  0.3689
10336SOL    HW231694   2.379   2.442   1.071  1.7065  0.7689  0.6619
10337SOL     OW31695   0.171   5.035   3.627 -0.1461 -0.2469  0.3023
10337SOL    HW131696   0.236   5.039   3.697  1.4385 -1.1581 -1.0516
10337SOL    HW231697   0.136   5.124   3.622 -0.6154 -0.2486  2.4935
10338SOL     OW31698   2.853   5.960   5.738 -0.2740 -0.3703 -0.3347
10338SOL    HW131699   2.855   6.041   5.788 -3.4425 -0.8091  0.6870
10338SOL    HW231700   2.933   5.914   5.764  0.1694  1.1739  1.2180
10339SOL     OW31701   4.573   0.777   1.002  0.0393  0.1617  0.2678
10339SOL    HW131702   4.566   0.729   0.919  0.0523 -0.0917  0.4098
10339SOL    HW231703   4.667   0.787   1.016  0.0359  0.2533  0.2232
10340SOL     OW31704   1.964   2.585   4.479 -0.3811  0.2274  0.3890
10340SOL    HW131705   1.898   2.556   4.417  0.3509  0.0291 -0.3041
10340SOL    HW231706   1.926   2.662   4.521 -0.7990  0.4801 -0.4474
10341SOL     OW31707   5.333   3.440   7.539  0.3329  0.3274  0.3374
10341SOL    HW131708   5.241   3.414   7.529  0.8337 -2.1371  1.3802
10341SOL    HW231709   5.340   3.523   7.491 -1.9563 -0.4333 -1.4960
10342SOL     OW31710   2.774   2.807   1.581 -0.3853 -0.1706 -0.2835
10342SOL    HW131711   2.848   2.865   1.599 -0.2500 -0.4122 -0.0510
10342SOL    HW231712   2.767   2.752   1.659 -0.2972 -0.6987 -0.6433
10343SOL     OW31713   7.718   1.546   2.805  0.0139 -0.2341 -0.5126
10343SOL    HW131714   7.757   1.483   2.745  1.5040  0.8140 -0.7022
10343SOL    HW231715   7.779   1.620   2.806 -0.4701  0.2042  1.5388
10344SOL     OW31716   2.081   1.634   7.183 -0.4722  0.1797  0.3206
10344SOL    HW131717   2.102   1.727   7.194 -0.2375 -0.0867  2.5175
10344SOL    HW231718   2.092   1.618   7.089  0.2951  2.1652  0.0262
10345SOL     OW31719   2.679   2.467   2.970 -0.1624  0.4205 -0.3317
10345SOL    HW131720   2.685   2.538   3.034  0.7942  0.2982 -0.2599
10345SOL    HW231721   2.731   2.499   2.895 -1.8861  0.8860 -1.3759
10346SOL     OW31722   7.000   5.983   4.416 -0.7644 -0.4492 -0.6550
10346SOL    HW131723   6.954   5.995   4.333  0.4701  0.5234 -1.2208
10346SOL    HW231724   6.933   5.946   4.475 -1.6934 -1.0159 -2.0182
10347SOL     OW31725   5.329   1.272   1.548  0.6295  0.2486  0.4159
10347SOL    HW131726   5.377   1.217   1.486  1.9490  0.8383  0.8804
10347SOL    HW231727   5.239   1.241   1.542  1.1381 -1.2181 -0.1482
10348SOL     OW31728   2.211   7.064   5.176 -0.2457  0.5074 -0.4331
10348SOL    HW131729   2.243   7.087   5.263 -1.8763 -0.7166  0.5392
10348SOL    HW231730   2.218   6.969   5.172  0.0442  0.5616 -1.7592
10349SOL     OW31731   2.448   2.583   7.756 -0.1794  0.2631  0.5462
10349SOL    HW131732   2.358   2.584   7.723  0.2227  0.0078 -0.5998
10349SOL    HW231733   2.468   2.675   7.774 -0.9278  0.2425  1.5809
10350SOL     OW31734   3.734   0.075   3.387 -0.1200 -0.0971  0.1326
10350SOL    HW131735   3.744   0.142   3.319  1.5373  0.0291  0.4581
10350SOL    HW231736   3.741  -0.008   3.340  0.0999 -0.0141  0.0132
10351SOL     OW31737   4.809   6.141   2.266  0.5925 -0.3003 -0.0478
10351SOL    HW131738   4.897   6.107   2.285 -0.1505 -2.6746 -0.6564
10351SOL    HW231739   4.750   6.070   2.288 -1.2061  1.1875  0.1427
10352SOL     OW31740   0.962   4.078   0.469  0.1088  0.2849  0.1921
10352SOL    HW131741   1.017   4.023   0.525 -0.7891 -0.7878  0.0547
10352SOL    HW231742   1.022   4.112   0.402  0.7208 -0.3289  0.4155
10353SOL     OW31743   2.779   6.136   3.082 -0.5108 -0.3575 -0.0803
10353SOL    HW131744   2.737   6.141   2.996 -0.3819 -2.2242 -0.2896
10353SOL    HW231745   2.871   6.153   3.065 -0.7424  1.0632 -0.0196
10354SOL     OW31746   2.740   0.181   4.748  0.0169  0.4892 -0.2572
10354SOL    HW131747   2.774   0.127   4.677  1.1197  1.3087 -0.3888
10354SOL    HW231748   2.789   0.151   4.825  1.1507  1.7058 -0.4545
10355SOL     OW31749   4.944   4.620   2.811 -0.4132  0.2325  0.0833
10355SOL    HW131750   4.933   4.525   2.803  0.5787 -0.0145  1.3642
10355SOL    HW231751   4.952   4.651   2.721  0.0206 -1.0024 -0.3272
10356SOL     OW31752   7.577   6.779   4.144 -0.3014  0.1603  0.1967
10356SOL    HW131753   7.529   6.730   4.210 -1.5778  0.3559 -0.5590
10356SOL    HW231754   7.514   6.841   4.109  0.0262 -0.6279 -1.9307
10357SOL     OW31755   2.656   1.989   3.859  0.8511  0.0351  0.0014
10357SOL    HW131756   2.671   1.905   3.901 -0.8867 -0.4713 -0.3260
10357SOL    HW231757   2.649   2.051   3.931 -2.2319 -0.8444  0.6328
10358SOL     OW31758   4.704   7.749   5.485 -0.3449  0.1170  0.4883
10358SOL    HW131759   4.775   7.772   5.425 -1.4628 -1.6374 -1.6455
10358SOL    HW231760   4.676   7.832   5.522  1.4879  1.0653 -0.1330
10359SOL     OW31761   4.334   0.798   1.643  0.2507 -0.3535 -0.4686
10359SOL    HW131762   4.240   0.784   1.655 -0.0058  0.8099 -0.9255
10359SOL    HW231763   4.356   0.866   1.707  0.4706  0.3612 -1.2767
10360SOL     OW31764   6.153   5.791   2.223  0.4902  0.7068 -0.3515
10360SOL    HW131765   6.142   5.835   2.138  1.7809  1.2565 -0.2495
10360SOL    HW231766   6.146   5.698   2.202 -2.5270  0.8691 -0.5334
10361SOL     OW31767   3.979   0.822   6.574 -0.0427 -0.2450  0.7242
10361SOL    HW131768   3.902   0.850   6.622  0.0569 -1.4702  1.6407
10361SOL    HW231769   4.048   0.814   6.641  0.2129 -1.5576  0.3255
10362SOL     OW31770   7.156   5.601   3.166  0.8622 -0.2163 -0.4495
10362SOL    HW131771   7.208   5.607   3.086 -0.0185  1.5371 -0.9162
10362SOL    HW231772   7.123   5.689   3.182 -0.2318 -0.8285  1.0207
10363SOL     OW31773   2.753   1.111   3.337 -0.1574 -0.3380  0.2061
10363SOL    HW131774   2.796   1.125   3.253 -1.6777 -1.0609 -0.7453
10363SOL    HW231775   2.736   1.199   3.370  2.1737 -0.0269  0.7348
10364SOL     OW31776   0.671   7.734   5.477 -0.0969  0.2165  0.2679
10364SOL    HW131777   0.624   7.720   5.395 -0.8428 -1.4320  0.9295
10364SOL    HW231778   0.675   7.647   5.517 -0.9692  1.1974  2.6363
10365SOL     OW31779   1.400   5.710   3.758  0.0674  0.3677 -0.4480
10365SOL    HW131780   1.322   5.739   3.804 -0.4423 -0.6255 -0.6682
10365SOL    HW231781   1.435   5.639   3.812 -0.1299 -0.3215 -1.2173
10366SOL     OW31782   1.637   6.909   4.630  0.5784 -0.4540  0.0716
10366SOL    HW131783   1.715   6.928   4.579 -1.1312 -0.0788 -2.5948
10366SOL    HW231784   1.638   6.814   4.642  0.7591 -0.6330 -1.1926
10367SOL     OW31785   7.682   7.066   3.477 -0.0582 -0.0488  0.7818
10367SOL    HW131786   7.724   7.119   3.409  1.7559 -0.1310  1.7905
10367SOL    HW231787   7.706   7.108   3.559  1.1100 -2.1377  1.5997
10368SOL     OW31788   5.696   2.270   2.892 -0.0478 -0.3027  0.2422
10368SOL    HW131789   5.678   2.364   2.901 -0.2489 -0.2982 -0.1431
10368SOL    HW231790   5.757   2.250   2.962  1.4867  0.5223 -0.7955
10369SOL     OW31791   1.416   4.897   5.421  0.6335 -0.3434 -0.5592
10369SOL    HW131792   1.353   4.964   5.395  0.5425 -0.2823 -0.1852
10369SOL    HW231793   1.456   4.931   5.501  0.4894 -0.8005 -0.2944
10370SOL     OW31794   0.679   0.119   1.081  0.2868  0.1436 -0.0490
10370SOL    HW131795   0.662   0.139   0.989 -0.8164 -0.2262  0.0590
10370SOL    HW231796   0.596   0.085   1.114  0.9149 -0.5800  0.8519
10371SOL     OW31797   4.134   3.877   6.166 -0.3220  0.3382 -0.2115
10371SOL    HW131798   4.096   3.846   6.084 -2.2621  1.6024  0.1300
10371SOL    HW231799   4.228   3.867   6.155 -0.6294 -1.1967 -1.8718
10372SOL     OW31800   5.805   6.226   2.352 -0.2460 -0.5915 -0.1235
10372SOL    HW131801   5.786   6.278   2.274 -0.0175  0.5002  0.5223
10372SOL    HW231802   5.868   6.161   2.323  2.8684  2.1774 -0.1027
10373SOL     OW31803   6.702   0.628   6.094  0.2977  0.5424 -0.5135
10373SOL    HW131804   6.668   0.654   6.009 -0.2047  1.8126  0.0466
10373SOL    HW231805   6.772   0.690   6.112 -0.9313  1.6250  0.8601
10374SOL     OW31806   1.756   2.096   1.725  0.2281  0.4045  0.3827
10374SOL    HW131807   1.820   2.159   1.691 -0.5920  1.5645  0.8942
10374SOL    HW231808   1.679   2.109   1.669  0.6095 -1.4062 -0.6213
10375SOL     OW31809   0.161   3.297   7.737  0.0154 -0.1861 -0.3801
10375SOL    HW131810   0.191   3.367   7.680  1.0613 -0.8189 -0.6322
10375SOL    HW231811   0.234   3.282   7.797 -0.3253 -0.8186 -0.1091
10376SOL     OW31812   2.314   1.863   3.854  0.0264 -0.2419  0.2437
10376SOL    HW131813   2.304   1.779   3.898 -1.1980  0.4408  1.3769
10376SOL    HW231814   2.327   1.841   3.762 -0.1600 -1.6630  0.5331
10377SOL     OW31815   7.754   6.660   0.362 -0.1732  0.0268 -0.1189
10377SOL    HW131816   7.687   6.619   0.308  0.9335 -0.8451 -0.8614
10377SOL    HW231817   7.792   6.728   0.306  0.9278 -0.8323 -0.4361
10378SOL     OW31818   7.116   2.454   6.220  0.3246  0.9051  0.0600
10378SOL    HW131819   7.211   2.464   6.232  1.0567 -0.3427 -3.2809
10378SOL    HW231820   7.092   2.527   6.163 -0.5471  0.7352  0.2057
10379SOL     OW31821   7.378   2.157   1.030  0.0281 -1.0449 -0.5116
10379SOL    HW131822   7.432   2.234   1.011  0.1098 -0.9447  0.1088
10379SOL    HW231823   7.289   2.185   1.013  0.1322 -1.0951 -1.1766
10380SOL     OW31824   3.433   7.313   4.220  0.5999 -0.0634  0.0381
10380SOL    HW131825   3.426   7.409   4.217 -1.3216 -0.1526  0.0915
10380SOL    HW231826   3.507   7.297   4.278  0.9138  1.3903  0.0969
10381SOL     OW31827   6.278   3.258   1.182  0.5539 -0.5656  0.0760
10381SOL    HW131828   6.323   3.283   1.263  0.4352 -2.5039  0.7827
10381SOL    HW231829   6.196   3.306   1.184  1.3214  0.8137  0.1711
10382SOL     OW31830   7.245   3.938   1.185 -0.5626 -0.1849 -0.2446
10382SOL    HW131831   7.312   3.870   1.192  0.4258  0.6898 -0.8675
10382SOL    HW231832   7.181   3.903   1.123 -0.0061 -0.5149 -0.6435
10383SOL     OW31833   6.534   3.969   6.377 -0.1129 -0.1983 -0.3778
10383SOL    HW131834   6.444   3.959   6.411  0.6199  0.0695  1.7874
10383SOL    HW231835   6.522   4.001   6.288 -2.1953 -1.6302 -0.7040
10384SOL     OW31836   4.660   1.339   5.260  0.1449 -0.3802  0.1553
10384SOL    HW131837   4.617   1.279   5.321  0.6837 -1.1869 -0.2392
10384SOL    HW231838   4.598   1.411   5.248  0.4465  0.3518  2.4765
10385SOL     OW31839   6.591   6.070   1.153  0.2431  0.3153 -0.0647
10385SOL    HW131840   6.516   6.128   1.157  1.1901  1.6675 -1.0953
10385SOL    HW231841   6.556   5.984   1.177 -1.5707  0.9411 -0.3319
10386SOL     OW31842   6.783   6.303   5.867  0.0530  0.1805  0.0596
10386SOL    HW131843   6.816   6.305   5.777 -2.2595 -0.6403 -0.8773
10386SOL    HW231844   6.794   6.212   5.894  2.0364  0.7012  1.1894
10387SOL     OW31845   5.523   3.558   4.044  0.2744 -0.3047  0.2780
10387SOL    HW131846   5.496   3.498   3.975  0.6481 -0.1525 -0.0031
10387SOL    HW231847   5.448   3.561   4.104 -0.0560 -0.4266 -0.1264
10388SOL     OW31848   1.108   4.939   2.135 -0.7465 -0.2020  0.1517
10388SOL    HW131849   1.026   4.919   2.181  0.3555 -0.6940  1.9974
10388SOL    HW231850   1.155   4.998   2.194  0.4153 -0.2603 -0.6775
10389SOL     OW31851   0.894   2.571   7.474  0.4334 -0.4774 -0.6300
10389SOL    HW131852   0.879   2.536   7.562  0.6173 -1.6334 -1.0366
10389SOL    HW231853   0.906   2.665   7.487 -1.1182 -0.3793  0.3969
10390SOL     OW31854   7.496   6.553   2.186  0.0020 -0.1533  0.1240
10390SOL    HW131855   7.494   6.553   2.281 -0.9621 -0.1297  0.1107
10390SOL    HW231856   7.582   6.590   2.164  0.3521 -0.4313  0.9757
10391SOL     OW31857   7.482   6.747   6.350 -0.4985 -0.2415 -0.2839
10391SOL    HW131858   7.439   6.667   6.320  1.0000 -0.9674 -0.5782
10391SOL    HW231859   7.459   6.812   6.284 -0.8604 -0.6998 -0.6187
10392SOL     OW31860   6.878   0.677   0.106 -0.1008 -0.2195 -0.0875
10392SOL    HW131861   6.903   0.750   0.162 -3.3784  0.3806  0.7594
10392SOL    HW231862   6.844   0.611   0.166 -2.3374 -0.1563 -1.2020
10393SOL     OW31863   1.752   7.160   0.084  0.1125 -0.1433  0.0180
10393SOL    HW131864   1.658   7.139   0.078  0.1309 -0.2510  0.0941
10393SOL    HW231865   1.766   7.179   0.177  0.3330 -0.9512  0.1609
10394SOL     OW31866   7.743   3.195   1.167 -0.2161 -0.2576  0.0837
10394SOL    HW131867   7.702   3.110   1.181 -0.5080  0.1511  1.8825
10394SOL    HW231868   7.769   3.224   1.254  1.4677  0.7239 -0.7029
10395SOL     OW31869   1.798   5.350   5.544  0.5114  0.3473  0.1261
10395SOL    HW131870   1.832   5.433   5.512 -0.7686  0.9678  0.2909
10395SOL    HW231871   1.785   5.364   5.638  0.6942 -0.1860  0.2341
10396SOL     OW31872   7.558   0.024   0.273  0.3245  0.0438  0.3338
10396SOL    HW131873   7.641   0.021   0.225  0.0734  1.8558 -0.3228
10396SOL    HW231874   7.582   0.008   0.364  1.8168  2.7496  0.5262
10397SOL     OW31875   1.956   0.721   1.038 -0.3276 -0.0540  0.5347
10397SOL    HW131876   2.020   0.669   1.085 -0.4462 -0.7482 -0.0524
10397SOL    HW231877   1.983   0.812   1.053  2.0071 -0.3363 -1.3352
10398SOL     OW31878   2.304   4.518   0.294 -0.6151  0.1720  0.8306
10398SOL    HW131879   2.266   4.442   0.249  1.0413 -1.0363  1.3758
10398SOL    HW231880   2.275   4.510   0.384 -1.0600  0.6339  0.7336
10399SOL     OW31881   4.677   6.634   7.385  0.4080 -0.4409 -0.0586
10399SOL    HW131882   4.713   6.547   7.369  2.3105  0.1938  0.4771
10399SOL    HW231883   4.729   6.691   7.327 -0.7853  0.3495 -0.3747
10400SOL     OW31884   6.135   1.491   7.518  0.3154 -0.0308  0.6416
10400SOL    HW131885   6.046   1.493   7.555  0.0388  0.8816 -0.0167
10400SOL    HW231886   6.156   1.399   7.509  0.1880 -0.2984  2.5536
10401SOL     OW31887   1.214   7.590   3.288  0.0387  0.0629  0.4320
10401SOL    HW131888   1.212   7.515   3.228 -0.3146 -0.0179  0.5465
10401SOL    HW231889   1.287   7.644   3.255  0.9547 -0.8225  0.9465
10402SOL     OW31890   2.002   5.385   1.083  0.0408 -0.0908 -0.1151
10402SOL    HW131891   1.959   5.389   0.997  0.3398 -0.6785 -0.2941
10402SOL    HW231892   2.021   5.292   1.096  1.2129  0.1527 -0.0112
10403SOL     OW31893   4.285   1.546   1.945 -0.1101 -0.7414  0.2935
10403SOL    HW131894   4.237   1.548   1.862  0.3449  2.6207 -0.0279
10403SOL    HW231895   4.224   1.506   2.007 -1.5244 -0.8234 -1.0868
10404SOL     OW31896   3.569   2.719   3.075 -0.6939  0.0990  0.2803
10404SOL    HW131897   3.569   2.643   3.017 -0.0469  0.9141 -0.8080
10404SOL    HW231898   3.478   2.728   3.102 -0.7596 -1.1382  0.5465
10405SOL     OW31899   1.275   3.666   0.227  0.0611 -0.2249  0.2090
10405SOL    HW131900   1.370   3.666   0.236  0.1213  1.8358  0.0567
10405SOL    HW231901   1.245   3.598   0.288  1.6329 -1.2970 -0.1591
10406SOL     OW31902   1.417   6.120   3.790 -0.7298  0.3401  0.6346
10406SOL    HW131903   1.364   6.193   3.756 -1.4031  0.8248  2.6141
10406SOL    HW231904   1.353   6.050   3.806 -0.1274 -0.6353 -0.9781
10407SOL     OW31905   5.852   2.236   5.104 -0.0507  0.0999 -0.0649
10407SOL    HW131906   5.828   2.272   5.189 -0.9364 -0.8680  0.1208
10407SOL    HW231907   5.768   2.220   5.060  0.4088  1.2289 -1.4137
10408SOL     OW31908   3.510   4.597   0.510  0.3964  0.0091 -0.0426
10408SOL    HW131909   3.476   4.543   0.439  1.0729 -0.7581  0.2105
10408SOL    HW231910   3.605   4.585   0.507  0.6048  1.4686 -0.2105
10409SOL     OW31911   7.113   3.575   4.686  0.2720  0.4824 -0.0502
10409SOL    HW131912   7.110   3.651   4.628  1.0594  0.3228 -0.3032
10409SOL    HW231913   7.041   3.519   4.656 -0.2916  1.1048  0.1190
10410SOL     OW31914   1.275   3.716   4.728  0.6929  0.2743  0.1267
10410SOL    HW131915   1.240   3.652   4.790  2.8936 -0.2433  0.9184
10410SOL    HW231916   1.320   3.663   4.662 -1.2553  0.8446 -1.7697
10411SOL     OW31917   7.242   3.888   4.377  0.4985  0.1547  0.2604
10411SOL    HW131918   7.203   3.883   4.290  2.0215  3.4448 -0.7888
10411SOL    HW231919   7.169   3.871   4.437 -1.6504  2.0236 -1.6271
10412SOL     OW31920   3.921   4.019   4.074 -0.0242 -0.8651  0.1244
10412SOL    HW131921   4.013   4.026   4.050 -0.7639 -0.0339 -3.0259
10412SOL    HW231922   3.897   3.929   4.051 -0.2216 -0.7330 -0.2118
10413SOL     OW31923   1.964   6.272   0.581  0.1272  0.1974  0.4386
10413SOL    HW131924   2.040   6.219   0.558 -1.1574 -1.7667  0.4587
10413SOL    HW231925   1.899   6.253   0.513 -1.8609 -1.6509  2.6551
10414SOL     OW31926   0.107   6.010   5.560 -0.2751  0.2137 -0.4654
10414SOL    HW131927   0.062   6.027   5.477  0.3929  0.8363 -0.7166
10414SOL    HW231928   0.142   6.096   5.586  0.6048 -0.2175 -0.1886
10415SOL     OW31929   1.984   4.834   3.101 -0.2859  0.4331  0.2421
10415SOL    HW131930   1.958   4.770   3.167 -0.0345 -1.3072 -1.2666
10415SOL    HW231931   1.905   4.852   3.051  0.2588 -1.1580 -1.2962
10416SOL     OW31932   2.663   7.522   2.950  0.2983  0.2455  0.0453
10416SOL    HW131933   2.656   7.603   3.000  0.4872  1.9906 -2.5516
10416SOL    HW231934   2.645   7.548   2.860  2.0897 -2.2761 -1.1661
10417SOL     OW31935   5.789   4.676   3.820  0.2656 -0.2411  0.1155
10417SOL    HW131936   5.801   4.589   3.781 -0.6588  0.4358 -1.8035
10417SOL    HW231937   5.863   4.728   3.787 -0.5345  0.3410 -0.8253
10418SOL     OW31938   6.597   4.596   7.357 -0.0421 -0.8890 -0.3658
10418SOL    HW131939   6.524   4.630   7.409  0.2142 -0.5420 -0.2271
10418SOL    HW231940   6.607   4.505   7.386  0.1618 -0.6670  0.2579
10419SOL     OW31941   1.393   1.178   6.578  0.2080 -0.2883  0.1982
10419SOL    HW131942   1.383   1.126   6.498 -1.8901 -1.5383  1.1853
10419SOL    HW231943   1.349   1.126   6.645 -1.5417  2.5098  1.3644
10420SOL     OW31944   5.935   4.695   2.983 -0.0020 -0.3706  0.6464
10420SOL    HW131945   5.963   4.644   3.058  0.8832  2.5938  2.5050
10420SOL    HW231946   5.841   4.707   2.996  0.5323  2.4282  3.0254
10421SOL     OW31947   4.363   1.701   2.880  0.4579  0.5280  0.3518
10421SOL    HW131948   4.434   1.701   2.815 -0.0886  1.1807 -0.2651
10421SOL    HW231949   4.341   1.794   2.890  1.1021  0.5161  2.1122
10422SOL     OW31950   3.465   2.825   3.569  0.2999  0.4100 -0.3637
10422SOL    HW131951   3.517   2.751   3.601 -2.1979 -1.3039  0.1190
10422SOL    HW231952   3.472   2.891   3.638 -0.1977 -0.8419  0.9569
10423SOL     OW31953   0.782   2.741   5.705 -0.4117 -0.4190  0.0230
10423SOL    HW131954   0.698   2.769   5.670  0.2171  0.6853 -0.6642
10423SOL    HW231955   0.772   2.745   5.800 -0.9149  0.3871 -0.0598
10424SOL     OW31956   1.937   3.278   4.207 -0.0231 -0.2346 -0.0721
10424SOL    HW131957   1.886   3.325   4.273  0.3376  2.6079 -1.6536
10424SOL    HW231958   2.016   3.250   4.254 -0.7218 -0.1822  1.1872
10425SOL     OW31959   7.631   3.820   7.161 -0.2964 -0.6856  0.0115
10425SOL    HW131960   7.706   3.848   7.108 -0.5747  3.9114  1.6124
10425SOL    HW231961   7.554   3.850   7.112 -0.8959 -1.8128  0.2310
10426SOL     OW31962   0.102   0.393   1.172  0.3357  0.1242  0.2335
10426SOL    HW131963   0.070   0.319   1.223 -1.1321 -0.1985 -1.0773
10426SOL    HW231964   0.036   0.462   1.186  0.3235  0.2871 -0.5987
10427SOL     OW31965   0.726   7.199   0.297 -0.2364 -0.0635 -0.1258
10427SOL    HW131966   0.715   7.276   0.242  1.8099  2.3656  2.5005
10427SOL    HW231967   0.814   7.168   0.277 -0.3285 -0.5399  0.1921
10428SOL     OW31968   7.580   1.421   4.905  0.3064 -0.2531 -0.1533
10428SOL    HW131969   7.623   1.410   4.989  1.6139 -0.0351 -0.7769
10428SOL    HW231970   7.582   1.515   4.888 -2.7809  0.1562  0.9729
10429SOL     OW31971   6.042   6.867   3.596  0.5529  0.3701 -0.1725
10429SOL    HW131972   6.033   6.792   3.538 -1.7195 -0.1094  0.6676
10429SOL    HW231973   6.129   6.859   3.634  0.3223 -1.9449 -0.0010
10430SOL     OW31974   0.964   1.502   7.135  0.6230  0.1342 -0.4818
10430SOL    HW131975   1.034   1.446   7.104 -0.3912 -1.6170  0.1937
10430SOL    HW231976   0.887   1.445   7.136 -1.6323  2.6900 -4.1045
10431SOL     OW31977   1.156   4.133   7.566  0.4739  0.1303  0.3196
10431SOL    HW131978   1.116   4.177   7.490  0.2669  0.9038  0.8705
10431SOL    HW231979   1.236   4.182   7.582  0.4440  0.0558  0.6916
10432SOL     OW31980   6.810   5.755   3.154  0.0318 -0.2086  0.0773
10432SOL    HW131981   6.789   5.730   3.244 -1.0779 -0.7434 -0.3097
10432SOL    HW231982   6.905   5.766   3.154  0.0963 -0.6059  1.2119
10433SOL     OW31983   6.312   5.172   1.046 -0.0443  0.1596  0.2830
10433SOL    HW131984   6.280   5.101   0.989 -1.6213  0.3222  0.9089
10433SOL    HW231985   6.341   5.127   1.125  1.4280  0.0020 -0.3246
10434SOL     OW31986   2.522   2.347   2.103 -0.2197 -0.5735 -0.1666
10434SOL    HW131987   2.578   2.402   2.047  1.5282 -0.8719  1.2087
10434SOL    HW231988   2.485   2.282   2.043  1.5706 -0.8687 -1.0125
10435SOL     OW31989   3.190   7.493   2.410  0.6381 -0.4642 -0.2079
10435SOL    HW131990   3.135   7.448   2.345 -1.9595  0.3415  1.2536
10435SOL    HW231991   3.187   7.435   2.486 -2.3434  1.6715  1.5288
10436SOL     OW31992   3.549   4.828   1.853  0.6827 -0.0650  0.4385
10436SOL    HW131993   3.629   4.829   1.905 -0.8577 -1.2542  3.0052
10436SOL    HW231994   3.541   4.738   1.823 -0.0267 -0.1171  0.7660
10437SOL     OW31995   1.399   0.688   4.495  0.1256  0.0684 -0.1014
10437SOL    HW131996   1.488   0.687   4.532 -0.0006  1.0754  0.2503
10437SOL    HW231997   1.346   0.643   4.561  0.1949  0.3778  0.1688
10438SOL     OW31998   1.848   7.514   5.645 -0.0276 -0.6857 -0.1388
10438SOL    HW131999   1.756   7.507   5.617 -0.8106  1.9706  1.3574
10438SOL    HW232000   1.896   7.534   5.565 -1.4381  1.8978 -0.4535
10439SOL     OW32001   7.051   5.946   2.167 -0.2457 -0.2012 -0.1106
10439SOL    HW132002   6.961   5.969   2.189 -0.0870  0.2463  0.0717
10439SOL    HW232003   7.100   5.956   2.248  0.4571  2.0744 -0.7605
10440SOL     OW32004   2.786   3.466   4.136  0.0627  0.2294 -0.4663
10440SOL    HW132005   2.722   3.468   4.065  0.0431 -3.5181 -0.7599
10440SOL    HW232006   2.744   3.412   4.204  0.3642  3.0787  2.2264
10441SOL     OW32007   1.052   5.735   3.385  0.4532 -0.4545  0.5462
10441SOL    HW132008   1.140   5.767   3.407  0.8456 -1.9070  1.2271
10441SOL    HW232009   1.065   5.689   3.302  0.3799 -0.8247  0.7392
10442SOL     OW32010   2.396   5.680   2.305  0.0581 -0.0874 -0.1859
10442SOL    HW132011   2.406   5.593   2.266 -0.2027  0.6917 -2.1174
10442SOL    HW232012   2.308   5.681   2.341  0.5302 -1.0516  1.0303
10443SOL     OW32013   4.539   5.394   6.532  0.2702 -0.0467  0.1347
10443SOL    HW132014   4.520   5.320   6.590  1.2308 -0.0868  0.4181
10443SOL    HW232015   4.466   5.455   6.545 -1.4801 -1.6841 -1.4181
10444SOL     OW32016   3.581   5.997   2.205  0.7669  0.3963 -0.5735
10444SOL    HW132017   3.570   6.048   2.125  0.4223  1.0989 -0.0873
10444SOL    HW232018   3.529   5.918   2.190 -2.5623  2.1893  0.3836
10445SOL     OW32019   7.565   1.931   1.697 -0.0966 -0.1702 -0.1892
10445SOL    HW132020   7.513   1.863   1.655  0.8924 -1.6332  0.8686
10445SOL    HW232021   7.529   1.938   1.785  0.6928 -0.3510  0.1624
10446SOL     OW32022   6.576   3.346   1.367  0.2104 -0.4480  0.3123
10446SOL    HW132023   6.653   3.386   1.325  0.3454 -0.2541  0.7401
10446SOL    HW232024   6.522   3.421   1.392  0.4105 -0.5351  1.0149
10447SOL     OW32025   4.678   4.441   7.392 -0.1825  0.0869  0.3716
10447SOL    HW132026   4.602   4.389   7.418 -0.4935 -0.7422 -1.9347
10447SOL    HW232027   4.657   4.530   7.419 -2.0511 -0.1082 -0.3096
10448SOL     OW32028   4.171   2.571   5.177  0.0913  0.5759 -0.2649
10448SOL    HW132029   4.256   2.613   5.169 -0.4841  1.7103 -0.6777
10448SOL    HW232030   4.115   2.618   5.114 -1.9231  2.7394  2.8494
10449SOL     OW32031   4.326   7.754   1.518  0.7221 -0.1023  0.0127
10449SOL    HW132032   4.415   7.721   1.505  0.3069 -2.2627  2.0003
10449SOL    HW232033   4.280   7.683   1.563 -2.1826  0.7472 -1.3582
10450SOL     OW32034   3.399   7.072   2.550  0.0800  0.6049 -0.0045
10450SOL    HW132035   3.399   6.978   2.570 -3.2294  0.1978 -1.1736
10450SOL    HW232036   3.459   7.081   2.477 -1.0239 -1.0555 -1.2052
10451SOL     OW32037   0.659   5.084   2.266  0.1239  0.1315 -0.2483
10451SOL    HW132038   0.586   5.134   2.302 -0.0032 -2.1798  3.2239
10451SOL    HW232039   0.729   5.148   2.255 -1.0530  1.6496  0.7054
10452SOL     OW32040   5.427   1.270   5.227 -1.0570 -0.4825  0.1432
10452SOL    HW132041   5.342   1.302   5.257 -1.8030 -2.0118 -0.2269
10452SOL    HW232042   5.471   1.348   5.191 -1.8098  0.5510  1.3824
10453SOL     OW32043   2.041   6.811   0.707  0.1675 -0.2993 -0.1047
10453SOL    HW132044   2.008   6.730   0.667  1.1478  0.3785 -2.4103
10453SOL    HW232045   2.133   6.792   0.725 -0.2460 -0.5865  1.9644
10454SOL     OW32046   0.734   4.571   0.677 -0.6474 -0.0055  0.0566
10454SOL    HW132047   0.711   4.539   0.764 -0.5616 -0.6404 -0.1506
10454SOL    HW232048   0.690   4.655   0.670 -1.1871 -0.2501  0.4656
10455SOL     OW32049   6.266   0.495   5.693  0.6895 -0.7315 -0.3065
10455SOL    HW132050   6.210   0.486   5.616  0.9333  1.8508 -0.9018
10455SOL    HW232051   6.355   0.485   5.659  0.7183 -2.3350  0.1818
10456SOL     OW32052   6.772   4.342   7.013 -0.7259  0.4531  0.4227
10456SOL    HW132053   6.766   4.283   7.088  0.2563 -3.9592 -2.5637
10456SOL    HW232054   6.859   4.380   7.019 -0.0255 -1.1276  0.7407
10457SOL     OW32055   3.998   6.263   3.910 -0.5406  0.3412 -0.0921
10457SOL    HW132056   3.996   6.201   3.983  1.9993  0.7023  0.3920
10457SOL    HW232057   3.937   6.332   3.935  0.3286  0.4964  1.7550
10458SOL     OW32058   2.163   5.075   1.323  0.0349 -0.1197 -0.0201
10458SOL    HW132059   2.109   5.008   1.365  0.4822 -0.2387  0.3746
10458SOL    HW232060   2.247   5.070   1.369 -0.0570  0.9826  0.2827
10459SOL     OW32061   4.605   2.018   4.050 -0.6002 -0.7508  0.0213
10459SOL    HW132062   4.680   2.049   4.100 -1.1232  0.5314  0.0689
10459SOL    HW232063   4.552   1.969   4.113  0.2127 -1.7089 -0.0304
10460SOL     OW32064   4.565   6.478   3.283  0.2261 -0.4230 -0.0004
10460SOL    HW132065   4.568   6.570   3.309 -1.8796 -0.4912  0.7023
10460SOL    HW232066   4.634   6.469   3.218 -0.5328  2.0601 -1.2810
10461SOL     OW32067   1.679   6.236   5.515  1.2659 -0.6073 -0.1703
10461SOL    HW132068   1.731   6.232   5.595  0.5858 -0.7070  0.2744
10461SOL    HW232069   1.590   6.253   5.545  1.1550  0.3223 -0.9646
10462SOL     OW32070   7.502   1.523   5.856 -0.5099 -0.2085 -0.6208
10462SOL    HW132071   7.469   1.476   5.780 -0.4589  0.8535 -1.3343
10462SOL    HW232072   7.439   1.505   5.925  0.7274 -3.1877 -0.1491
10463SOL     OW32073   6.662   0.999   2.143 -0.3424  0.0806  0.3150
10463SOL    HW132074   6.576   1.014   2.104 -0.3475 -0.4922  0.0954
10463SOL    HW232075   6.712   0.955   2.075 -0.9102 -2.5526  1.4657
10464SOL     OW32076   7.220   3.110   5.196  0.6578  0.3918  0.5558
10464SOL    HW132077   7.132   3.078   5.219  1.2171 -1.8341 -0.1607
10464SOL    HW232078   7.226   3.196   5.238 -2.1747  1.0149 -0.0978
10465SOL     OW32079   2.199   4.678   6.166 -0.6792  0.1732  0.1838
10465SOL    HW132080   2.272   4.617   6.166 -0.2704  0.6530  0.0143
10465SOL    HW232081   2.169   4.679   6.257  0.3196  0.8887  0.5228
10466SOL     OW32082   4.569   5.223   6.308 -0.5215  0.0168  0.4369
10466SOL    HW132083   4.509   5.197   6.238 -1.8182 -0.8564  1.8189
10466SOL    HW232084   4.529   5.300   6.348 -0.2570 -0.0181  0.7809
10467SOL     OW32085   4.241   6.107   4.801  0.3182  0.3015 -0.2668
10467SOL    HW132086   4.252   6.088   4.894 -0.4473 -1.8344 -0.5433
10467SOL    HW232087   4.170   6.048   4.773  1.1074  0.2655 -2.3718
10468SOL     OW32088   0.019   4.391   6.572  0.1229 -0.4423 -0.3117
10468SOL    HW132089  -0.028   4.358   6.649 -0.0379  0.1374 -0.1578
10468SOL    HW232090   0.009   4.486   6.576  0.8436 -0.3450 -0.5790
10469SOL     OW32091   7.648   4.547   0.763  0.0353  0.7354 -0.6561
10469SOL    HW132092   7.600   4.629   0.760  1.7952  1.9055  0.7300
10469SOL    HW232093   7.604   4.496   0.831  0.0938  1.3521 -0.1487
10470SOL     OW32094   3.610   5.408   0.347 -0.1957 -0.0076 -0.1575
10470SOL    HW132095   3.657   5.489   0.364  0.8709 -0.8819  1.3451
10470SOL    HW232096   3.525   5.420   0.390  0.9881 -0.6574  2.6228
10471SOL     OW32097   6.370   6.191   3.561 -0.4206 -0.0291  0.2018
10471SOL    HW132098   6.455   6.183   3.602 -0.6582  0.9228  0.9054
10471SOL    HW232099   6.359   6.285   3.546 -1.2558 -0.1597 -0.0645
10472SOL     OW32100   5.746   6.355   7.738 -0.2390  0.3260 -0.4390
10472SOL    HW132101   5.696   6.376   7.659 -1.1183  0.0915  0.0430
10472SOL    HW232102   5.834   6.337   7.706 -0.6140  0.0958 -1.3928
10473SOL     OW32103   0.392   3.537   5.828 -0.1371 -0.0063  0.0480
10473SOL    HW132104   0.450   3.608   5.855 -0.1555 -0.1761  0.5591
10473SOL    HW232105   0.414   3.465   5.888 -2.0619  0.4750  1.4248
10474SOL     OW32106   0.142   7.202   1.811  0.4090 -0.6029  0.4738
10474SOL    HW132107   0.068   7.141   1.819 -0.6469  0.4822 -0.7482
10474SOL    HW232108   0.121   7.273   1.871  0.5882 -0.3968  0.2930
10475SOL     OW32109   3.631   1.775   6.578 -0.3352  0.3069 -0.6172
10475SOL    HW132110   3.584   1.693   6.563  1.1974 -0.7348  0.0581
10475SOL    HW232111   3.606   1.831   6.504 -1.3491 -0.7765 -1.1303
10476SOL     OW32112   3.010   5.820   5.018 -0.0683 -0.6213  0.0512
10476SOL    HW132113   3.079   5.805   4.954 -0.1460 -0.1739 -0.1378
10476SOL    HW232114   2.990   5.913   5.011  1.0504 -0.2010  1.8727
10477SOL     OW32115   7.118   1.263   5.867 -0.4243  0.1848 -0.0072
10477SOL    HW132116   7.082   1.339   5.822 -0.0620  0.2610 -0.1754
10477SOL    HW232117   7.107   1.281   5.960 -2.3029 -0.5094 -0.0503
10478SOL     OW32118   1.734   7.606   2.944 -0.0390 -0.0438  0.6630
10478SOL    HW132119   1.698   7.688   2.912  1.7515  0.2923 -0.5854
10478SOL    HW232120   1.680   7.538   2.903 -0.0544  0.4635 -0.1624
10479SOL     OW32121   0.159   5.750   0.678  0.5299 -0.1866 -0.0474
10479SOL    HW132122   0.106   5.810   0.730  0.3579  1.0554 -1.5944
10479SOL    HW232123   0.249   5.769   0.703  0.3579 -1.5414  1.7838
10480SOL     OW32124   7.209   1.979   5.307  0.2665  0.6449  0.5020
10480SOL    HW132125   7.176   1.982   5.217 -0.9567  0.6893  0.9357
10480SOL    HW232126   7.242   1.889   5.317  1.8236  1.0718 -0.4463
10481SOL     OW32127   1.608   7.625   1.701  0.5783  0.1822  0.4492
10481SOL    HW132128   1.621   7.594   1.791  0.2960 -1.8687 -0.1682
10481SOL    HW232129   1.551   7.560   1.661  1.0534  0.8142 -1.3512
10482SOL     OW32130   2.163   1.107   5.752 -0.1332 -0.3171 -0.0142
10482SOL    HW132131   2.089   1.072   5.702 -1.9392  1.8568  0.9938
10482SOL    HW232132   2.165   1.054   5.831 -0.2549 -0.7383 -0.2857
10483SOL     OW32133   1.140   0.013   5.821  0.3545  0.2369  0.1706
10483SOL    HW132134   1.214   0.061   5.858  0.1543  1.8450 -1.4005
10483SOL    HW232135   1.174  -0.026   5.741 -0.6737  1.7335 -1.0422
10484SOL     OW32136   3.117   1.325   6.492 -0.1979 -0.5195 -0.1879
10484SOL    HW132137   3.112   1.407   6.542  2.3756 -0.6713  0.4885
10484SOL    HW232138   3.038   1.277   6.517 -0.9017  1.0196  0.7283
10485SOL     OW32139   0.366   7.253   2.759  0.1663 -0.0901  0.3501
10485SOL    HW132140   0.397   7.298   2.680 -0.1863  1.2472  0.9425
10485SOL    HW232141   0.428   7.181   2.772  0.7795  0.2433 -0.6173
10486SOL     OW32142   7.633   2.412   1.856 -0.2254  0.0214  0.3679
10486SOL    HW132143   7.559   2.419   1.916 -0.4296 -1.7905  0.4013
10486SOL    HW232144   7.686   2.341   1.893 -0.1475 -0.8505 -1.3335
10487SOL     OW32145   0.556   3.017   2.291 -0.8200  0.2519 -0.2885
10487SOL    HW132146   0.496   3.023   2.365 -0.4829  2.1410 -0.1158
10487SOL    HW232147   0.643   3.026   2.329 -0.5530 -0.1328 -0.7879
10488SOL     OW32148   4.916   0.946   5.412  0.0997 -0.3108  0.2053
10488SOL    HW132149   4.915   0.980   5.322 -0.0956 -0.9133 -0.0296
10488SOL    HW232150   5.009   0.932   5.431  0.2260  0.8192  0.4986
10489SOL     OW32151   0.710   4.358   5.496 -0.3498  0.0076 -0.0260
10489SOL    HW132152   0.776   4.314   5.550  0.7721  1.5893 -0.0260
10489SOL    HW232153   0.627   4.336   5.538  0.1193 -2.1460 -0.0916
10490SOL     OW32154   5.166   7.712   5.432  0.2912 -0.5821  0.1637
10490SOL    HW132155   5.188   7.687   5.521  0.4169  0.0152  0.3060
10490SOL    HW232156   5.250   7.732   5.391  0.2728 -1.2974 -0.2278
10491SOL     OW32157   5.073   2.097   7.565 -0.0884 -0.5658  0.0579
10491SOL    HW132158   5.138   2.140   7.620  0.3476 -0.6329 -0.3938
10491SOL    HW232159   5.124   2.041   7.506 -0.4231  0.4436 -1.2516
10492SOL     OW32160   0.350   6.263   3.861  0.0730 -0.0089  0.2087
10492SOL    HW132161   0.364   6.273   3.767  0.5586  0.2041  0.3014
10492SOL    HW232162   0.358   6.352   3.896  0.1725 -0.1280  0.4868
10493SOL     OW32163   1.605   0.541   6.164 -0.1086 -0.1890 -0.3107
10493SOL    HW132164   1.694   0.526   6.198  0.1835  2.8994  0.5866
10493SOL    HW232165   1.548   0.518   6.238  0.1647  0.6125  0.1688
10494SOL     OW32166   5.420   0.419   2.807 -0.0881 -0.1234  0.1432
10494SOL    HW132167   5.457   0.495   2.762  1.5483 -0.7497  0.3591
10494SOL    HW232168   5.327   0.420   2.784  0.4006  0.4329 -2.0359
10495SOL     OW32169   3.385   4.413   3.749 -0.5348 -0.6958  0.7144
10495SOL    HW132170   3.390   4.462   3.667 -2.1951 -1.7571 -0.0858
10495SOL    HW232171   3.462   4.439   3.798  1.1519 -0.9079 -1.6815
10496SOL     OW32172   4.524   4.048   5.551  0.4969  0.0005 -0.1240
10496SOL    HW132173   4.456   4.077   5.611 -1.7477  0.8166 -2.8315
10496SOL    HW232174   4.581   4.125   5.540  0.8035 -0.0917  0.7163
10497SOL     OW32175   3.255   3.822   0.469 -0.1304  0.1260 -0.2992
10497SOL    HW132176   3.237   3.762   0.396  0.8786 -0.6903  0.0993
10497SOL    HW232177   3.199   3.792   0.540  0.7175 -0.6542  0.0498
10498SOL     OW32178   7.062   5.389   4.137 -0.3173  0.0777  0.5096
10498SOL    HW132179   7.101   5.312   4.096  0.3558 -0.1101  1.4774
10498SOL    HW232180   6.971   5.364   4.154 -1.1606  0.7633 -2.4066
10499SOL     OW32181   7.123   0.519   7.751  0.2486 -0.2800  0.5193
10499SOL    HW132182   7.194   0.575   7.721  0.3487 -1.2101 -1.1027
10499SOL    HW232183   7.048   0.578   7.761  0.3592  0.1895 -1.1219
10500SOL     OW32184   7.179   2.917   2.036 -0.2368  1.3049 -0.2358
10500SOL    HW132185   7.086   2.910   2.054 -0.1108  0.4362  0.1055
10500SOL    HW232186   7.215   2.962   2.113 -0.2105  0.6516  0.1358
10501SOL     OW32187   6.083   4.844   2.281 -0.1253  0.1779 -0.3498
10501SOL    HW132188   6.087   4.802   2.196 -2.4578  1.2340 -1.0460
10501SOL    HW232189   6.048   4.931   2.264 -1.0909  0.2587  1.7173
10502SOL     OW32190   2.613   2.762   3.701 -0.2284  0.0019 -0.2209
10502SOL    HW132191   2.549   2.733   3.766  0.0088 -1.4880 -0.6228
10502SOL    HW232192   2.698   2.739   3.740  0.0701  1.3729  0.0184
10503SOL     OW32193   2.285   0.035   4.022 -0.3088 -0.4650  0.1821
10503SOL    HW132194   2.280   0.129   4.038  0.3176 -0.6793  1.7411
10503SOL    HW232195   2.309   0.029   3.929  1.0501  0.9412  0.3935
10504SOL     OW32196   0.844   7.501   1.518  0.1148  0.5226  0.7759
10504SOL    HW132197   0.894   7.465   1.591  1.6834  1.1054  0.0371
10504SOL    HW232198   0.910   7.537   1.459 -1.0036 -1.0009 -1.5547
10505SOL     OW32199   2.472   3.181   4.462 -0.2856  1.0256  0.1759
10505SOL    HW132200   2.465   3.086   4.475  1.0073  0.9986  0.8663
10505SOL    HW232201   2.382   3.210   4.447 -0.6773 -0.3324 -0.2246
10506SOL     OW32202   5.843   6.974   1.100  0.5232 -0.8756  0.0253
10506SOL    HW132203   5.864   6.917   1.025 -1.8289 -2.1651  0.2430
10506SOL    HW232204   5.786   6.920   1.155 -2.1361  1.7599  0.0935
10507SOL     OW32205   4.931   3.703   6.919 -0.3435 -0.1834 -0.3192
10507SOL    HW132206   5.010   3.658   6.891 -0.3841 -0.5822  0.1933
10507SOL    HW232207   4.962   3.780   6.967 -0.2713  0.0102 -0.6760
10508SOL     OW32208   6.673   6.341   5.402  0.0712  0.3849 -0.3754
10508SOL    HW132209   6.728   6.386   5.467 -1.0412  2.6418 -0.9418
10508SOL    HW232210   6.728   6.337   5.324 -0.4793  2.5789 -0.9213
10509SOL     OW32211   1.934   6.139   1.433  0.4491  0.2576  0.5178
10509SOL    HW132212   1.970   6.210   1.486  1.6311  0.8314 -0.9666
10509SOL    HW232213   1.936   6.174   1.343 -0.7407 -0.9607 -0.0186
10510SOL     OW32214   7.077   7.645   5.818  0.4189  0.1640  0.5449
10510SOL    HW132215   7.012   7.587   5.856 -1.2661  1.3319 -0.4358
10510SOL    HW232216   7.036   7.680   5.739  1.6775  1.9990  0.6285
10511SOL     OW32217   7.601   6.909   0.031  0.1303  0.3488 -0.9343
10511SOL    HW132218   7.537   6.848  -0.007 -0.8626  1.2565 -0.7769
10511SOL    HW232219   7.554   6.992   0.037  0.3820  0.3866  1.8550
10512SOL     OW32220   5.332   5.156   6.811  0.3415  0.2386  0.0221
10512SOL    HW132221   5.326   5.139   6.905  1.4676 -0.3557 -0.0003
10512SOL    HW232222   5.244   5.138   6.778  0.1733 -0.4592  0.8219
10513SOL     OW32223   2.311   1.463   1.621  0.1627 -0.1597 -0.3019
10513SOL    HW132224   2.251   1.420   1.560 -0.2022  0.7298 -0.5901
10513SOL    HW232225   2.385   1.403   1.628 -0.7103 -1.2482  0.0029
10514SOL     OW32226   3.646   1.761   0.482  0.2555  0.1124  0.3527
10514SOL    HW132227   3.578   1.774   0.548 -1.0189  1.3009 -1.0868
10514SOL    HW232228   3.614   1.687   0.430  0.4669  0.1686  0.1423
10515SOL     OW32229   3.136   4.960   1.959 -0.1451  0.2777  0.4520
10515SOL    HW132230   3.125   4.867   1.980 -0.0688  0.1300 -0.1361
10515SOL    HW232231   3.228   4.967   1.934 -0.7766 -0.1054 -2.3803
10516SOL     OW32232   1.625   6.716   1.195 -0.1591 -0.2718  0.1763
10516SOL    HW132233   1.583   6.677   1.118  0.8374  0.2918 -0.6902
10516SOL    HW232234   1.567   6.788   1.219 -0.2439 -0.1570 -0.3464
10517SOL     OW32235   4.339   5.472   5.766  0.4654 -0.0088  0.2555
10517SOL    HW132236   4.411   5.531   5.744 -0.6386  0.6436 -1.9076
10517SOL    HW232237   4.320   5.491   5.858  1.6756  1.2887  0.2812
10518SOL     OW32238   4.449   0.922   1.219  0.1716  0.0565 -0.6552
10518SOL    HW132239   4.455   0.904   1.313  1.4137 -0.7962 -0.8802
10518SOL    HW232240   4.499   0.851   1.178  0.4118  0.9314 -1.9101
10519SOL     OW32241   7.670   2.215   5.728 -0.0406  0.0677 -0.1041
10519SOL    HW132242   7.710   2.181   5.808  0.2327  1.3564  0.3300
10519SOL    HW232243   7.685   2.146   5.662 -0.4466 -1.0942  0.9876
10520SOL     OW32244   5.182   5.872   5.726  0.1443 -0.3192  0.0687
10520SOL    HW132245   5.160   5.962   5.702  0.9151  0.3909  1.8813
10520SOL    HW232246   5.101   5.836   5.760 -0.0268 -0.1231 -0.1247
10521SOL     OW32247   2.636   7.200   6.475 -0.3472 -0.0901  0.7664
10521SOL    HW132248   2.644   7.288   6.513 -0.9180  0.2680  0.0904
10521SOL    HW232249   2.588   7.150   6.541  0.8834 -0.1955  1.6054
10522SOL     OW32250   6.884   1.677   3.784  0.7221 -0.3258 -0.0959
10522SOL    HW132251   6.890   1.660   3.690 -0.4396 -0.3969 -0.1712
10522SOL    HW232252   6.803   1.727   3.794  1.6668  1.1077  0.6843
10523SOL     OW32253   4.672   6.180   6.649 -0.2428  0.2224  0.4518
10523SOL    HW132254   4.759   6.154   6.618 -1.4455 -0.4235 -2.7732
10523SOL    HW232255   4.680   6.274   6.669  0.8897  0.4772 -1.0834
10524SOL     OW32256   4.239   0.718   2.147  0.3687 -0.3042  0.1269
10524SOL    HW132257   4.318   0.760   2.181 -0.6453  1.9084 -0.0787
10524SOL    HW232258   4.267   0.679   2.064  1.6630 -1.2905  0.9866
10525SOL     OW32259   2.440   1.461   3.761  0.2508  0.2617 -0.3188
10525SOL    HW132260   2.405   1.522   3.826  0.5524 -0.0428  0.1355
10525SOL    HW232261   2.414   1.375   3.793 -0.9369  0.1754 -1.4028
10526SOL     OW32262   7.667   5.578   2.227 -0.0225 -0.1026  0.8866
10526SOL    HW132263   7.586   5.531   2.244  0.1631 -0.8602 -0.1986
10526SOL    HW232264   7.734   5.527   2.272  0.0242 -0.2197  0.6857
10527SOL     OW32265   3.560   3.240   6.748 -0.2174 -0.0678 -0.2621
10527SOL    HW132266   3.616   3.170   6.780 -0.9221 -2.2885 -3.4469
10527SOL    HW232267   3.491   3.247   6.814  1.6889  0.1581  1.8499
10528SOL     OW32268   7.283   0.576   4.975  0.4038  0.1918  0.0974
10528SOL    HW132269   7.233   0.496   4.993  2.1341 -0.8632  0.4867
10528SOL    HW232270   7.374   0.550   4.987  1.0232  2.2281  0.1420
10529SOL     OW32271   2.170   2.803   3.818 -0.0551 -0.4193  0.3437
10529SOL    HW132272   2.185   2.758   3.735 -1.5098 -0.6148  0.1555
10529SOL    HW232273   2.226   2.757   3.881  0.6881 -0.5875 -0.4275
10530SOL     OW32274   2.828   4.687   1.043 -0.2011 -0.3283  0.3377
10530SOL    HW132275   2.777   4.609   1.023 -0.1172 -0.0543 -1.0613
10530SOL    HW232276   2.847   4.725   0.958 -0.3104  1.2737  1.0008
10531SOL     OW32277   2.029   4.619   1.369  0.3769 -0.2538  0.0576
10531SOL    HW132278   2.042   4.660   1.454  1.8745 -1.2942  0.3654
10531SOL    HW232279   2.095   4.660   1.313  1.8853 -2.1283  0.3655
10532SOL     OW32280   6.893   6.024   0.830  0.2515  0.8867  0.1392
10532SOL    HW132281   6.975   5.999   0.873 -0.0447 -0.0364  0.1795
10532SOL    HW232282   6.861   5.944   0.789 -0.5701  1.2671  0.0039
10533SOL     OW32283   1.593   0.657   0.631  0.8716  0.4059 -0.2982
10533SOL    HW132284   1.624   0.688   0.715  0.6357 -0.4219  0.1099
10533SOL    HW232285   1.671   0.654   0.575  0.9374  1.4460 -0.2757
10534SOL     OW32286   7.307   4.492   3.717 -0.8620 -0.1003 -0.1294
10534SOL    HW132287   7.354   4.574   3.704 -0.3038 -0.4028 -0.0392
10534SOL    HW232288   7.328   4.465   3.807 -0.9460 -0.4015 -0.1968
10535SOL     OW32289   1.516   1.482   3.744  0.6934 -0.5947 -0.4526
10535SOL    HW132290   1.570   1.550   3.784  1.6678 -0.4125 -2.0012
10535SOL    HW232291   1.426   1.510   3.760  1.0709  0.2772  0.2173
10536SOL     OW32292   3.299   2.155   7.124 -0.4637 -0.6980  0.1321
10536SOL    HW132293   3.205   2.135   7.118 -0.5008 -0.2853 -0.8689
10536SOL    HW232294   3.309   2.236   7.074  0.8396 -2.0921 -2.0592
10537SOL     OW32295   5.500   2.308   4.752  0.4961  0.4091  0.8479
10537SOL    HW132296   5.481   2.251   4.826  0.4499  1.6499  1.8410
10537SOL    HW232297   5.414   2.331   4.717  0.4884  0.3292  0.8139
10538SOL     OW32298   5.086   1.943   2.730 -0.1808 -0.0055  0.8834
10538SOL    HW132299   5.063   1.961   2.639  0.7926 -0.5621  0.5130
10538SOL    HW232300   5.150   1.872   2.725  0.9421  0.8876  1.9051
10539SOL     OW32301   5.731   0.905   5.575  0.2206  0.4079  0.1029
10539SOL    HW132302   5.657   0.858   5.614  0.0868  0.2473 -0.3430
10539SOL    HW232303   5.769   0.953   5.648  0.4605 -0.5272  0.6051
10540SOL     OW32304   0.167   5.929   3.049 -0.3208 -0.1962 -0.2703
10540SOL    HW132305   0.112   5.996   3.009 -1.5470 -1.1107 -0.1651
10540SOL    HW232306   0.195   5.874   2.976 -0.4947 -0.4056 -0.1789
10541SOL     OW32307   1.817   4.886   3.434  0.1625  0.2069  0.2055
10541SOL    HW132308   1.810   4.797   3.401 -0.9772  0.6741 -0.9427
10541SOL    HW232309   1.910   4.899   3.449  0.2961 -1.3182  0.8610
10542SOL     OW32310   2.010   0.491   0.616 -0.0012  0.6051  0.5397
10542SOL    HW132311   2.062   0.474   0.695  0.1477  1.2703  0.5853
10542SOL    HW232312   2.074   0.508   0.548 -0.1446  0.6935  0.4264
10543SOL     OW32313   5.546   4.317   4.815 -0.0316  0.1036  0.9363
10543SOL    HW132314   5.543   4.239   4.871  0.6147 -1.1026 -0.6488
10543SOL    HW232315   5.583   4.286   4.732 -0.6385  1.9039 -0.0595
10544SOL     OW32316   1.840   0.496   4.326  0.2427  0.3420  0.2013
10544SOL    HW132317   1.817   0.463   4.239 -1.3901  0.7249  0.4431
10544SOL    HW232318   1.838   0.418   4.382 -1.5547  0.4730  0.3892
10545SOL     OW32319   1.895   3.762   1.618 -0.6287 -0.1600  0.1896
10545SOL    HW132320   1.800   3.764   1.629 -0.4389 -1.1903  2.7288
10545SOL    HW232321   1.929   3.797   1.700  1.2472  1.8644 -1.3275
10546SOL     OW32322   2.593   0.746   4.726 -0.5153 -0.6110  0.1630
10546SOL    HW132323   2.680   0.760   4.764  0.4083 -0.2682 -1.9561
10546SOL    HW232324   2.537   0.808   4.773  1.1724  2.0022 -0.9963
10547SOL     OW32325   2.033   0.153   5.496 -0.0297  0.4811 -0.3614
10547SOL    HW132326   2.070   0.089   5.557 -1.2096  0.4829  0.4087
10547SOL    HW232327   1.999   0.100   5.424 -1.2968  0.1550  0.4280
10548SOL     OW32328   7.097   0.597   1.829 -0.4674 -0.0500  0.9155
10548SOL    HW132329   7.188   0.569   1.812 -0.5162  0.5597 -0.5467
10548SOL    HW232330   7.105   0.686   1.862 -0.5598  0.4356 -0.3234
10549SOL     OW32331   3.757   3.396   6.441  0.0114 -0.1323  0.2714
10549SOL    HW132332   3.795   3.320   6.486  1.1953  0.6617  0.6688
10549SOL    HW232333   3.683   3.421   6.496 -0.3534 -0.9473  0.1709
10550SOL     OW32334   6.248   3.908   3.546 -0.6591  0.5343  0.6648
10550SOL    HW132335   6.258   3.917   3.641 -1.2637  1.1238  0.6773
10550SOL    HW232336   6.203   3.987   3.519 -0.2108  0.5162 -0.1677
10551SOL     OW32337   0.096   0.033   7.543 -0.1584  0.3111  0.0952
10551SOL    HW132338   0.162   0.006   7.480  1.0447  1.2296  0.8971
10551SOL    HW232339   0.119   0.124   7.563 -0.8996  0.2438  1.3450
10552SOL     OW32340   2.919   0.364   2.393 -0.1569 -0.3700  0.3276
10552SOL    HW132341   2.917   0.344   2.486  1.0118  1.0141  0.6942
10552SOL    HW232342   2.951   0.454   2.388 -0.7619 -0.2011 -1.3926
10553SOL     OW32343   4.168   1.892   7.319 -0.2847  0.1778  0.1080
10553SOL    HW132344   4.149   1.975   7.277 -3.0658  0.8528  2.3473
10553SOL    HW232345   4.085   1.866   7.360  1.1478 -2.3668  1.7240
10554SOL     OW32346   6.430   4.641   2.501  0.4395  0.2605 -0.1483
10554SOL    HW132347   6.384   4.725   2.498  0.7637  0.4600  0.2974
10554SOL    HW232348   6.513   4.656   2.456  1.1393  0.6027  1.2054
10555SOL     OW32349   4.034   7.178   0.216  0.0297 -0.8586  0.0276
10555SOL    HW132350   3.940   7.167   0.206 -0.2585  1.3699 -0.1009
10555SOL    HW232351   4.044   7.234   0.293  1.3257 -1.8680  0.6535
10556SOL     OW32352   4.419   1.814   6.898 -0.3537 -0.3027  0.1009
10556SOL    HW132353   4.469   1.742   6.858  0.0036  0.1446 -0.2703
10556SOL    HW232354   4.447   1.892   6.850 -0.6359  0.1058  0.5913
10557SOL     OW32355   1.522   0.321   6.390 -0.3241 -0.1479 -0.3030
10557SOL    HW132356   1.450   0.384   6.385 -0.4474 -0.2963 -0.3966
10557SOL    HW232357   1.571   0.347   6.468 -1.3650 -0.9686  0.6834
10558SOL     OW32358   3.332   2.165   4.665 -0.3806  0.3969  0.8163
10558SOL    HW132359   3.240   2.151   4.640  0.0777 -1.6706  0.0918
10558SOL    HW232360   3.327   2.197   4.755 -1.8099 -1.1977  1.3657
10559SOL     OW32361   1.996   2.878   6.766 -0.3078 -0.0942  0.7263
10559SOL    HW132362   1.907   2.855   6.740  0.4969 -1.3062 -1.1824
10559SOL    HW232363   2.006   2.969   6.740 -0.3142 -0.5894 -1.1437
10560SOL     OW32364   5.939   3.640   6.491  0.5576  0.0475 -0.0422
10560SOL    HW132365   5.934   3.570   6.426 -0.3402  0.3769 -0.3421
10560SOL    HW232366   5.968   3.716   6.441  1.0185  0.0191  0.1809
10561SOL     OW32367   7.763   2.609   3.633 -0.6607  0.7278  0.4821
10561SOL    HW132368   7.676   2.591   3.599 -0.6205  0.2217  0.6457
10561SOL    HW232369   7.818   2.618   3.555  0.1896 -3.9537  0.2797
10562SOL     OW32370   7.063   6.078   6.215  0.1511  0.8188 -0.1165
10562SOL    HW132371   7.063   6.080   6.311 -0.4599 -1.6422  0.0093
10562SOL    HW232372   6.981   6.118   6.190 -0.5372 -0.1224  0.5216
10563SOL     OW32373   3.315   2.707   0.550 -0.1750 -0.3983 -0.3097
10563SOL    HW132374   3.302   2.786   0.499 -0.3517 -0.1323  0.1392
10563SOL    HW232375   3.227   2.682   0.579 -0.1039 -0.6763 -0.3310
10564SOL     OW32376   1.785   0.945   3.769  0.6500  0.8733  0.0249
10564SOL    HW132377   1.759   1.015   3.708 -2.8440  0.0270  0.3350
10564SOL    HW232378   1.727   0.956   3.844  1.3820 -1.1863  0.9580
10565SOL     OW32379   5.683   6.203   2.075 -0.1187  0.0757 -0.3048
10565SOL    HW132380   5.724   6.121   2.048  0.5293  0.4902 -0.6130
10565SOL    HW232381   5.670   6.252   1.994 -2.4641 -0.5626 -0.3952
10566SOL     OW32382   5.847   5.686   7.540  0.6644  0.3473  0.2291
10566SOL    HW132383   5.758   5.675   7.575  0.3102  0.7533 -0.5219
10566SOL    HW232384   5.904   5.669   7.614 -0.0001 -1.2013  0.4294
10567SOL     OW32385   1.577   2.020   5.195 -0.3775  0.0839 -0.1498
10567SOL    HW132386   1.638   2.093   5.184 -0.0255 -0.2170 -0.2147
10567SOL    HW232387   1.630   1.942   5.181 -0.3623 -0.2589  1.5545
10568SOL     OW32388   1.629   2.650   0.389  0.0595  0.2130 -0.0749
10568SOL    HW132389   1.721   2.673   0.376  0.0747  0.0268 -0.3079
10568SOL    HW232390   1.619   2.566   0.343 -0.3738  0.5309 -0.5709
10569SOL     OW32391   4.865   1.203   7.150 -0.2636  0.3884  0.3057
10569SOL    HW132392   4.803   1.234   7.217  1.3084  1.7210  1.2197
10569SOL    HW232393   4.861   1.270   7.081 -0.6442 -0.1125 -0.1705
10570SOL     OW32394   6.159   6.811   6.337 -0.2640 -0.5554 -0.2321
10570SOL    HW132395   6.120   6.893   6.308  1.1528  1.0863  2.1411
10570SOL    HW232396   6.177   6.762   6.257 -2.4538  0.7789 -1.6366
10571SOL     OW32397   3.794   6.975   1.127 -0.8873  0.1334  0.1806
10571SOL    HW132398   3.863   7.032   1.093 -0.4679  0.0400  0.8498
10571SOL    HW232399   3.833   6.935   1.206 -0.8723 -1.6947 -0.7004
10572SOL     OW32400   1.383   0.592   6.349  0.1659  0.5260  0.2181
10572SOL    HW132401   1.294   0.567   6.374 -0.1086  1.0106 -0.2649
10572SOL    HW232402   1.372   0.669   6.294  0.8313  0.0977 -0.5325
10573SOL     OW32403   1.996   0.388   2.662  0.6688  0.0571  0.0735
10573SOL    HW132404   1.921   0.447   2.650  0.9055  0.4373  0.4388
10573SOL    HW232405   1.961   0.301   2.644  0.7725  0.4756 -2.5599
10574SOL     OW32406   0.023   6.660   5.473  0.5991  0.1093  0.3135
10574SOL    HW132407   0.102   6.666   5.527 -0.4003  1.1464  1.7208
10574SOL    HW232408  -0.014   6.748   5.473  0.2342  0.0074 -1.6087
10575SOL     OW32409   6.436   5.023   4.859 -0.1274 -0.5972  0.0007
10575SOL    HW132410   6.439   5.040   4.765 -0.2548  0.1149  0.1217
10575SOL    HW232411   6.493   4.947   4.872  3.0941  1.6449 -0.1351
10576SOL     OW32412   2.974   6.067   4.829 -0.1903 -0.4294 -0.0326
10576SOL    HW132413   2.986   6.150   4.783 -1.8823 -0.3561 -0.4124
10576SOL    HW232414   3.013   6.001   4.771  1.9877  0.1375  0.6828
10577SOL     OW32415   7.399   5.230   2.482 -0.0230 -0.2476 -0.0431
10577SOL    HW132416   7.304   5.230   2.491 -0.1949  2.3612 -0.9848
10577SOL    HW232417   7.429   5.297   2.544  1.3431 -1.8176  1.0674
10578SOL     OW32418   4.946   6.484   2.252  0.2952  0.3975 -0.0949
10578SOL    HW132419   5.015   6.455   2.312  0.0379  1.8180  0.9473
10578SOL    HW232420   4.992   6.536   2.187  0.2100  1.7754  0.8890
10579SOL     OW32421   5.678   5.318   6.585  0.1343 -0.4828  0.0006
10579SOL    HW132422   5.752   5.282   6.635  0.8463 -0.6747 -1.1678
10579SOL    HW232423   5.707   5.405   6.559  0.4457 -0.9950 -1.4580
10580SOL     OW32424   6.336   7.743   7.255 -0.0780 -0.0569 -0.0663
10580SOL    HW132425   6.373   7.672   7.203  2.0798  1.3978 -0.6992
10580SOL    HW232426   6.245   7.750   7.226  0.0606 -1.6170 -0.9839
10581SOL     OW32427   1.381   4.041   4.211 -0.2092 -0.3119  0.4073
10581SOL    HW132428   1.363   4.002   4.125 -0.2192 -0.0869  0.3064
10581SOL    HW232429   1.315   4.002   4.269 -0.2932 -0.3557  0.2831
10582SOL     OW32430   1.731   2.746   4.417 -0.1849 -0.3185 -0.4187
10582SOL    HW132431   1.770   2.783   4.496  0.3369 -0.8193 -0.4405
10582SOL    HW232432   1.784   2.780   4.346 -1.1096  0.7412 -0.6279
10583SOL     OW32433   0.417   6.382   3.622 -0.1906  0.4456  0.3902
10583SOL    HW132434   0.493   6.428   3.586  0.0019 -0.0936  0.0794
10583SOL    HW232435   0.373   6.345   3.545  0.6231 -1.3258  0.7047
10584SOL     OW32436   0.901   2.032   5.423 -0.3125 -0.0062  0.4065
10584SOL    HW132437   0.971   2.096   5.407 -0.3165 -0.3075 -0.9318
10584SOL    HW232438   0.820   2.083   5.415 -0.2764  0.1057  0.7584
10585SOL     OW32439   3.713   7.231   3.294  0.4133 -0.3677  0.2209
10585SOL    HW132440   3.637   7.268   3.250  0.0604 -0.4768  0.7406
10585SOL    HW232441   3.691   7.139   3.307  0.6540 -0.4112  0.3321
10586SOL     OW32442   0.131   4.973   2.983 -0.7271  0.1278  0.1326
10586SOL    HW132443   0.051   5.026   2.983 -0.2965  0.7826 -0.1009
10586SOL    HW232444   0.134   4.936   3.071 -1.1480  0.3115  0.2306
10587SOL     OW32445   5.427   0.969   7.312 -0.0520 -0.0964 -0.8743
10587SOL    HW132446   5.481   0.923   7.248  2.0354 -1.3944  1.6227
10587SOL    HW232447   5.340   0.930   7.304  0.4377 -0.9757 -2.1598
10588SOL     OW32448   2.212   4.766   5.246  0.0769  0.1868 -0.5830
10588SOL    HW132449   2.215   4.737   5.337  0.8794  2.1809  0.1060
10588SOL    HW232450   2.287   4.826   5.238  0.6265 -0.7009 -2.8521
10589SOL     OW32451   2.270   2.582   2.690 -0.0695  0.0074 -0.3489
10589SOL    HW132452   2.258   2.490   2.667 -1.3253 -0.0692  0.5145
10589SOL    HW232453   2.228   2.630   2.619  0.9105 -0.0551 -0.9904
10590SOL     OW32454   5.127   6.434   5.019 -0.8864  0.4315  0.2617
10590SOL    HW132455   5.222   6.440   5.033 -0.3873 -0.6721 -2.0357
10590SOL    HW232456   5.097   6.524   5.022  0.1260  0.7582  1.5850
10591SOL     OW32457   5.249   1.573   1.091  0.0331  0.0674 -0.2158
10591SOL    HW132458   5.301   1.512   1.038  1.2842  1.8515 -1.1069
10591SOL    HW232459   5.223   1.642   1.030 -1.6891  0.2777  0.6860
10592SOL     OW32460   0.933   7.494   0.208 -0.1460  0.6000  0.3630
10592SOL    HW132461   0.925   7.589   0.210  2.2625  0.9424 -1.5409
10592SOL    HW232462   0.984   7.472   0.286 -0.3467  0.9170  0.5822
10593SOL     OW32463   0.108   2.908   6.292 -0.0567  0.3472 -0.4747
10593SOL    HW132464   0.036   2.875   6.346 -2.1547  0.8756 -2.7652
10593SOL    HW232465   0.101   3.003   6.298  0.7193  0.3999 -0.3745
10594SOL     OW32466   1.587   0.055   7.353 -0.5282  0.3121  0.0347
10594SOL    HW132467   1.643   0.079   7.427 -1.5057  0.4386  0.7415
10594SOL    HW232468   1.637  -0.013   7.308 -0.7586 -1.2430  1.9748
10595SOL     OW32469   0.025   4.222   6.186 -0.4045  0.6729 -0.3959
10595SOL    HW132470  -0.051   4.203   6.132 -0.1658  1.4012 -1.0048
10595SOL    HW232471   0.023   4.317   6.198 -0.2246  0.5692  0.5312
10596SOL     OW32472   2.074   4.774   2.283  0.2314 -0.2531 -0.5234
10596SOL    HW132473   2.026   4.691   2.291  2.6539 -1.6593  0.4954
10596SOL    HW232474   2.082   4.805   2.374  2.0830 -0.5912 -0.5465
10597SOL     OW32475   3.033   1.252   1.464 -0.1311  0.2561 -0.1760
10597SOL    HW132476   2.938   1.253   1.451 -0.5602 -0.5111  2.4494
10597SOL    HW232477   3.056   1.343   1.483 -0.6024  0.1958  0.7115
10598SOL     OW32478   5.368   6.680   0.188  0.6869 -0.3593 -0.5147
10598SOL    HW132479   5.370   6.591   0.153  1.3325 -0.3919 -0.4086
10598SOL    HW232480   5.455   6.693   0.227 -0.1955 -0.5174  1.6105
10599SOL     OW32481   2.365   2.945   2.057 -0.5190 -0.1840 -1.0993
10599SOL    HW132482   2.362   2.850   2.068 -2.2282 -0.1852 -1.2778
10599SOL    HW232483   2.450   2.962   2.016  0.3819 -1.4757  0.1144
10600SOL     OW32484   1.894   2.785   3.812  0.2687  0.0649 -0.2850
10600SOL    HW132485   1.984   2.816   3.822 -0.2748  0.9311  2.6358
10600SOL    HW232486   1.839   2.861   3.833 -1.1240 -1.1712  0.7871
10601SOL     OW32487   4.692   0.461   0.929 -0.8096  0.0702 -0.6359
10601SOL    HW132488   4.710   0.398   0.859 -0.8798 -1.2207  0.4831
10601SOL    HW232489   4.775   0.506   0.943  0.3738 -2.4573  1.1476
10602SOL     OW32490   3.568   0.542   1.118  0.4655 -0.6930 -0.0215
10602SOL    HW132491   3.519   0.622   1.102  0.5695 -0.6627 -0.1948
10602SOL    HW232492   3.501   0.477   1.140  0.4244 -0.4373  0.6199
10603SOL     OW32493   3.201   2.292   4.343 -0.1570  0.0712 -0.4470
10603SOL    HW132494   3.135   2.347   4.383 -0.1364  0.3757 -0.8287
10603SOL    HW232495   3.284   2.327   4.375 -0.1967 -1.8187  2.0263
10604SOL     OW32496   2.210   4.167   0.341 -0.2534 -0.4732 -0.2667
10604SOL    HW132497   2.209   4.213   0.425  1.2514  1.1808 -1.0880
10604SOL    HW232498   2.303   4.149   0.325 -0.5128 -0.7681 -1.5793
10605SOL     OW32499   3.803   6.920   0.459  0.0532 -0.2746  0.4928
10605SOL    HW132500   3.798   6.825   0.453  1.9029 -0.3390 -1.1916
10605SOL    HW232501   3.854   6.937   0.538  1.4411 -0.7848 -0.2741
10606SOL     OW32502   0.012   6.692   3.021  1.1769 -0.3413 -0.3263
10606SOL    HW132503   0.046   6.606   2.995  0.7552 -0.7093  0.3051
10606SOL    HW232504  -0.018   6.732   2.939 -1.3897 -2.0212 -0.3408
10607SOL     OW32505   4.451   1.046   6.981  0.2009 -0.1922  0.0944
10607SOL    HW132506   4.405   1.130   6.992  0.2054 -0.1291 -0.3499
10607SOL    HW232507   4.473   1.043   6.888  0.5717 -0.4983  0.1916
10608SOL     OW32508   3.383   0.308   7.171  0.0385 -0.1743  0.4332
10608SOL    HW132509   3.344   0.246   7.233  0.3497 -1.4892 -0.6440
10608SOL    HW232510   3.405   0.384   7.225  2.0613 -1.9832  2.3548
10609SOL     OW32511   0.228   6.881   1.914  0.1384 -0.3192 -0.3075
10609SOL    HW132512   0.298   6.943   1.892  0.6487 -0.5488  0.6138
10609SOL    HW232513   0.163   6.934   1.961  0.0868 -0.2791 -0.4227
10610SOL     OW32514   5.009   5.558   3.573  0.4640  0.4646  0.0263
10610SOL    HW132515   5.043   5.606   3.648  0.7683  0.4674 -0.1091
10610SOL    HW232516   4.938   5.612   3.539 -0.7867 -0.3036  1.2833
10611SOL     OW32517   2.168   3.107   6.387  0.4924  0.6991  0.6216
10611SOL    HW132518   2.190   3.028   6.337 -0.3686  0.7090  0.2020
10611SOL    HW232519   2.232   3.172   6.360  0.1773  0.6362 -0.3163
10612SOL     OW32520   7.375   3.882   6.713 -0.3220 -0.7320 -0.3077
10612SOL    HW132521   7.313   3.831   6.662  1.0929 -1.8245 -1.0023
10612SOL    HW232522   7.422   3.818   6.766 -0.0353  0.1176  0.5043
10613SOL     OW32523   0.416   0.173   4.600  0.0896 -0.2429  0.2665
10613SOL    HW132524   0.323   0.172   4.623 -0.5166  0.2864 -1.9624
10613SOL    HW232525   0.426   0.101   4.539  0.4978  1.3981 -1.6937
10614SOL     OW32526   7.587   2.581   0.785  0.5840 -0.0935 -0.2841
10614SOL    HW132527   7.643   2.659   0.787 -1.1380  1.2532 -1.3182
10614SOL    HW232528   7.566   2.570   0.692 -1.6516  0.0921  0.1530
10615SOL     OW32529   4.221   2.240   4.232 -0.2392 -0.3203 -0.6956
10615SOL    HW132530   4.234   2.297   4.308  0.1203 -1.8611  0.4605
10615SOL    HW232531   4.156   2.285   4.179  0.5256  1.4800 -0.1822
10616SOL     OW32532   3.533   1.465   4.245  0.5075  0.4331 -0.1891
10616SOL    HW132533   3.555   1.382   4.287  0.8129 -0.0838 -1.3359
10616SOL    HW232534   3.602   1.525   4.272  1.4067 -0.2340 -0.9458
10617SOL     OW32535   5.112   4.869   2.080  0.4598 -0.0427 -0.4015
10617SOL    HW132536   5.100   4.821   1.998  1.9219 -1.2450  0.0289
10617SOL    HW232537   5.144   4.955   2.054  0.3765 -0.2281 -1.1255
10618SOL     OW32538   2.485   6.061   5.059  0.5733  0.0101 -0.0397
10618SOL    HW132539   2.458   5.994   4.996  0.6663  1.6375 -1.8873
10618SOL    HW232540   2.580   6.065   5.050  0.5592  0.4390  0.0010
10619SOL     OW32541   4.202   4.384   2.658 -0.0839 -0.1476  0.2386
10619SOL    HW132542   4.209   4.464   2.607 -1.7467 -1.0189 -1.5055
10619SOL    HW232543   4.243   4.405   2.742  1.1805  1.9073 -0.8156
10620SOL     OW32544   2.319   7.249   0.167  0.0315  0.1480 -0.2009
10620SOL    HW132545   2.313   7.183   0.098  0.7276  1.1459 -1.2591
10620SOL    HW232546   2.413   7.266   0.175 -0.0869  0.4653  0.5738
10621SOL     OW32547   5.524   3.564   3.367 -0.1012 -0.2609 -0.6989
10621SOL    HW132548   5.533   3.633   3.434  0.0491  1.3979 -2.3436
10621SOL    HW232549   5.599   3.576   3.310 -0.5096 -1.3020 -1.4802
10622SOL     OW32550   2.050   6.402   6.263 -0.1382 -0.6263 -0.1815
10622SOL    HW132551   1.977   6.341   6.259  0.0376 -0.8003 -0.8199
10622SOL    HW232552   2.120   6.360   6.214  0.7321 -0.8962  1.2308
10623SOL     OW32553   1.869   7.745   5.272 -0.3309 -0.2031 -0.1607
10623SOL    HW132554   1.850   7.834   5.241 -2.9583 -0.2375  1.0498
10623SOL    HW232555   1.894   7.698   5.193  1.1174  1.5696 -0.8415
10624SOL     OW32556   1.485   5.548   4.425  0.1096 -0.2325 -0.4873
10624SOL    HW132557   1.460   5.505   4.343 -0.0455  1.1412 -1.1957
10624SOL    HW232558   1.463   5.485   4.493 -4.3480  0.3498 -1.1037
10625SOL     OW32559   6.683   3.544   6.282 -0.1434  0.2319  0.9768
10625SOL    HW132560   6.746   3.615   6.271 -0.2449  0.1962  0.1094
10625SOL    HW232561   6.652   3.554   6.373 -0.1597  1.3017  0.8770
10626SOL     OW32562   7.715   3.341   5.091  0.5099 -0.5400 -0.6050
10626SOL    HW132563   7.722   3.409   5.158  0.6451  0.4224 -1.5653
10626SOL    HW232564   7.630   3.358   5.049 -1.2428 -3.2206  1.4837
10627SOL     OW32565   6.330   4.516   3.826 -0.2117 -0.5659 -0.3188
10627SOL    HW132566   6.401   4.461   3.794  0.4214 -0.4889  0.8988
10627SOL    HW232567   6.353   4.604   3.795  0.4285 -0.4793  0.3829
10628SOL     OW32568   3.470   5.464   4.452  0.9005 -0.1661 -0.0374
10628SOL    HW132569   3.476   5.475   4.357  1.0812 -0.8997 -0.1150
10628SOL    HW232570   3.411   5.390   4.465  1.2509 -0.3751  0.4072
10629SOL     OW32571   3.928   4.684   0.086 -0.3406  0.5100 -0.1667
10629SOL    HW132572   3.966   4.694  -0.001  0.6106  3.1248  0.4467
10629SOL    HW232573   3.857   4.749   0.090 -1.2723 -0.5022  0.5792
10630SOL     OW32574   4.603   4.257   3.546 -0.6021 -0.0913 -0.5175
10630SOL    HW132575   4.634   4.345   3.523  0.2631 -0.4069 -0.5915
10630SOL    HW232576   4.670   4.198   3.511 -0.2036 -0.6832  1.1530
10631SOL     OW32577   0.823   2.782   2.047 -0.4309 -0.0168 -0.0042
10631SOL    HW132578   0.809   2.768   2.141 -0.7806 -0.0187 -0.0565
10631SOL    HW232579   0.745   2.828   2.018 -0.5890 -0.5454 -0.4144
10632SOL     OW32580   4.178   0.690   5.699  0.2829  0.0075 -0.2763
10632SOL    HW132581   4.108   0.652   5.646 -0.0488 -0.5146  0.5269
10632SOL    HW232582   4.175   0.642   5.781  1.7916 -0.2356 -0.3351
10633SOL     OW32583   6.304   6.302   4.703  0.2688  0.3434  0.3119
10633SOL    HW132584   6.210   6.288   4.720  0.1788 -0.2305 -0.5587
10633SOL    HW232585   6.309   6.391   4.668 -0.3067 -0.4156 -1.8761
10634SOL     OW32586   1.779   4.731   0.294  0.1697 -0.2245 -0.1149
10634SOL    HW132587   1.844   4.678   0.340  1.1860  0.5237 -0.6497
10634SOL    HW232588   1.777   4.695   0.206  1.1090  0.7812 -0.5783
10635SOL     OW32589   0.501   3.289   6.351 -0.8303  0.2785 -0.0728
10635SOL    HW132590   0.530   3.353   6.416 -1.5400  1.8380 -1.2304
10635SOL    HW232591   0.458   3.221   6.403  0.3610  0.4758  1.2322
10636SOL     OW32592   1.172   2.565   0.422 -0.6920 -0.4329 -0.2308
10636SOL    HW132593   1.252   2.516   0.444  0.4358  1.5403  0.2626
10636SOL    HW232594   1.107   2.533   0.484  0.6840  0.4020  1.7326
10637SOL     OW32595   2.054   6.082   6.211  0.3563  0.8182  0.1736
10637SOL    HW132596   2.127   6.142   6.196  3.1453 -2.0883  1.0164
10637SOL    HW232597   2.051   6.072   6.306  0.2611 -0.6540  0.0391
10638SOL     OW32598   5.417   4.441   2.583 -0.0987  0.0647  0.4631
10638SOL    HW132599   5.505   4.455   2.619 -0.2458  0.9967  0.4765
10638SOL    HW232600   5.358   4.451   2.658 -0.1841 -1.3991  0.6328
10639SOL     OW32601   1.079   3.472   7.176 -0.0141 -0.1828 -0.4447
10639SOL    HW132602   1.007   3.413   7.155  0.5644 -0.2510 -2.4287
10639SOL    HW232603   1.040   3.560   7.173 -0.0644 -0.2208 -1.4998
10640SOL     OW32604   1.209   0.405   3.558 -0.1093  0.1041 -0.6472
10640SOL    HW132605   1.256   0.440   3.634  2.0271 -1.1731 -1.2852
10640SOL    HW232606   1.216   0.473   3.492 -0.0135  0.3234 -0.4133
10641SOL     OW32607   0.555   3.300   5.955 -0.0659 -0.8400  0.9660
10641SOL    HW132608   0.614   3.374   5.967 -0.1008 -0.5817 -0.3147
10641SOL    HW232609   0.609   3.223   5.975  0.8437 -0.6263 -0.4923
10642SOL     OW32610   1.301   1.754   0.893 -0.1801  0.3563 -0.1629
10642SOL    HW132611   1.315   1.812   0.968  0.9750 -0.1357  0.0132
10642SOL    HW232612   1.350   1.675   0.914  1.3480  0.7414 -2.0511
10643SOL     OW32613   3.404   3.385   0.974  0.6728 -0.1474 -0.1668
10643SOL    HW132614   3.431   3.298   1.004  1.0234  0.5906  1.8043
10643SOL    HW232615   3.481   3.421   0.931  1.0590 -0.1730  0.4985
10644SOL     OW32616   7.372   0.305   1.623 -0.2327 -0.6459 -0.2790
10644SOL    HW132617   7.416   0.245   1.564 -0.3462  1.0949 -2.2322
10644SOL    HW232618   7.317   0.359   1.567 -2.0509 -0.3088  1.6751
10645SOL     OW32619   1.789   3.929   3.248  0.2779  0.0432  0.3382
10645SOL    HW132620   1.828   4.013   3.223 -0.5600  0.9196  1.8149
10645SOL    HW232621   1.828   3.866   3.188  0.3878  1.5800 -1.2882
10646SOL     OW32622   7.480   4.754   0.212 -0.3465  0.1050  0.4595
10646SOL    HW132623   7.395   4.794   0.230 -0.7810 -0.8678  0.5952
10646SOL    HW232624   7.475   4.668   0.252  0.5494 -0.1268  0.0833
10647SOL     OW32625   6.157   0.505   5.388  0.3797  0.2517 -0.1631
10647SOL    HW132626   6.111   0.439   5.335 -2.1217  1.1845  0.6761
10647SOL    HW232627   6.246   0.506   5.353  0.6208 -3.6181 -0.1224
10648SOL     OW32628   5.336   3.134   4.494  0.2618 -0.4118 -0.7599
10648SOL    HW132629   5.381   3.209   4.455  0.9008 -1.3106 -1.7970
10648SOL    HW232630   5.397   3.061   4.485  0.7687 -0.5680  2.5838
10649SOL     OW32631   3.525   0.685   4.296  0.0982  0.5447  0.1582
10649SOL    HW132632   3.483   0.718   4.217  2.9869  0.8337 -1.4121
10649SOL    HW232633   3.455   0.644   4.346 -1.7994 -0.0638 -2.7718
10650SOL     OW32634   6.705   0.138   0.564  0.1204  0.3961 -0.4683
10650SOL    HW132635   6.739   0.049   0.553  0.4909  0.6333 -1.2578
10650SOL    HW232636   6.610   0.127   0.563  0.1611  0.0089 -0.5092
10651SOL     OW32637   3.324   1.410   6.115 -0.0340  0.0158 -0.2647
10651SOL    HW132638   3.272   1.349   6.063  2.1102 -1.5278 -0.7569
10651SOL    HW232639   3.261   1.450   6.176 -1.7270 -1.8880 -0.6543
10652SOL     OW32640   4.358   7.213   3.758 -0.2158 -0.5019 -0.2094
10652SOL    HW132641   4.308   7.212   3.840 -0.5914 -0.7853 -0.4345
10652SOL    HW232642   4.435   7.265   3.777 -0.4381 -0.3352  0.2469
10653SOL     OW32643   5.053   4.296   2.471 -0.5360  0.4245  0.4244
10653SOL    HW132644   5.030   4.293   2.564 -0.3145  0.6092  0.4871
10653SOL    HW232645   5.059   4.204   2.445  1.0048  0.3164  1.0084
10654SOL     OW32646   7.391   2.952   6.353  0.3847 -0.0768 -0.3053
10654SOL    HW132647   7.350   2.877   6.310 -2.1357  1.4587 -0.7918
10654SOL    HW232648   7.422   2.917   6.437  0.0551 -1.8157 -0.8606
10655SOL     OW32649   7.176   6.828   6.332  0.3192 -0.0519 -0.3047
10655SOL    HW132650   7.162   6.916   6.299 -0.0109  0.2020  0.5091
10655SOL    HW232651   7.189   6.775   6.253  2.6374  1.0593 -0.7719
10656SOL     OW32652   4.918   6.127   1.325  0.0698  0.2040 -0.1130
10656SOL    HW132653   4.902   6.040   1.289  0.4551  0.3136 -0.5616
10656SOL    HW232654   5.011   6.142   1.310 -0.2302  1.1712 -1.1248
10657SOL     OW32655   6.340   6.482   3.601  0.1829  0.3767  0.4473
10657SOL    HW132656   6.423   6.474   3.648 -0.3289 -1.0626  1.1507
10657SOL    HW232657   6.296   6.556   3.642  1.1350  1.1910  0.0294
10658SOL     OW32658   6.781   6.956   3.815 -0.0451 -0.7911 -0.0865
10658SOL    HW132659   6.744   7.025   3.760 -3.6637 -0.7073  2.1952
10658SOL    HW232660   6.767   6.875   3.765  0.1647 -0.3753 -0.8379
10659SOL     OW32661   0.329   1.016   7.346 -0.2930  0.3104 -0.1375
10659SOL    HW132662   0.384   1.019   7.424 -0.8031  2.2850  0.2065
10659SOL    HW232663   0.368   1.079   7.286 -0.2508 -0.7565 -1.2767
10660SOL     OW32664   0.920   6.451   1.872 -0.2021  0.0741 -0.3518
10660SOL    HW132665   0.912   6.483   1.962 -0.2100  0.8938 -0.6385
10660SOL    HW232666   1.005   6.408   1.869  0.1014  0.6579 -0.1386
10661SOL     OW32667   3.742   7.302   6.068  0.0470 -0.2779  0.1446
10661SOL    HW132668   3.775   7.387   6.096 -1.4755  0.6509 -0.7529
10661SOL    HW232669   3.715   7.259   6.149  1.2508 -0.1264  0.6556
10662SOL     OW32670   1.357   3.387   4.225  0.0354  0.2619 -0.9289
10662SOL    HW132671   1.305   3.464   4.202  0.9418  1.2005  0.0353
10662SOL    HW232672   1.366   3.339   4.143 -0.4630  1.2367 -1.5779
10663SOL     OW32673   0.868   6.701   1.011  0.1346  0.5384  0.3153
10663SOL    HW132674   0.817   6.630   0.969  0.7587 -0.1638  0.7193
10663SOL    HW232675   0.875   6.768   0.943 -0.2740  0.1173 -0.1595
10664SOL     OW32676   7.294   2.302   2.362 -0.2467  0.2211  0.2744
10664SOL    HW132677   7.313   2.243   2.434 -2.7745 -0.5000  0.4305
10664SOL    HW232678   7.292   2.246   2.284  0.9853  0.7554 -0.1788
10665SOL     OW32679   7.631   2.434   1.380  0.0016 -0.0472 -0.1454
10665SOL    HW132680   7.655   2.389   1.460  2.1784 -0.1504 -0.7980
10665SOL    HW232681   7.588   2.514   1.409  1.9019  0.5472  1.1738
10666SOL     OW32682   0.128   4.128   1.508  0.3470  0.2547  0.6975
10666SOL    HW132683   0.200   4.085   1.463 -0.0850  0.8362 -0.6000
10666SOL    HW232684   0.166   4.159   1.590  0.7231 -2.3491  1.5967
10667SOL     OW32685   2.333   4.141   2.826 -0.2535 -0.1314  0.2844
10667SOL    HW132686   2.320   4.143   2.921 -1.1118  1.7469  0.1723
10667SOL    HW232687   2.256   4.186   2.790  0.9044  0.7505 -1.2006
10668SOL     OW32688   5.643   3.042   6.231  0.7862  0.0998  0.5538
10668SOL    HW132689   5.736   3.023   6.244  1.1471  0.9614 -0.6235
10668SOL    HW232690   5.631   3.040   6.136 -0.3226  0.3520  0.6730
10669SOL     OW32691   0.340   7.605   1.729  0.2590 -0.3929 -0.4815
10669SOL    HW132692   0.262   7.553   1.711  0.5681 -0.4558 -1.7208
10669SOL    HW232693   0.381   7.618   1.643  0.5035  1.4176 -0.1280
10670SOL     OW32694   5.317   7.522   0.573 -0.6305  0.4038 -0.1747
10670SOL    HW132695   5.251   7.460   0.605  0.4975 -0.5813  0.2942
10670SOL    HW232696   5.397   7.499   0.619  0.7710 -0.2734 -2.7684
10671SOL     OW32697   0.638   5.435   5.725  1.0254  0.0443  0.4118
10671SOL    HW132698   0.711   5.492   5.700  3.2791 -2.2568  1.2594
10671SOL    HW232699   0.601   5.405   5.641  2.5110 -0.4219 -0.1097
10672SOL     OW32700   5.608   2.775   6.426 -0.3087  0.2495 -0.5715
10672SOL    HW132701   5.635   2.769   6.518 -0.9381  1.3083 -0.2948
10672SOL    HW232702   5.647   2.857   6.395 -0.1316 -0.0834 -1.2397
10673SOL     OW32703   4.025   1.725   4.310  0.6888 -0.2289 -0.6454
10673SOL    HW132704   4.119   1.736   4.296  0.6518 -0.4861 -1.1449
10673SOL    HW232705   3.985   1.760   4.230  0.1719  2.6399  0.7566
10674SOL     OW32706   0.854   5.480   7.707  0.9158 -0.4538 -0.1690
10674SOL    HW132707   0.874   5.479   7.613  1.7224  1.0611 -0.0415
10674SOL    HW232708   0.938   5.496   7.750  0.5102 -0.8566  0.8002
10675SOL     OW32709   5.727   4.996   3.976 -0.3845  0.1809  0.3268
10675SOL    HW132710   5.704   4.904   3.989  1.8604 -0.2882  1.5079
10675SOL    HW232711   5.647   5.044   3.998 -1.0620 -1.4082  1.5772
10676SOL     OW32712   6.122   5.354   0.342  0.4906 -0.3765  0.5714
10676SOL    HW132713   6.191   5.290   0.361  0.4822 -0.5956 -0.1154
10676SOL    HW232714   6.159   5.438   0.369  1.5311 -0.3127 -0.9539
10677SOL     OW32715   4.890   0.840   4.094 -0.3988  0.1251  0.1828
10677SOL    HW132716   4.932   0.876   4.172 -2.7776  0.5707  1.3341
10677SOL    HW232717   4.824   0.905   4.070 -2.5485 -1.9102  0.3198
10678SOL     OW32718   1.894   3.509   5.745 -0.1034  0.1698  0.7931
10678SOL    HW132719   1.807   3.527   5.782  0.1047 -0.7841  1.8142
10678SOL    HW232720   1.906   3.415   5.758  0.9183  0.2245  0.2964
10679SOL     OW32721   1.717   4.150   2.389  0.4055 -0.9947 -0.0372
10679SOL    HW132722   1.757   4.230   2.353 -1.3751 -0.8247 -1.8424
10679SOL    HW232723   1.731   4.157   2.483  3.8939 -0.6229 -0.4331
10680SOL     OW32724   1.600   2.588   2.923 -0.7910 -0.6697  0.4099
10680SOL    HW132725   1.695   2.586   2.915 -0.7128 -0.2706  1.1557
10680SOL    HW232726   1.579   2.680   2.939 -1.5551 -0.2134 -2.5250
10681SOL     OW32727   0.125   2.096   2.699  0.3188  0.6003 -0.1090
10681SOL    HW132728   0.052   2.115   2.640 -0.0880 -0.8793 -0.1052
10681SOL    HW232729   0.199   2.080   2.641 -0.2460 -1.5737 -0.3157
10682SOL     OW32730   7.346   2.364   4.544 -0.0829 -0.7400  0.3815
10682SOL    HW132731   7.262   2.410   4.538 -0.1556 -0.9261 -0.0858
10682SOL    HW232732   7.399   2.403   4.474  0.4721 -0.1104  1.1440
10683SOL     OW32733   4.899   5.989   4.631 -0.2090  0.1582  0.1302
10683SOL    HW132734   4.846   6.050   4.578 -0.1821  0.0466 -0.0268
10683SOL    HW232735   4.841   5.963   4.702 -0.5678 -0.4086 -0.3565
10684SOL     OW32736   0.280   3.438   4.879  0.0603  0.1040  0.3327
10684SOL    HW132737   0.212   3.495   4.915 -0.1434 -0.8379  1.5075
10684SOL    HW232738   0.243   3.349   4.887  0.8359 -0.2901 -0.3715
10685SOL     OW32739   1.466   4.680   1.806  0.3364 -0.6380 -0.3036
10685SOL    HW132740   1.402   4.724   1.862  1.0674 -1.0832  0.9344
10685SOL    HW232741   1.541   4.740   1.804 -0.0719 -0.1517 -1.6813
10686SOL     OW32742   7.095   2.397   5.158  0.0332  0.3688  0.5769
10686SOL    HW132743   7.188   2.379   5.172  0.5193  0.5755 -1.8094
10686SOL    HW232744   7.060   2.315   5.122 -0.7890  0.2160  1.6795
10687SOL     OW32745   3.336   1.328   3.188  0.3405 -0.2424  0.2462
10687SOL    HW132746   3.338   1.412   3.142  0.5459 -0.2769  0.1933
10687SOL    HW232747   3.302   1.266   3.124  1.3460 -0.4443 -0.1100
10688SOL     OW32748   4.317   0.886   3.937 -0.0936  0.7058 -0.0038
10688SOL    HW132749   4.264   0.814   3.904 -1.1005  1.6925 -0.5921
10688SOL    HW232750   4.254   0.947   3.975  0.8040  0.9712  1.1007
10689SOL     OW32751   3.098   1.696   2.591  0.6037 -0.2640  0.0860
10689SOL    HW132752   3.122   1.767   2.651  0.3950  0.3145 -0.4934
10689SOL    HW232753   3.051   1.633   2.645 -1.2818  1.1285  0.2037
10690SOL     OW32754   5.667   6.879   3.804 -0.4936 -0.3015 -0.5367
10690SOL    HW132755   5.738   6.943   3.807 -0.5925 -0.2339  0.4821
10690SOL    HW232756   5.591   6.925   3.839 -0.7773 -0.7132 -0.6054
10691SOL     OW32757   6.291   4.863   3.525  0.2193 -0.0734  0.3529
10691SOL    HW132758   6.369   4.898   3.568  1.0360  0.3490 -1.4266
10691SOL    HW232759   6.220   4.922   3.552  0.8403  0.5889  0.5630
10692SOL     OW32760   4.811   2.829   4.016  0.1285  0.0587 -0.7290
10692SOL    HW132761   4.809   2.754   3.955 -1.9922  0.3528 -1.0833
10692SOL    HW232762   4.900   2.863   4.007  0.8779 -1.8571 -1.2438
10693SOL     OW32763   3.623   5.358   5.119  0.8481 -0.1842 -0.0285
10693SOL    HW132764   3.578   5.440   5.137  1.3361 -0.2480  1.6567
10693SOL    HW232765   3.605   5.340   5.027 -0.9924  0.7410  0.1133
10694SOL     OW32766   2.867   5.249   6.763 -0.2612  0.0359 -0.4628
10694SOL    HW132767   2.944   5.193   6.753  1.6524  2.8281 -3.2583
10694SOL    HW232768   2.880   5.291   6.848 -0.1838 -1.4857  0.3166
10695SOL     OW32769   7.139   3.268   4.615  0.1847 -0.4051 -0.8681
10695SOL    HW132770   7.069   3.237   4.558 -0.3846 -0.4642 -0.1550
10695SOL    HW232771   7.212   3.286   4.556 -1.1010  1.7309 -1.9349
10696SOL     OW32772   3.222   0.980   6.063  0.0228 -0.3377 -0.3409
10696SOL    HW132773   3.174   1.046   6.112  0.1814  0.0718 -0.7268
10696SOL    HW232774   3.155   0.916   6.037  0.0467 -0.9467  0.9992
10697SOL     OW32775   1.348   7.726   0.744  0.2945 -0.6655  0.0986
10697SOL    HW132776   1.420   7.676   0.708 -0.1584 -0.2568 -1.4500
10697SOL    HW232777   1.284   7.660   0.772  0.4338 -0.9798 -0.3258
10698SOL     OW32778   2.599   1.517   3.551 -0.1118 -0.1796  0.1718
10698SOL    HW132779   2.626   1.605   3.578  0.6729 -0.1718 -0.6063
10698SOL    HW232780   2.534   1.492   3.616  0.1058  0.7275  0.7687
10699SOL     OW32781   5.850   0.550   7.538  0.0361  0.4367 -0.1864
10699SOL    HW132782   5.879   0.634   7.502  0.7373  0.7920  1.1439
10699SOL    HW232783   5.810   0.572   7.622 -1.2703 -0.4065 -0.5639
10700SOL     OW32784   2.091   2.832   4.135 -0.0690 -0.1629 -0.2392
10700SOL    HW132785   2.163   2.878   4.092  0.6415 -1.3774 -0.3714
10700SOL    HW232786   2.092   2.865   4.225  0.4999 -0.0041 -0.3004
10701SOL     OW32787   3.829   5.037   0.146  1.0095 -0.1964 -0.3966
10701SOL    HW132788   3.924   5.043   0.159  1.3985 -1.0340 -2.4816
10701SOL    HW232789   3.803   5.124   0.115  1.0143  0.1519  0.5571
10702SOL     OW32790   5.115   6.174   0.150  0.3535  0.1660 -0.3730
10702SOL    HW132791   5.122   6.194   0.056 -0.1877  0.3381 -0.3781
10702SOL    HW232792   5.177   6.102   0.163  1.2284  0.8471 -0.6515
10703SOL     OW32793   6.757   1.568   3.435  0.4713  0.0826 -0.0981
10703SOL    HW132794   6.846   1.564   3.471  0.0706  1.5026  1.1522
10703SOL    HW232795   6.705   1.514   3.493  0.4551 -0.5054 -0.6544
10704SOL     OW32796   5.491   6.687   3.107 -0.1474  0.0976  0.2221
10704SOL    HW132797   5.466   6.740   3.182  1.4285 -0.3973  1.1512
10704SOL    HW232798   5.429   6.614   3.107 -0.1860  0.1218  1.0231
10705SOL     OW32799   4.039   6.560   3.113  0.0029  0.5947 -0.3436
10705SOL    HW132800   3.969   6.623   3.094  0.7500  1.2046 -1.1953
10705SOL    HW232801   4.098   6.567   3.038  0.7084 -0.2905  0.1083
10706SOL     OW32802   0.984   1.421   2.284 -0.5315  0.1816 -0.1087
10706SOL    HW132803   1.079   1.426   2.299 -0.5426 -0.0690  0.0457
10706SOL    HW232804   0.946   1.427   2.371 -0.6119 -0.8757 -0.0560
10707SOL     OW32805   1.277   4.537   0.729  0.2589  0.0176  0.2495
10707SOL    HW132806   1.216   4.582   0.670 -1.2422 -1.1951  0.8159
10707SOL    HW232807   1.342   4.604   0.751 -0.5635  1.2157 -0.7741
10708SOL     OW32808   5.309   7.175   0.162 -0.0511  0.1810 -0.4224
10708SOL    HW132809   5.405   7.173   0.159 -0.0572 -1.5807 -0.6348
10708SOL    HW232810   5.282   7.209   0.077  0.3706  0.4269 -0.4605
10709SOL     OW32811   7.017   4.080   1.263  0.0491  0.0117 -0.2257
10709SOL    HW132812   6.990   4.076   1.354  0.2891 -1.3220 -0.1813
10709SOL    HW232813   7.108   4.052   1.264 -0.0847 -0.4776 -0.9188
10710SOL     OW32814   3.365   1.376   7.479 -0.3251 -0.1476 -0.0932
10710SOL    HW132815   3.347   1.349   7.389  1.3500 -1.4775 -0.0880
10710SOL    HW232816   3.405   1.463   7.470 -3.1761  1.2685 -0.3174
10711SOL     OW32817   4.009   1.020   5.731  0.2319 -0.3930 -0.1677
10711SOL    HW132818   4.014   1.114   5.711  0.4769 -0.2247  0.6069
10711SOL    HW232819   4.070   0.979   5.670  1.9720  0.2471  1.0533
10712SOL     OW32820   3.893   4.839   4.357  0.2256  0.8311  0.0233
10712SOL    HW132821   3.963   4.788   4.316 -1.0073  0.0359 -1.1432
10712SOL    HW232822   3.891   4.921   4.308  0.0117  0.6551 -0.2606
10713SOL     OW32823   1.727   0.572   1.164 -0.3160  0.3824  0.4074
10713SOL    HW132824   1.779   0.568   1.245  0.5742 -1.9876 -0.2147
10713SOL    HW232825   1.785   0.615   1.101 -1.1388  2.5604  1.0290
10714SOL     OW32826   0.791   0.758   1.602 -0.9656  0.2682  0.2843
10714SOL    HW132827   0.746   0.678   1.631 -2.5867  1.2131  0.5196
10714SOL    HW232828   0.842   0.786   1.679 -0.1542 -0.6794  0.1048
10715SOL     OW32829   6.079   6.629   7.101 -0.6811  0.5797  0.5086
10715SOL    HW132830   6.109   6.676   7.179  1.5681  1.1399 -0.5995
10715SOL    HW232831   6.110   6.540   7.112 -0.6619  0.5744  0.4182
10716SOL     OW32832   6.955   2.158   5.073  0.0224 -0.4515  0.4776
10716SOL    HW132833   6.995   2.072   5.055  2.9531  0.7816  0.4619
10716SOL    HW232834   6.880   2.162   5.015  1.1101 -2.1426 -1.1757
10717SOL     OW32835   5.586   5.626   0.638 -0.1267 -0.5612 -0.3164
10717SOL    HW132836   5.642   5.549   0.648 -0.4332 -0.6623  0.6979
10717SOL    HW232837   5.622   5.690   0.700 -0.8474 -0.4612  0.0103
10718SOL     OW32838   1.244   6.880   3.980 -0.0737  0.4131  0.5224
10718SOL    HW132839   1.182   6.814   4.011 -0.8722  0.5919 -0.6124
10718SOL    HW232840   1.201   6.964   3.995  0.1146  0.5707  0.1982
10719SOL     OW32841   7.312   1.349   0.456 -0.0267 -0.6647  0.1958
10719SOL    HW132842   7.370   1.275   0.439  1.1300 -0.0637  1.3405
10719SOL    HW232843   7.230   1.309   0.485  0.5426 -1.5150  0.6965
10720SOL     OW32844   5.264   7.442   2.602 -0.0243  0.4195 -0.5147
10720SOL    HW132845   5.207   7.440   2.680 -1.4094 -0.1776 -1.5010
10720SOL    HW232846   5.284   7.350   2.585 -0.4856  0.4679 -1.3748
10721SOL     OW32847   3.988   1.286   5.178 -0.0082 -0.2384  0.1554
10721SOL    HW132848   3.977   1.217   5.244 -3.1940 -0.1563 -0.0968
10721SOL    HW232849   3.978   1.368   5.227 -2.6810 -0.1809 -0.3306
10722SOL     OW32850   7.146   6.905   1.889 -0.4265 -0.0803 -0.3664
10722SOL    HW132851   7.187   6.821   1.908 -0.8123 -0.1311  0.2544
10722SOL    HW232852   7.119   6.939   1.974 -0.0216  0.8071 -0.5787
10723SOL     OW32853   3.774   5.817   1.979 -0.4694 -0.6129  0.5748
10723SOL    HW132854   3.739   5.788   1.894  1.3235 -3.9940  0.8270
10723SOL    HW232855   3.703   5.801   2.041 -0.7087 -1.2150  0.1572
10724SOL     OW32856   3.212   0.373   1.793 -0.0379 -0.0411  0.3201
10724SOL    HW132857   3.215   0.344   1.702  0.8811  1.1008 -0.0276
10724SOL    HW232858   3.146   0.442   1.795  2.4754  2.5354 -0.3101
10725SOL     OW32859   5.949   4.977   0.514  0.6564  0.5793  0.1382
10725SOL    HW132860   5.970   5.058   0.561  0.8145 -0.2797  1.6031
10725SOL    HW232861   6.004   4.911   0.555 -0.0218 -0.4290 -0.5377
10726SOL     OW32862   3.626   0.848   7.507 -0.0252 -0.4601 -0.1288
10726SOL    HW132863   3.718   0.870   7.490  0.4371 -1.3968  1.0230
10726SOL    HW232864   3.618   0.849   7.602 -1.3695  0.1818 -0.2193
10727SOL     OW32865   4.181   0.378   3.902 -0.0995 -0.3187  0.5578
10727SOL    HW132866   4.141   0.329   3.830 -1.7855 -0.1859  1.3397
10727SOL    HW232867   4.196   0.313   3.970  0.8023 -0.3166  0.3681
10728SOL     OW32868   0.743   2.520   5.353  0.0121 -0.1211 -0.2434
10728SOL    HW132869   0.758   2.601   5.304 -0.4179  0.3030  0.3103
10728SOL    HW232870   0.693   2.465   5.292 -1.2756  0.7387  0.0014
10729SOL     OW32871   1.104   3.915   5.885  0.4545 -0.6406  0.1783
10729SOL    HW132872   1.157   3.941   5.961 -0.5007 -0.7760  0.9014
10729SOL    HW232873   1.106   3.820   5.887 -1.6025 -0.7076  1.5248
10730SOL     OW32874   5.086   1.475   3.834 -0.1961  1.2049  0.8927
10730SOL    HW132875   5.169   1.453   3.793 -0.7365 -1.1277  0.9058
10730SOL    HW232876   5.106   1.549   3.891  1.5876  1.4351  0.0283
10731SOL     OW32877   1.028   2.139   3.950 -0.0734  0.3839  0.2579
10731SOL    HW132878   0.958   2.191   3.911  0.3693  0.4032 -0.5233
10731SOL    HW232879   1.058   2.082   3.879 -0.5740 -0.9758  1.0888
10732SOL     OW32880   3.919   1.818   0.565 -0.2228  0.0979  0.5933
10732SOL    HW132881   3.862   1.751   0.528 -1.6317  0.4136  2.0530
10732SOL    HW232882   3.969   1.773   0.633  1.6796 -0.2811 -0.9951
10733SOL     OW32883   3.854   0.954   3.454 -0.3627  0.1251 -0.7062
10733SOL    HW132884   3.825   0.862   3.456 -0.6780  0.2213 -0.8131
10733SOL    HW232885   3.789   1.001   3.506 -0.6915  0.4209 -1.3673
10734SOL     OW32886   7.561   4.974   2.376 -0.1081 -0.3870  0.2336
10734SOL    HW132887   7.511   5.019   2.444  1.2112 -0.7941  1.5240
10734SOL    HW232888   7.630   5.036   2.352  0.1208 -0.6955  0.0899
10735SOL     OW32889   5.922   2.997   3.391  0.1850 -0.5265 -0.1699
10735SOL    HW132890   5.882   3.025   3.474 -1.0039 -1.1606 -0.5099
10735SOL    HW232891   5.962   3.076   3.355 -1.5364  0.3454 -0.2394
10736SOL     OW32892   0.384   3.938   6.373 -0.0244  0.7152  0.5623
10736SOL    HW132893   0.478   3.940   6.357  0.4201 -1.6226  2.3560
10736SOL    HW232894   0.346   3.993   6.304  2.5134  0.5000 -1.1022
10737SOL     OW32895   0.597   5.688   4.959  0.1384 -0.6929  0.3529
10737SOL    HW132896   0.514   5.737   4.965  0.7839  0.4926 -0.0640
10737SOL    HW232897   0.620   5.669   5.050  0.9614  1.7461  0.7465
10738SOL     OW32898   4.713   5.401   3.794 -0.3100 -0.0526  0.0383
10738SOL    HW132899   4.750   5.487   3.812 -1.4605  0.4422  0.1228
10738SOL    HW232900   4.683   5.406   3.704  1.8026 -1.2010 -0.8058
10739SOL     OW32901   3.953   6.363   7.022 -0.0529 -0.7332 -0.5621
10739SOL    HW132902   4.034   6.326   7.058  1.5218  2.3179 -0.6065
10739SOL    HW232903   3.947   6.326   6.934  0.5336 -2.0474 -0.0706
10740SOL     OW32904   1.677   4.478   6.322 -0.4212  0.3094  0.1592
10740SOL    HW132905   1.629   4.471   6.404 -0.6402  0.6878  0.0700
10740SOL    HW232906   1.630   4.420   6.262 -1.3720  1.4047 -0.1970
10741SOL     OW32907   5.512   4.736   1.447  0.6274  0.6936 -0.5902
10741SOL    HW132908   5.579   4.760   1.382 -0.9083  2.9008 -1.4878
10741SOL    HW232909   5.474   4.655   1.413  0.9618  0.9364 -1.5787
10742SOL     OW32910   3.686   0.526   6.673  0.5979  0.1385 -0.3230
10742SOL    HW132911   3.723   0.488   6.594  2.2168 -0.5485  0.7181
10742SOL    HW232912   3.729   0.479   6.745  0.7121  2.1302  1.0002
10743SOL     OW32913   7.237   1.066   4.540  0.2632  0.0365 -0.0603
10743SOL    HW132914   7.156   1.034   4.501  0.5650 -1.0780  0.1719
10743SOL    HW232915   7.232   1.161   4.534 -1.5979  0.0546  1.0280
10744SOL     OW32916   5.412   4.764   7.659  0.0466  0.5756  0.4489
10744SOL    HW132917   5.344   4.775   7.726 -2.4674 -1.5287 -1.5078
10744SOL    HW232918   5.400   4.840   7.601 -0.7956  0.1565  0.0494
10745SOL     OW32919   7.732   2.150   5.340 -0.1634 -0.0612 -0.6506
10745SOL    HW132920   7.814   2.187   5.373 -1.1544  0.4682  1.3870
10745SOL    HW232921   7.671   2.223   5.341 -1.1008 -0.8284 -0.4637
10746SOL     OW32922   4.433   5.276   6.044  0.0261 -0.0541 -0.4323
10746SOL    HW132923   4.404   5.365   6.063  0.0804  0.0187 -0.6802
10746SOL    HW232924   4.376   5.247   5.973 -1.3728 -0.9728  1.0044
10747SOL     OW32925   3.163   5.179   2.972  0.1093  0.8585 -0.4751
10747SOL    HW132926   3.105   5.158   2.899  2.5491 -1.3612 -1.9446
10747SOL    HW232927   3.236   5.226   2.932 -0.1831  2.9369  1.2068
10748SOL     OW32928   0.901   4.611   6.663  0.2732 -0.3038  0.2298
10748SOL    HW132929   0.834   4.672   6.696  1.1333  0.2512  1.0034
10748SOL    HW232930   0.870   4.525   6.690  1.3482  0.1628  3.4238
10749SOL     OW32931   3.930   6.060   1.374 -0.1230  0.0067  0.2941
10749SOL    HW132932   3.859   6.093   1.318 -0.0902 -1.7967 -0.8863
10749SOL    HW232933   3.938   5.968   1.351  1.0682 -0.3862  2.0947
10750SOL     OW32934   2.261   6.811   0.875 -0.0195 -0.6585 -0.0171
10750SOL    HW132935   2.347   6.807   0.832  0.1555  1.3666  0.0623
10750SOL    HW232936   2.273   6.875   0.946 -1.9707  0.8468 -0.9687
10751SOL     OW32937   4.781   0.794   1.363 -0.0423 -0.2683  0.2884
10751SOL    HW132938   4.698   0.808   1.409 -0.3841 -0.4478 -0.2668
10751SOL    HW232939   4.848   0.802   1.431 -0.4802  0.3502  0.6529
10752SOL     OW32940   4.905   0.104   3.588  0.8366 -0.7664 -0.7684
10752SOL    HW132941   4.968   0.172   3.612  1.4802 -1.0711 -1.5497
10752SOL    HW232942   4.957   0.039   3.541 -0.1324 -0.8023 -1.8377
10753SOL     OW32943   3.547   7.554   6.300  0.2405 -0.0339 -0.3766
10753SOL    HW132944   3.541   7.628   6.361  0.1197 -0.5713  0.2709
10753SOL    HW232945   3.499   7.483   6.343  1.2464 -0.8159 -0.5098
10754SOL     OW32946   1.762   7.636   2.183 -0.5486  0.1786 -1.1946
10754SOL    HW132947   1.727   7.566   2.238  1.1424  0.4677  0.3459
10754SOL    HW232948   1.722   7.716   2.216  0.1766  0.3090 -0.6069
10755SOL     OW32949   3.267   5.323   6.682 -0.1742 -0.1893 -0.1806
10755SOL    HW132950   3.274   5.418   6.677  0.6585 -0.2556 -0.4049
10755SOL    HW232951   3.232   5.306   6.770 -0.6024  0.3287 -0.2476
10756SOL     OW32952   4.171   7.623   3.806  0.7700  0.0994  0.7019
10756SOL    HW132953   4.204   7.670   3.729  0.5522 -1.7432 -0.5974
10756SOL    HW232954   4.233   7.551   3.818 -1.2511 -1.9224 -0.2249
10757SOL     OW32955   7.102   2.761   6.757 -0.3194  0.0571 -0.0875
10757SOL    HW132956   7.087   2.846   6.799 -0.2382  0.6010 -1.1445
10757SOL    HW232957   7.167   2.778   6.689 -0.0945 -0.9087 -0.1368
10758SOL     OW32958   6.854   0.814   1.927 -0.3410 -0.6276 -0.2645
10758SOL    HW132959   6.927   0.857   1.882 -2.0912  2.3285 -0.5099
10758SOL    HW232960   6.783   0.814   1.864 -0.7759 -3.1199  0.1044
10759SOL     OW32961   3.874   1.962   1.807 -0.0578 -0.5265  0.2273
10759SOL    HW132962   3.849   1.921   1.890  0.6967 -1.1229  0.1736
10759SOL    HW232963   3.891   1.888   1.749  1.9705 -0.1893  0.3171
10760SOL     OW32964   4.487   4.177   0.470  0.5410 -0.2217 -0.4257
10760SOL    HW132965   4.495   4.089   0.434 -0.6529 -0.4126 -0.2896
10760SOL    HW232966   4.472   4.234   0.394  0.7753 -0.2159 -0.4670
10761SOL     OW32967   4.009   0.308   0.903 -0.3849  0.4471 -0.1616
10761SOL    HW132968   3.951   0.375   0.938 -0.2880  0.3856  0.1173
10761SOL    HW232969   4.044   0.264   0.980  1.1755  1.4462 -0.2444
10762SOL     OW32970   2.254   1.542   4.352 -0.5570  0.0774 -0.2774
10762SOL    HW132971   2.264   1.571   4.442  1.6260 -0.2244 -0.3705
10762SOL    HW232972   2.241   1.623   4.302  0.7983  0.5087  0.0298
10763SOL     OW32973   2.002   7.629   0.822  0.0999  0.4293 -0.1752
10763SOL    HW132974   2.027   7.716   0.851 -0.2423  0.9091 -1.2710
10763SOL    HW232975   2.075   7.573   0.848 -0.5070  0.6630  2.2340
10764SOL     OW32976   3.017   6.539   1.842 -0.5892  0.2733  0.8137
10764SOL    HW132977   3.063   6.457   1.857 -1.2139 -0.1987  0.2634
10764SOL    HW232978   3.085   6.605   1.836 -0.0519 -0.2675  0.9094
10765SOL     OW32979   7.116   0.122   5.642  0.4409 -0.0329 -0.3858
10765SOL    HW132980   7.208   0.148   5.649  0.8234 -0.8806 -1.8025
10765SOL    HW232981   7.067   0.199   5.672  1.5929  0.3328  0.6701
10766SOL     OW32982   6.416   5.689   2.143  0.0585  0.6117 -0.0024
10766SOL    HW132983   6.367   5.742   2.206 -1.3333 -0.0561 -0.4828
10766SOL    HW232984   6.360   5.686   2.066  0.3285 -1.1282 -0.1720
10767SOL     OW32985   2.256   2.059   4.794 -0.3237  0.0200 -0.3240
10767SOL    HW132986   2.295   2.034   4.710 -0.6192 -0.6693 -0.2606
10767SOL    HW232987   2.170   2.018   4.793 -0.9216  1.2234 -0.3069
10768SOL     OW32988   7.247   4.724   1.778 -0.1239  0.1466 -0.2085
10768SOL    HW132989   7.331   4.729   1.822 -1.3020  1.9547  2.0536
10768SOL    HW232990   7.205   4.808   1.796 -2.2801 -0.5533 -1.5600
10769SOL     OW32991   2.362   4.733   0.624 -0.0331  0.3194  0.3924
10769SOL    HW132992   2.413   4.788   0.683  0.0872  1.3794 -0.6653
10769SOL    HW232993   2.406   4.648   0.625 -1.1054 -0.3204  3.2512
10770SOL     OW32994   4.008   3.050   5.072 -0.3174 -0.3263 -0.1294
10770SOL    HW132995   3.955   3.078   4.997 -0.9811 -1.1453  0.0247
10770SOL    HW232996   3.995   3.118   5.138 -1.1650 -0.5082 -0.1016
10771SOL     OW32997   6.236   1.891   1.751 -0.1292 -0.1740  0.1561
10771SOL    HW132998   6.227   1.873   1.657 -1.0005 -0.4854  0.2898
10771SOL    HW232999   6.223   1.806   1.792 -0.2758  0.0594  0.5922
10772SOL     OW33000   0.191   5.538   3.399  0.3915 -0.5625 -0.1991
10772SOL    HW133001   0.251   5.521   3.471  0.3866 -0.2998 -0.1319
10772SOL    HW233002   0.231   5.611   3.351 -1.1280  1.3718  1.3093
10773SOL     OW33003   6.127   2.550   6.314  0.0590  0.1037  0.0395
10773SOL    HW133004   6.125   2.512   6.226 -0.3009 -0.0484  0.1116
10773SOL    HW233005   6.066   2.623   6.310 -0.3433 -0.2132  0.3006
10774SOL     OW33006   3.431   2.323   0.490  0.2840 -0.9575 -0.1995
10774SOL    HW133007   3.479   2.317   0.573  0.4933 -0.2934 -0.2658
10774SOL    HW233008   3.439   2.235   0.452 -1.2149 -1.7740  1.2307
10775SOL     OW33009   3.830   0.543   3.162  0.3881  0.2430  0.6905
10775SOL    HW133010   3.880   0.584   3.092  0.0980  0.7628  0.7837
10775SOL    HW233011   3.767   0.610   3.189 -0.6118 -0.5330  0.3186
10776SOL     OW33012   6.133   0.606   6.168 -0.2047  0.3167  0.1433
10776SOL    HW133013   6.048   0.583   6.130 -1.1592 -0.2366  2.4643
10776SOL    HW233014   6.168   0.524   6.202  1.7375  0.3675 -1.5182
10777SOL     OW33015   3.084   3.139   4.809  0.0584 -0.4295 -0.3368
10777SOL    HW133016   3.150   3.175   4.749 -0.2237  1.0462  0.2058
10777SOL    HW233017   3.008   3.124   4.753  0.6204 -1.5090 -0.8356
10778SOL     OW33018   3.333   4.474   7.331 -0.5072 -0.3075  0.2316
10778SOL    HW133019   3.263   4.507   7.387  0.3177  0.5402  0.8157
10778SOL    HW233020   3.293   4.463   7.245 -1.4490 -0.2503  0.6581
10779SOL     OW33021   6.352   3.863   5.008  0.3126 -0.4296  0.3335
10779SOL    HW133022   6.264   3.824   5.003  0.5206 -0.7401 -1.7982
10779SOL    HW233023   6.349   3.936   4.946  1.4962 -0.2943  0.4254
10780SOL     OW33024   7.492   7.437   3.611 -0.6882  0.7926 -0.1932
10780SOL    HW133025   7.574   7.430   3.660 -0.7101 -1.1363 -0.3350
10780SOL    HW233026   7.517   7.421   3.520 -1.2537 -0.2728 -0.1770
10781SOL     OW33027   2.726   3.964   6.363  0.4627  0.5040 -0.0860
10781SOL    HW133028   2.760   3.955   6.452  0.5730  1.8768  0.0214
10781SOL    HW233029   2.634   3.987   6.375  0.7343  1.7333 -0.3024
10782SOL     OW33030   2.468   7.327   3.583  0.1531 -0.2557 -0.8167
10782SOL    HW133031   2.514   7.303   3.664  1.9932 -0.0807 -1.7468
10782SOL    HW233032   2.377   7.340   3.610  0.7269 -0.1118  1.2328
10783SOL     OW33033   6.111   4.717   2.049 -0.6592 -0.4024 -0.4081
10783SOL    HW133034   6.162   4.645   2.011 -1.6691 -1.2157 -0.2630
10783SOL    HW233035   6.035   4.726   1.992 -1.8730 -1.2097  1.0055
10784SOL     OW33036   7.047   3.170   0.649  0.6026  0.8000  0.1808
10784SOL    HW133037   7.056   3.172   0.553  1.5993 -0.7260  0.1987
10784SOL    HW233038   6.972   3.226   0.667 -0.5967 -0.1141 -1.6289
10785SOL     OW33039   4.604   3.024   6.132  0.6226 -0.3920 -0.7448
10785SOL    HW133040   4.623   3.005   6.040  3.0168  0.7892 -0.5687
10785SOL    HW233041   4.673   3.084   6.159 -1.9331  2.0653  0.9226
10786SOL     OW33042   6.196   4.944   0.661  0.6556 -0.2710 -0.1201
10786SOL    HW133043   6.192   4.935   0.757 -1.3074 -0.0200 -0.1457
10786SOL    HW233044   6.192   5.038   0.646  0.9141 -0.3134 -0.4599
10787SOL     OW33045   3.458   4.550   4.490  0.5677  0.3297  0.3847
10787SOL    HW133046   3.462   4.456   4.510 -0.8152 -0.1310 -1.2628
10787SOL    HW233047   3.534   4.566   4.435  1.1107  0.3268  1.1095
10788SOL     OW33048   2.420   4.864   3.820  0.2048 -0.2445 -0.3290
10788SOL    HW133049   2.473   4.894   3.894 -2.4190  0.5220  1.4081
10788SOL    HW233050   2.388   4.778   3.847  0.0204 -0.3885 -0.9995
10789SOL     OW33051   2.601   0.609   3.049 -0.0395  0.1340 -0.0272
10789SOL    HW133052   2.692   0.635   3.059 -0.0873  0.8206 -1.2273
10789SOL    HW233053   2.606   0.525   3.003 -0.0159  0.5680 -0.8409
10790SOL     OW33054   1.831   1.856   1.180  0.4094  0.4664 -0.4770
10790SOL    HW133055   1.736   1.860   1.178  0.3983  0.1156 -0.6934
10790SOL    HW233056   1.852   1.764   1.164  0.6826 -0.4536  3.9101
10791SOL     OW33057   3.782   2.999   3.700  0.2048 -0.4608  0.3618
10791SOL    HW133058   3.716   3.059   3.733  0.4344 -0.7070  1.2898
10791SOL    HW233059   3.862   3.025   3.746  0.5308 -0.8138 -0.0051
10792SOL     OW33060   1.647   4.482   0.657  0.4624  0.3281  0.5174
10792SOL    HW133061   1.633   4.459   0.565 -0.9051 -0.0170  0.7810
10792SOL    HW233062   1.635   4.576   0.661  0.6566  0.3614  0.3266
10793SOL     OW33063   5.219   5.154   4.566 -0.0318  0.2289  0.0509
10793SOL    HW133064   5.264   5.216   4.624 -0.1225 -0.6705  1.1112
10793SOL    HW233065   5.126   5.168   4.585 -0.0301 -0.8651  1.0180
10794SOL     OW33066   4.602   5.234   2.518 -0.0249 -0.4417  0.0994
10794SOL    HW133067   4.635   5.258   2.604  1.7183 -1.7943 -0.1367
10794SOL    HW233068   4.588   5.140   2.523  0.6660 -0.6386 -1.2511
10795SOL     OW33069   4.705   3.655   5.485 -0.3643 -0.1578 -0.1603
10795SOL    HW133070   4.624   3.689   5.449  0.2571 -0.7965 -2.3091
10795SOL    HW233071   4.709   3.691   5.574 -2.2098  1.1251 -0.5436
10796SOL     OW33072   7.701   3.912   3.642 -0.0605  0.8760 -0.1630
10796SOL    HW133073   7.644   3.914   3.565  1.5744  0.0616 -1.4499
10796SOL    HW233074   7.718   4.004   3.662 -0.8890  1.1026 -0.4670
10797SOL     OW33075   1.644   4.380   3.156 -0.2876  0.1494  0.2373
10797SOL    HW133076   1.715   4.437   3.186 -0.4112 -0.5278  1.9293
10797SOL    HW233077   1.596   4.357   3.236 -0.9639 -1.3390 -0.5514
10798SOL     OW33078   0.463   2.248   2.298  0.1117 -0.0193  0.1693
10798SOL    HW133079   0.547   2.284   2.326  0.6366 -1.8424  1.0339
10798SOL    HW233080   0.483   2.202   2.216 -0.8051  2.5520 -1.6562
10799SOL     OW33081   6.274   0.527   4.205  0.3602 -0.1656  0.1739
10799SOL    HW133082   6.357   0.560   4.239  2.1208 -1.7302 -2.2220
10799SOL    HW233083   6.217   0.604   4.201  1.6082  0.9166  2.0729
10800SOL     OW33084   5.096   7.698   6.595 -0.6738 -0.2554  0.3984
10800SOL    HW133085   5.093   7.763   6.665 -0.8220  1.2958 -0.9608
10800SOL    HW233086   5.078   7.749   6.515  1.8860 -1.4591 -1.0740
10801SOL     OW33087   2.565   6.595   0.897  0.0295  0.2437  0.3433
10801SOL    HW133088   2.512   6.593   0.817 -2.1736 -1.3232  1.7455
10801SOL    HW233089   2.562   6.686   0.926 -1.0047  0.3956 -0.1918
10802SOL     OW33090   6.127   7.370   3.596 -0.3371 -0.0696  0.1501
10802SOL    HW133091   6.177   7.400   3.672  1.2370  0.3079 -0.9903
10802SOL    HW233092   6.162   7.283   3.577  0.0173  0.2563 -0.7455
10803SOL     OW33093   0.976   0.418   2.865  0.0282 -0.1090  0.0837
10803SOL    HW133094   0.935   0.338   2.898 -0.9817  1.0818  1.8783
10803SOL    HW233095   0.908   0.459   2.811  0.7092 -0.6695 -1.2283
10804SOL     OW33096   4.590   1.590   0.726 -0.1051  0.1584 -0.0947
10804SOL    HW133097   4.639   1.510   0.709  2.2675  1.1351  1.6659
10804SOL    HW233098   4.652   1.661   0.713 -1.0639  1.4940  1.9443
10805SOL     OW33099   5.113   1.652   3.463  0.3800  0.1107  0.3003
10805SOL    HW133100   5.153   1.675   3.379 -2.1346 -1.4945 -1.4902
10805SOL    HW233101   5.034   1.706   3.468 -0.5650 -1.2178  0.5688
10806SOL     OW33102   2.624   0.054   4.233  0.2858 -0.4620  0.4782
10806SOL    HW133103   2.534   0.020   4.231  0.1456 -0.0872  0.3228
10806SOL    HW233104   2.675  -0.013   4.187 -0.2956  0.3793 -1.5224
10807SOL     OW33105   0.744   3.075   0.397  0.2690 -0.0599 -0.0613
10807SOL    HW133106   0.701   3.142   0.450 -1.1474 -0.4627 -0.6637
10807SOL    HW233107   0.770   3.121   0.317  2.4435  0.5576  0.9266
10808SOL     OW33108   0.984   1.132   6.733  0.0185 -0.5559 -0.0258
10808SOL    HW133109   0.910   1.135   6.672  0.7338 -0.2256 -0.8958
10808SOL    HW233110   1.008   1.224   6.746  1.5921 -0.7192 -1.4232
10809SOL     OW33111   3.895   3.306   3.921 -0.3029  0.0373 -0.5171
10809SOL    HW133112   3.967   3.275   3.976 -1.6854 -0.3062  1.2069
10809SOL    HW233113   3.853   3.375   3.974 -2.1212 -0.8039 -0.8036
10810SOL     OW33114   5.704   5.035   7.512 -0.0796 -0.0508  0.3280
10810SOL    HW133115   5.649   5.107   7.480  1.4438  0.1581 -2.1469
10810SOL    HW233116   5.771   5.078   7.565 -2.1220 -0.3085  3.3720
10811SOL     OW33117   7.300   5.414   6.681  0.4026  0.4493 -0.4111
10811SOL    HW133118   7.292   5.321   6.663  1.9540 -0.2088  1.8643
10811SOL    HW233119   7.377   5.442   6.630  1.8271 -0.2835  1.2480
10812SOL     OW33120   4.722   6.016   4.014  0.3163  0.1092  0.1183
10812SOL    HW133121   4.666   6.089   3.987  1.1921  0.5804 -0.4760
10812SOL    HW233122   4.784   6.055   4.075  0.3664 -0.2806  0.3194
10813SOL     OW33123   2.885   7.437   5.448 -0.2274 -0.1796 -0.2169
10813SOL    HW133124   2.898   7.344   5.466 -0.8117 -0.1262  0.4853
10813SOL    HW233125   2.905   7.481   5.530 -0.6574  0.2621 -0.3458
10814SOL     OW33126   6.046   2.694   3.484 -0.3909 -0.7876 -0.7763
10814SOL    HW133127   6.132   2.733   3.498 -1.1176  0.6499 -0.1239
10814SOL    HW233128   6.065   2.607   3.447  1.3935 -1.4094  1.3852
10815SOL     OW33129   3.134   5.436   6.143 -0.2270 -0.2860  0.3005
10815SOL    HW133130   3.155   5.489   6.220  0.1057 -0.9678  0.6871
10815SOL    HW233131   3.125   5.347   6.177 -0.5491 -0.5184 -0.3783
10816SOL     OW33132   2.093   2.846   6.229 -0.7664  0.4174  0.0833
10816SOL    HW133133   2.147   2.841   6.150 -0.1174  3.2185  0.2432
10816SOL    HW233134   2.007   2.815   6.202 -0.1804 -0.0907 -1.3028
10817SOL     OW33135   2.202   1.775   0.120 -0.6232  0.0540  0.3538
10817SOL    HW133136   2.181   1.715   0.048 -0.3452 -0.6443  0.8513
10817SOL    HW233137   2.298   1.780   0.121 -0.6489  0.8379  0.0549
10818SOL     OW33138   2.677   0.892   6.834  0.2436 -0.2952  0.1973
10818SOL    HW133139   2.610   0.904   6.901  0.8612 -0.5466  0.8773
10818SOL    HW233140   2.717   0.978   6.824 -0.6765  0.0301 -0.7580
10819SOL     OW33141   0.931   6.027   4.339 -0.3630 -0.3227  0.2996
10819SOL    HW133142   0.912   6.070   4.422  0.8284  1.9741 -0.5480
10819SOL    HW233143   0.869   5.954   4.336 -0.8232 -0.1390  2.9116
10820SOL     OW33144   6.095   0.980   0.232  0.9991 -0.1913 -0.3441
10820SOL    HW133145   6.095   0.922   0.309  0.4811  2.5255  1.8667
10820SOL    HW233146   6.175   0.958   0.186  2.9517  0.0510  2.6434
10821SOL     OW33147   5.969   3.869   3.956  0.7693  0.6711 -0.0028
10821SOL    HW133148   5.903   3.829   4.013  1.3860  0.1432  0.3538
10821SOL    HW233149   5.971   3.961   3.984  1.5284  0.2871  1.3018
10822SOL     OW33150   5.709   3.045   3.198  0.3387  0.5441 -0.5899
10822SOL    HW133151   5.725   3.087   3.283 -2.0028 -0.5867  0.5198
10822SOL    HW233152   5.768   2.970   3.197  0.6453  0.7769 -0.1017
10823SOL     OW33153   6.764   5.796   6.370 -0.1653  0.0101 -0.2886
10823SOL    HW133154   6.743   5.714   6.325 -1.7218 -0.2693  0.8688
10823SOL    HW233155   6.859   5.805   6.360 -0.2476 -0.7629 -2.3452
10824SOL     OW33156   3.288   5.511   3.176  0.1015  0.4023  0.8015
10824SOL    HW133157   3.236   5.436   3.148 -0.6629  0.5233  1.8080
10824SOL    HW233158   3.236   5.550   3.247 -0.6805  3.2324 -1.1286
10825SOL     OW33159   5.326   0.972   1.628  0.1217  0.2514 -0.1000
10825SOL    HW133160   5.332   1.067   1.635  2.4132  0.2380 -1.0109
10825SOL    HW233161   5.313   0.956   1.535 -0.8236 -0.3185  0.1252
10826SOL     OW33162   1.947   0.337   7.658 -0.5400  0.1793 -0.1313
10826SOL    HW133163   1.926   0.360   7.567 -0.3042  1.5144  0.1360
10826SOL    HW233164   2.012   0.401   7.685 -0.4513 -0.3341  0.9273
10827SOL     OW33165   3.193   4.850   6.664 -0.1244  0.2100  0.5220
10827SOL    HW133166   3.252   4.830   6.736 -0.8563 -0.7379  0.8655
10827SOL    HW233167   3.145   4.769   6.647  1.4872 -0.2883 -2.4372
10828SOL     OW33168   1.789   3.072   1.817 -0.4852 -0.5787 -0.3192
10828SOL    HW133169   1.821   2.990   1.854 -0.1081 -0.5843 -0.6448
10828SOL    HW233170   1.750   3.047   1.733 -1.1889 -0.5451 -0.0077
10829SOL     OW33171   5.997   3.745   5.854 -0.6309  0.4831 -0.4664
10829SOL    HW133172   5.916   3.758   5.805 -1.9364 -1.2354  1.0841
10829SOL    HW233173   5.972   3.762   5.945  1.0464  0.9365 -0.0547
10830SOL     OW33174   3.098   5.971   2.013  0.0904  0.4631  0.0658
10830SOL    HW133175   3.007   5.974   1.982  0.0309  0.1671  0.2055
10830SOL    HW233176   3.127   5.882   1.992  0.1974  0.4082  0.4373
10831SOL     OW33177   1.037   0.630   0.458 -0.0539  0.3270 -0.7705
10831SOL    HW133178   1.117   0.624   0.406  0.3658 -0.0844 -0.1011
10831SOL    HW233179   1.047   0.562   0.526 -0.9531  0.2915 -0.6554
10832SOL     OW33180   3.705   0.340   5.490 -0.9132  0.4633 -0.0304
10832SOL    HW133181   3.718   0.422   5.538  0.0108  0.3986 -0.1386
10832SOL    HW233182   3.693   0.274   5.558 -1.5876  0.6675  0.0585
10833SOL     OW33183   7.099   3.308   4.929 -0.1585  0.1273 -0.1365
10833SOL    HW133184   7.099   3.283   4.836  0.4331 -1.0198  0.1541
10833SOL    HW233185   7.189   3.292   4.958 -0.5493 -0.3342  0.8437
10834SOL     OW33186   5.576   1.328   6.882 -0.1787  0.3634  0.6647
10834SOL    HW133187   5.657   1.373   6.908 -0.4297  0.5553  1.1423
10834SOL    HW233188   5.533   1.308   6.965 -0.0329 -0.8427  0.4610
10835SOL     OW33189   0.939   0.753   1.370 -0.0910 -0.7677  0.4829
10835SOL    HW133190   0.913   0.774   1.460  0.1536 -0.0939  0.4025
10835SOL    HW233191   0.980   0.833   1.338  0.0815 -1.0992 -0.1359
10836SOL     OW33192   6.173   1.206   6.099  0.1363  0.2739 -0.0766
10836SOL    HW133193   6.220   1.143   6.044 -2.5874 -0.6514 -1.5372
10836SOL    HW233194   6.191   1.177   6.189  1.7301 -0.4091 -0.5687
10837SOL     OW33195   6.397   0.505   7.708 -0.1235 -0.9749 -0.1931
10837SOL    HW133196   6.440   0.480   7.789  2.3552  1.7361 -0.4904
10837SOL    HW233197   6.335   0.574   7.734 -1.2916 -1.9477 -0.3174
10838SOL     OW33198   3.406   4.337   0.359 -0.4882 -0.0286  0.0378
10838SOL    HW133199   3.391   4.286   0.439 -0.2309  0.2529  0.2686
10838SOL    HW233200   3.474   4.289   0.312 -0.3517  0.0227  0.1829
10839SOL     OW33201   1.511   3.145   6.889  0.4102  0.4854 -0.0361
10839SOL    HW133202   1.437   3.123   6.833  1.5067 -0.6634 -1.1107
10839SOL    HW233203   1.481   3.220   6.941 -1.2321  0.4983 -0.9421
10840SOL     OW33204   4.293   7.630   6.559  0.1042 -0.0971 -0.4755
10840SOL    HW133205   4.278   7.541   6.592 -1.3714 -0.0709 -1.0100
10840SOL    HW233206   4.359   7.618   6.490 -1.8578 -1.2203 -2.2996
10841SOL     OW33207   1.615   1.320   5.365 -0.0960  0.0705 -0.1499
10841SOL    HW133208   1.628   1.227   5.350  0.5701  0.2956 -1.1228
10841SOL    HW233209   1.522   1.334   5.349 -0.1670 -0.4078 -0.1609
10842SOL     OW33210   2.146   2.277   0.184 -0.2252 -0.3383 -0.2401
10842SOL    HW133211   2.187   2.195   0.213 -0.3825 -1.1403 -2.1313
10842SOL    HW233212   2.210   2.317   0.126  0.4712  1.7009  1.7661
10843SOL     OW33213   6.530   4.595   1.438  0.1420  0.4464 -0.2079
10843SOL    HW133214   6.487   4.668   1.481 -0.0863 -0.4223  1.0912
10843SOL    HW233215   6.623   4.607   1.457 -0.0209 -0.3312  1.2266
10844SOL     OW33216   7.292   0.734   0.390 -0.0375  0.3471 -0.2839
10844SOL    HW133217   7.241   0.737   0.309  2.0050  0.2645 -1.6701
10844SOL    HW233218   7.383   0.744   0.361  0.6874  1.6311  2.1283
10845SOL     OW33219   7.641   0.635   5.261  0.1262 -0.1015  0.5997
10845SOL    HW133220   7.595   0.559   5.225 -1.6560  0.9884  0.4567
10845SOL    HW233221   7.731   0.625   5.231 -0.7081 -0.5962 -1.9782
10846SOL     OW33222   3.831   5.338   6.906 -0.3548  0.9665  0.5892
10846SOL    HW133223   3.865   5.285   6.978 -0.5929 -0.1090 -0.0607
10846SOL    HW233224   3.839   5.282   6.829 -2.0938  1.2676  0.1441
10847SOL     OW33225   3.618   0.469   2.243 -0.5498  0.2123  0.1568
10847SOL    HW133226   3.579   0.544   2.198 -0.6640 -0.2433 -0.5163
10847SOL    HW233227   3.698   0.451   2.195 -1.6690 -1.5481 -1.1824
10848SOL     OW33228   7.732   1.774   2.545  0.2288  0.1184 -0.4324
10848SOL    HW133229   7.711   1.682   2.528  0.1185 -0.0846  0.7655
10848SOL    HW233230   7.711   1.818   2.462 -1.9508 -0.5687 -0.3168
10849SOL     OW33231   7.640   7.414   4.816  0.5426 -0.0257  0.3948
10849SOL    HW133232   7.676   7.379   4.898 -0.0203  1.7084  1.4321
10849SOL    HW233233   7.570   7.352   4.793  0.4305 -0.3212  1.4526
10850SOL     OW33234   5.296   0.113   2.079  0.2811 -0.0060 -0.4934
10850SOL    HW133235   5.293   0.207   2.094  1.6629 -0.0321  0.0268
10850SOL    HW233236   5.204   0.085   2.086  0.0296  1.0694  0.8218
10851SOL     OW33237   5.581   1.448   3.325  0.3828  0.2238 -0.1862
10851SOL    HW133238   5.531   1.367   3.313  0.3821  0.1091  0.5308
10851SOL    HW233239   5.528   1.500   3.384  0.2362  0.8894 -0.8982
10852SOL     OW33240   5.774   4.149   1.864  0.1171  0.5040 -0.3400
10852SOL    HW133241   5.718   4.136   1.788 -0.6563 -0.5212  0.3761
10852SOL    HW233242   5.852   4.096   1.846 -0.6183 -0.7738  0.1183
10853SOL     OW33243   6.940   4.555   4.390  0.4214  0.1206 -0.0125
10853SOL    HW133244   6.891   4.635   4.370 -0.4094 -0.7569 -1.6173
10853SOL    HW233245   6.935   4.503   4.310  2.6762 -0.6904  0.3074
10854SOL     OW33246   0.718   4.257   2.071 -0.0426 -0.2082 -0.1229
10854SOL    HW133247   0.739   4.287   1.983  0.7196 -0.1138  0.0859
10854SOL    HW233248   0.631   4.294   2.088  0.1731  0.5035 -0.5031
10855SOL     OW33249   3.319   5.477   0.120  0.1570 -0.0596  0.1868
10855SOL    HW133250   3.287   5.486   0.030  1.8748 -1.5744 -0.6203
10855SOL    HW233251   3.267   5.405   0.156 -0.3241  0.3528  0.3394
10856SOL     OW33252   1.990   0.360   6.755 -0.3585  0.6157  0.6301
10856SOL    HW133253   1.926   0.369   6.826 -1.4318  2.2278 -0.4724
10856SOL    HW233254   2.022   0.449   6.739  0.8736  0.0843 -0.0172
10857SOL     OW33255   5.656   0.833   4.630  0.0917  0.7770  0.0250
10857SOL    HW133256   5.628   0.825   4.721 -1.1713 -1.4032 -0.5000
10857SOL    HW233257   5.623   0.919   4.603 -0.4922  0.9719  1.2644
10858SOL     OW33258   3.999   0.973   2.507  0.4780  0.0644  0.1193
10858SOL    HW133259   4.051   0.937   2.435 -1.2807 -1.4304 -0.4818
10858SOL    HW233260   4.061   0.981   2.579  2.3878  1.9622 -1.6113
10859SOL     OW33261   1.585   6.810   0.808  0.2552  0.3918  0.3471
10859SOL    HW133262   1.592   6.781   0.717  3.0268  0.5916  0.4270
10859SOL    HW233263   1.601   6.732   0.860  0.6516  0.6486  0.6218
10860SOL     OW33264   1.238   6.846   6.094 -0.6408  0.4323 -0.2450
10860SOL    HW133265   1.213   6.902   6.020  1.4265 -0.7076 -1.9098
10860SOL    HW233266   1.262   6.907   6.164 -1.3079  1.5454 -0.9501
10861SOL     OW33267   1.699   2.127   5.611  0.0153 -0.5208  0.6098
10861SOL    HW133268   1.702   2.051   5.669 -0.0623 -1.0961 -0.1126
10861SOL    HW233269   1.624   2.110   5.554  3.0769 -2.8127 -3.3043
10862SOL     OW33270   2.088   2.526   1.102 -0.1683  0.2103 -0.5095
10862SOL    HW133271   2.085   2.530   1.007 -1.0334 -0.0771 -0.5064
10862SOL    HW233272   2.166   2.473   1.121  0.4393  0.9082 -1.0262
10863SOL     OW33273   6.531   1.548   1.839  0.1928  0.5878  0.2734
10863SOL    HW133274   6.595   1.497   1.888 -0.8382 -1.0696 -0.0151
10863SOL    HW233275   6.554   1.640   1.855  2.2787  0.0418  0.5898
10864SOL     OW33276   3.810   0.009   7.429  0.2750  0.8469  0.3569
10864SOL    HW133277   3.804   0.087   7.374  1.5163  0.5906 -0.1910
10864SOL    HW233278   3.875  -0.046   7.385 -0.8216 -0.6574  0.5437
10865SOL     OW33279   6.898   4.013   0.547 -0.2710  0.8282  0.4314
10865SOL    HW133280   6.877   4.039   0.457  0.8581  2.9539  0.7139
10865SOL    HW233281   6.902   3.918   0.544 -1.1621  0.7984 -1.5540
10866SOL     OW33282   2.679   1.272   0.324 -0.8420  0.5563 -0.0533
10866SOL    HW133283   2.603   1.274   0.266 -0.4757  1.6978 -0.5206
10866SOL    HW233284   2.692   1.363   0.350  0.9399  0.5292 -0.7255
10867SOL     OW33285   7.096   5.811   1.916 -0.3305 -0.2864 -0.0899
10867SOL    HW133286   7.114   5.859   1.997 -0.3398 -1.8583  0.8725
10867SOL    HW233287   7.143   5.860   1.848 -0.5261  1.2010  0.8043
10868SOL     OW33288   1.623   2.721   1.706  0.4558 -0.0432 -0.6487
10868SOL    HW133289   1.636   2.680   1.621  0.0794  0.2678 -0.8569
10868SOL    HW233290   1.635   2.814   1.690 -1.4141  0.2206 -0.7496
10869SOL     OW33291   4.894   6.737   3.227  0.3576  0.4352 -0.0287
10869SOL    HW133292   4.920   6.821   3.190  0.0188  0.8826  0.7185
10869SOL    HW233293   4.975   6.702   3.265  0.7727 -0.1721 -1.4344
10870SOL     OW33294   0.028   3.041   4.113  0.7110  0.4123 -0.2885
10870SOL    HW133295  -0.041   2.982   4.145  1.6484 -0.7331 -0.3173
10870SOL    HW233296   0.015   3.121   4.163 -1.6314  0.8187 -1.4184
10871SOL     OW33297   4.113   3.528   7.441  0.2913  0.3731  0.1119
10871SOL    HW133298   4.111   3.433   7.451  2.0978  0.4016  1.2006
10871SOL    HW233299   4.047   3.560   7.503 -1.0159 -0.1648 -0.9485
10872SOL     OW33300   1.620   6.182   0.535 -0.4263  0.1359 -0.0786
10872SOL    HW133301   1.640   6.123   0.462 -1.1119  1.1285 -1.1195
10872SOL    HW233302   1.534   6.218   0.513  0.1061  1.7414  0.3610
10873SOL     OW33303   6.977   2.133   5.373 -0.2867 -0.2323  0.1769
10873SOL    HW133304   6.953   2.129   5.281  1.6095  0.8864 -0.4080
10873SOL    HW233305   7.033   2.057   5.388 -1.2447 -0.8689  0.6422
10874SOL     OW33306   3.260   6.271   7.602 -0.4870 -0.4725 -0.5598
10874SOL    HW133307   3.185   6.251   7.659 -0.0151 -1.5951 -0.3106
10874SOL    HW233308   3.312   6.334   7.652 -1.4836  0.6838 -0.9276
10875SOL     OW33309   2.163   5.522   0.827 -0.7765  0.1615 -0.4541
10875SOL    HW133310   2.244   5.480   0.857 -1.2928  1.0120  2.5216
10875SOL    HW233311   2.107   5.521   0.905 -3.1265  0.8120 -2.0600
10876SOL     OW33312   3.435   6.426   1.219 -0.2415  0.4782  0.0525
10876SOL    HW133313   3.522   6.391   1.237 -0.2681  0.2826 -0.1891
10876SOL    HW233314   3.375   6.358   1.251 -0.2828 -0.3915 -1.7481
10877SOL     OW33315   4.507   0.085   3.054  0.5296 -0.2451 -0.4224
10877SOL    HW133316   4.472   0.118   3.137 -0.6446  0.0547 -1.0178
10877SOL    HW233317   4.509   0.162   2.997 -1.1134 -0.9258 -1.4629
10878SOL     OW33318   6.241   4.673   1.354 -0.1074  0.1162 -0.6459
10878SOL    HW133319   6.280   4.697   1.438  0.0693 -1.5637 -0.2133
10878SOL    HW233320   6.148   4.665   1.372  0.0325 -1.0610 -0.3896
10879SOL     OW33321   0.407   5.068   3.436 -0.1423 -0.4038 -0.1432
10879SOL    HW133322   0.445   4.991   3.394  2.3967 -0.2643  1.6390
10879SOL    HW233323   0.318   5.041   3.460  0.3118 -2.3920 -0.5092
10880SOL     OW33324   1.534   2.202   6.101 -0.1009  0.3211  0.4463
10880SOL    HW133325   1.448   2.239   6.121 -0.0594  0.8906 -0.3703
10880SOL    HW233326   1.567   2.256   6.029  0.9096  0.0575  0.6939
10881SOL     OW33327   7.293   7.376   0.856  0.6206 -0.1939  0.3380
10881SOL    HW133328   7.303   7.469   0.837  0.9032 -0.3349 -0.2130
10881SOL    HW233329   7.264   7.337   0.773  2.2153 -0.8656  0.0677
10882SOL     OW33330   3.209   4.188   7.036 -0.0830 -0.1783 -0.0320
10882SOL    HW133331   3.123   4.206   7.000  0.5610  1.8253 -0.7039
10882SOL    HW233332   3.194   4.176   7.130 -1.3968 -2.6349 -0.4695
10883SOL     OW33333   4.896   6.510   3.761  0.1695  0.3744  0.3928
10883SOL    HW133334   4.877   6.574   3.692  2.2311  1.2422  0.5602
10883SOL    HW233335   4.825   6.521   3.824 -2.2434 -0.9978 -1.8751
10884SOL     OW33336   3.515   1.875   0.239 -0.4470  0.3958  0.4878
10884SOL    HW133337   3.582   1.874   0.171  0.6320  0.7655  1.5104
10884SOL    HW233338   3.564   1.886   0.320 -1.7255  0.2201  1.3066
10885SOL     OW33339   2.440   1.041   4.459  0.1912 -0.0931  0.3471
10885SOL    HW133340   2.504   1.112   4.448 -0.5879  0.4565 -0.8054
10885SOL    HW233341   2.436   0.999   4.372 -0.8056 -0.2926  0.4836
10886SOL     OW33342   2.449   0.924   5.671  0.4029 -1.0151  0.6505
10886SOL    HW133343   2.370   0.919   5.617  0.9142  0.5526 -0.3302
10886SOL    HW233344   2.430   0.993   5.734  1.7709  1.1046 -1.1109
10887SOL     OW33345   0.638   6.480   2.503  0.3087 -0.0122 -0.4615
10887SOL    HW133346   0.630   6.420   2.577 -0.5120 -0.9865 -1.3133
10887SOL    HW233347   0.732   6.501   2.499  0.4941 -0.6489  0.2974
10888SOL     OW33348   6.739   5.762   4.139 -0.4501 -0.4223  0.0019
10888SOL    HW133349   6.747   5.756   4.234  0.7456 -1.1428 -0.1171
10888SOL    HW233350   6.815   5.714   4.106 -0.0819  0.9701 -1.3013
10889SOL     OW33351   5.191   0.779   7.581  0.4973  0.0850  0.4923
10889SOL    HW133352   5.159   0.868   7.565 -0.4169 -0.3160 -0.0165
10889SOL    HW233353   5.116   0.723   7.559  1.7573 -0.9507 -1.5011
10890SOL     OW33354   3.167   2.571   2.635  0.1984  0.0046 -0.2511
10890SOL    HW133355   3.241   2.628   2.614  1.7313 -2.0915 -0.8038
10890SOL    HW233356   3.099   2.596   2.572 -0.6309  3.6368  1.7858
10891SOL     OW33357   5.028   2.836   0.094 -0.4370 -0.3976  0.4809
10891SOL    HW133358   5.090   2.895   0.052  0.6501 -1.7085  0.1549
10891SOL    HW233359   5.014   2.767   0.029 -1.8961 -0.3699  0.7340
10892SOL     OW33360   6.038   1.825   3.745 -0.2766 -0.4010  0.1304
10892SOL    HW133361   6.074   1.775   3.672 -1.2215 -1.8064  0.5926
10892SOL    HW233362   5.983   1.892   3.703  2.4908  1.5953 -0.5708
10893SOL     OW33363   3.038   3.665   1.887  0.1438  0.3901  0.2132
10893SOL    HW133364   3.122   3.658   1.931 -0.0997 -0.1184  0.6091
10893SOL    HW233365   2.984   3.597   1.928 -0.6224  1.0648  0.3427
10894SOL     OW33366   1.860   7.574   3.658  0.4527 -0.1573 -0.2641
10894SOL    HW133367   1.905   7.532   3.585  0.2207 -1.8085  0.5024
10894SOL    HW233368   1.767   7.563   3.638  0.3164 -2.7800  1.3536
10895SOL     OW33369   7.574   5.686   1.104  0.5727 -0.0172 -0.0361
10895SOL    HW133370   7.536   5.692   1.192 -1.2012  2.3818 -0.8382
10895SOL    HW233371   7.534   5.760   1.056  4.7427  1.4802 -1.6455
10896SOL     OW33372   1.304   5.136   0.634 -0.1888 -0.4385 -0.1263
10896SOL    HW133373   1.211   5.142   0.613 -0.6903  0.4143  2.0828
10896SOL    HW233374   1.306   5.115   0.727  1.7676  2.0166  0.5006
10897SOL     OW33375   5.180   5.108   2.518  0.3613 -0.4200  0.2664
10897SOL    HW133376   5.240   5.180   2.536  0.7062 -1.0507  1.8162
10897SOL    HW233377   5.094   5.142   2.542  0.6996 -0.9373  2.4091
10898SOL     OW33378   7.535   4.687   6.691 -0.1501 -0.1785  0.1124
10898SOL    HW133379   7.457   4.639   6.660 -0.1852 -0.5007  0.6828
10898SOL    HW233380   7.501   4.772   6.719 -0.4707 -0.6600  1.2626
10899SOL     OW33381   5.145   4.071   1.108  0.0852 -0.4584  0.2161
10899SOL    HW133382   5.175   3.980   1.101 -1.4525 -0.8805 -1.3841
10899SOL    HW233383   5.111   4.092   1.022  1.0900  1.9289  0.3161
10900SOL     OW33384   1.489   1.823   6.949 -0.1451  0.4318 -0.4297
10900SOL    HW133385   1.402   1.795   6.978 -0.1820  0.9796  0.0003
10900SOL    HW233386   1.475   1.858   6.862 -0.8806  3.1126  0.6720
10901SOL     OW33387   2.270   6.281   6.155  0.2351 -0.0970  0.0573
10901SOL    HW133388   2.331   6.229   6.102  1.4294 -0.0368  1.3008
10901SOL    HW233389   2.318   6.299   6.236 -2.5028 -2.7028  2.5067
10902SOL     OW33390   5.908   1.971   3.955  0.4034  0.1452 -0.0911
10902SOL    HW133391   5.830   1.916   3.942  0.8240 -0.9961  1.9072
10902SOL    HW233392   5.951   1.971   3.870 -1.0136 -0.4121 -0.8496
10903SOL     OW33393   7.462   1.030   6.409  0.2158  0.1095  0.8887
10903SOL    HW133394   7.372   1.044   6.438  0.0294  0.0148  0.3529
10903SOL    HW233395   7.462   0.944   6.367  0.9937 -0.7975  2.6401
10904SOL     OW33396   5.640   5.848   3.913 -0.4254  0.6902  1.1985
10904SOL    HW133397   5.615   5.758   3.892  0.3537  0.0916  2.7302
10904SOL    HW233398   5.636   5.853   4.009 -0.1015  2.1838  1.1633
10905SOL     OW33399   5.599   2.655   0.810 -0.4789  0.1326 -0.4606
10905SOL    HW133400   5.631   2.745   0.802  1.9022 -0.4105  1.4267
10905SOL    HW233401   5.504   2.662   0.810 -0.4369  3.0234  2.2052
10906SOL     OW33402   4.768   2.337   2.693 -0.5378  0.0125 -0.6013
10906SOL    HW133403   4.815   2.301   2.768 -0.6581 -0.1194 -0.5911
10906SOL    HW233404   4.776   2.432   2.703 -0.3143 -0.0087 -0.5725
10907SOL     OW33405   7.685   4.985   4.953 -0.3291  0.1859 -0.5120
10907SOL    HW133406   7.735   4.908   4.927 -1.4758 -0.5090 -0.7464
10907SOL    HW233407   7.598   4.951   4.974 -1.4822  1.6144 -2.5324
10908SOL     OW33408   3.776   5.111   5.563 -0.7106  0.5319 -0.5153
10908SOL    HW133409   3.714   5.166   5.515 -0.7460  1.5854  0.6917
10908SOL    HW233410   3.759   5.022   5.531 -1.6193  1.0336 -1.4788
10909SOL     OW33411   1.464   1.007   0.564 -0.2024  0.2211 -0.1402
10909SOL    HW133412   1.551   1.010   0.524  0.6455  0.5241  1.6451
10909SOL    HW233413   1.443   0.914   0.566  0.1962  0.1208 -0.3251
10910SOL     OW33414   6.354   6.733   2.387 -0.0160  0.6783 -0.8806
10910SOL    HW133415   6.319   6.822   2.394 -1.1575  0.4018 -2.3593
10910SOL    HW233416   6.385   6.727   2.296 -0.4746 -0.5941 -0.9711
10911SOL     OW33417   2.789   7.419   1.528  0.5619 -0.2296  0.1612
10911SOL    HW133418   2.815   7.462   1.447  0.7449 -0.0349  0.3219
10911SOL    HW233419   2.830   7.471   1.597  1.4664 -1.1246  0.3298
10912SOL     OW33420   7.479   7.691   6.441 -0.3857  0.9029 -0.3657
10912SOL    HW133421   7.441   7.748   6.373 -0.6573  1.0390 -0.1057
10912SOL    HW233422   7.547   7.745   6.482 -1.1842  1.3473  0.4189
10913SOL     OW33423   4.345   2.434   3.470  0.8487 -0.0552  0.7170
10913SOL    HW133424   4.362   2.438   3.376 -1.5509 -0.1809  0.2054
10913SOL    HW233425   4.282   2.363   3.479  1.0114 -0.0200  2.4451
10914SOL     OW33426   4.974   7.180   2.274  0.2142  0.3013  0.3100
10914SOL    HW133427   4.974   7.222   2.360 -1.6180  1.3131 -0.1286
10914SOL    HW233428   5.011   7.094   2.290 -1.5496 -0.1581  2.4876
10915SOL     OW33429   7.484   0.355   1.971  0.3078 -0.2691 -0.3499
10915SOL    HW133430   7.489   0.343   2.066 -0.3537  0.2418 -0.2380
10915SOL    HW233431   7.532   0.436   1.955 -1.4693  0.8959 -0.1374
10916SOL     OW33432   3.148   4.313   1.118 -0.6748  0.4979 -0.5875
10916SOL    HW133433   3.096   4.392   1.103 -0.5245  0.3325 -2.1447
10916SOL    HW233434   3.224   4.344   1.168 -0.4401  1.4310 -1.4772
10917SOL     OW33435   5.078   6.086   6.744  0.1800  0.3865  0.0494
10917SOL    HW133436   5.050   5.997   6.768  0.3691  0.5596  0.9330
10917SOL    HW233437   5.173   6.083   6.749  0.3054  0.0762 -1.9769
10918SOL     OW33438   2.656   3.917   2.755 -0.1876 -0.1407  0.2890
10918SOL    HW133439   2.725   3.979   2.778 -1.5384  1.0612  1.3714
10918SOL    HW233440   2.690   3.869   2.680  3.3288 -2.2164  2.9097
10919SOL     OW33441   3.260   4.139   6.719  1.3666  0.0932 -0.3581
10919SOL    HW133442   3.274   4.047   6.741  0.9167  0.4888  1.7982
10919SOL    HW233443   3.340   4.184   6.748  0.9401  0.5812  0.0942
10920SOL     OW33444   0.399   1.456   4.404  0.4351 -0.2174  0.0905
10920SOL    HW133445   0.349   1.487   4.329  1.2254  0.3954 -0.2028
10920SOL    HW233446   0.385   1.522   4.472  0.4715 -0.2842  0.1639
10921SOL     OW33447   4.813   4.389   3.010 -0.0806  0.0039 -0.6909
10921SOL    HW133448   4.811   4.294   3.000 -0.2843 -0.0375 -0.2593
10921SOL    HW233449   4.734   4.419   2.965 -0.6493 -0.1306  0.2084
10922SOL     OW33450   7.236   4.393   4.822  0.2459  0.0421  0.1878
10922SOL    HW133451   7.199   4.474   4.789  0.6802  0.3705  0.5037
10922SOL    HW233452   7.160   4.343   4.852  0.0512  0.7583  0.9308
10923SOL     OW33453   1.368   4.754   0.160 -0.1488 -0.1008 -0.0162
10923SOL    HW133454   1.379   4.772   0.253 -2.7921 -1.3204  0.6236
10923SOL    HW233455   1.314   4.826   0.127  1.1642  0.5851 -0.7761
10924SOL     OW33456   7.077   1.075   5.372 -0.2488 -0.1089  0.0001
10924SOL    HW133457   7.118   0.998   5.412  2.0339  1.1927  0.3739
10924SOL    HW233458   7.095   1.066   5.278  2.7423  1.2846  0.2942
10925SOL     OW33459   3.948   3.272   6.281 -0.0275  0.4856  0.3284
10925SOL    HW133460   3.896   3.346   6.313 -0.5768 -0.0580  0.7255
10925SOL    HW233461   3.936   3.274   6.186 -1.4186 -0.0782  0.4682
10926SOL     OW33462   2.865   7.767   0.352  0.4091  0.3432 -0.2942
10926SOL    HW133463   2.774   7.747   0.373 -0.0326  2.1612 -0.3455
10926SOL    HW233464   2.915   7.723   0.421 -0.5625  0.1239  0.2998
10927SOL     OW33465   0.884   5.591   0.778 -0.0797  0.1798  0.3029
10927SOL    HW133466   0.815   5.611   0.841 -0.8802 -0.1592 -0.4453
10927SOL    HW233467   0.844   5.530   0.717  0.4846  0.9562 -0.8869
10928SOL     OW33468   4.543   5.020   1.158 -0.5644 -0.5513 -0.0938
10928SOL    HW133469   4.526   5.002   1.066  0.8947 -0.2926 -0.4304
10928SOL    HW233470   4.531   4.935   1.202 -0.9706 -0.7356 -0.5518
10929SOL     OW33471   6.937   1.177   4.988 -0.4353  0.5519  0.0375
10929SOL    HW133472   6.885   1.124   5.049  0.2993  0.0047  0.1947
10929SOL    HW233473   6.959   1.256   5.037  4.5352 -1.9524  2.5397
10930SOL     OW33474   5.415   4.507   4.581 -0.3939 -0.2114  0.8764
10930SOL    HW133475   5.471   4.556   4.641 -0.5041 -0.5476  1.2567
10930SOL    HW233476   5.327   4.513   4.618 -0.5760  0.1210  0.4047
10931SOL     OW33477   5.515   0.365   3.596 -0.0030  0.2760  0.2096
10931SOL    HW133478   5.493   0.431   3.662 -0.4687  0.4439 -0.1108
10931SOL    HW233479   5.608   0.346   3.611  0.0663  0.8078  0.4669
10932SOL     OW33480   0.781   5.674   2.581 -0.1466 -0.2468  0.1490
10932SOL    HW133481   0.846   5.664   2.511 -1.0083 -1.6153 -0.5046
10932SOL    HW233482   0.813   5.617   2.651  0.3066  0.5208  0.5820
10933SOL     OW33483   1.302   0.399   4.947 -0.3731 -0.1361  0.0178
10933SOL    HW133484   1.343   0.392   5.033  0.1790 -0.1231 -0.2418
10933SOL    HW233485   1.257   0.316   4.935 -1.2495  0.2234  0.7211
10934SOL     OW33486   2.226   6.731   6.783  0.3926  0.0709 -0.5422
10934SOL    HW133487   2.173   6.675   6.840  0.4462 -0.3300 -0.8845
10934SOL    HW233488   2.301   6.677   6.759  0.1490  0.0774 -1.3460
10935SOL     OW33489   2.539   2.747   5.889 -0.4729  0.4413 -0.0612
10935SOL    HW133490   2.565   2.764   5.799  0.7319  0.1216  0.2194
10935SOL    HW233491   2.544   2.832   5.932  0.4250  0.3354  0.0614
10936SOL     OW33492   6.173   6.243   7.433 -0.4482  0.5027 -0.3463
10936SOL    HW133493   6.176   6.331   7.396  0.2595  0.2554 -0.8944
10936SOL    HW233494   6.120   6.193   7.371 -1.8049  0.7908  0.5390
10937SOL     OW33495   0.006   5.158   2.454 -0.2045  0.3454 -0.2032
10937SOL    HW133496  -0.030   5.210   2.527  2.4183  2.3998 -0.2351
10937SOL    HW233497   0.042   5.080   2.496 -0.8323  0.3555  0.3757
10938SOL     OW33498   4.992   0.501   5.344 -0.6793  0.4012 -0.2064
10938SOL    HW133499   5.017   0.418   5.303  0.6595  0.4799  0.3769
10938SOL    HW233500   5.069   0.557   5.332 -0.3319  0.5134  2.1543
10939SOL     OW33501   3.188   3.744   6.849  0.0005 -0.1398  0.4561
10939SOL    HW133502   3.251   3.790   6.904 -0.0722 -1.7204  1.9260
10939SOL    HW233503   3.242   3.692   6.789  0.0775  0.1433  0.2771
10940SOL     OW33504   2.503   7.527   6.389  0.1919  0.7881 -0.3052
10940SOL    HW133505   2.413   7.493   6.388  0.4009  0.0553  1.7503
10940SOL    HW233506   2.529   7.527   6.297 -1.1876 -0.9561 -0.7500
10941SOL     OW33507   3.895   5.114   4.241  0.1368 -0.1657  0.0476
10941SOL    HW133508   3.901   5.159   4.325 -0.2734  0.1508 -0.0863
10941SOL    HW233509   3.806   5.134   4.210  0.0860 -0.7500 -0.1937
10942SOL     OW33510   1.435   7.312   2.154 -0.3979  0.5036 -0.1343
10942SOL    HW133511   1.407   7.394   2.196  2.3764  1.2745  0.4281
10942SOL    HW233512   1.430   7.330   2.060  0.9578  1.6931 -0.0244
10943SOL     OW33513   4.014   4.575   3.684  0.2000 -0.4683  0.2070
10943SOL    HW133514   3.919   4.588   3.684  0.2216 -0.0518 -1.4324
10943SOL    HW233515   4.050   4.663   3.693  0.4820 -0.7154  1.9223
10944SOL     OW33516   7.058   1.290   6.135 -0.0489  0.2942 -0.0474
10944SOL    HW133517   7.051   1.379   6.168  2.0323  0.1119  1.0629
10944SOL    HW233518   6.969   1.265   6.112 -1.5950  0.8565  4.4720
10945SOL     OW33519   1.694   6.007   5.347 -0.6615  0.5575 -0.3767
10945SOL    HW133520   1.693   6.080   5.285 -0.9994  0.5855 -0.3406
10945SOL    HW233521   1.738   6.042   5.424  0.0686  0.4199 -0.7197
10946SOL     OW33522   1.400   5.113   1.305  0.3293  0.0884 -0.3841
10946SOL    HW133523   1.424   5.205   1.299 -0.2366  0.1585 -2.7526
10946SOL    HW233524   1.315   5.108   1.261  0.1547 -1.4937  0.0868
10947SOL     OW33525   1.509   5.426   6.729  0.2190 -0.1028  0.2210
10947SOL    HW133526   1.522   5.341   6.686  0.7981  0.0926  0.0059
10947SOL    HW233527   1.579   5.481   6.695  1.6289 -0.3470  2.5304
10948SOL     OW33528   3.915   0.998   1.088  0.1327  0.0700 -0.2340
10948SOL    HW133529   3.958   1.073   1.048  1.6487  0.1617  1.4460
10948SOL    HW233530   3.985   0.952   1.134 -1.1216 -1.2613  0.4186
10949SOL     OW33531   6.565   0.179   6.963 -0.5134  0.3322  0.9274
10949SOL    HW133532   6.559   0.088   6.990  3.1648  0.2048  1.8776
10949SOL    HW233533   6.505   0.226   7.021 -2.1392 -1.3619  0.7053
10950SOL     OW33534   3.989   4.332   4.387 -0.0022 -0.2080 -0.1258
10950SOL    HW133535   4.025   4.394   4.323  1.1913 -0.1953  0.5358
10950SOL    HW233536   3.929   4.384   4.440 -0.0953  0.0511 -0.4820
10951SOL     OW33537   4.289   3.974   3.322 -0.6815  0.3703 -0.0459
10951SOL    HW133538   4.332   4.028   3.389 -0.0194 -0.6442  0.3682
10951SOL    HW233539   4.200   4.008   3.318 -0.6824  0.5837  1.2107
10952SOL     OW33540   7.243   0.649   2.615  0.1770  0.0768  0.4806
10952SOL    HW133541   7.196   0.678   2.537  1.8825  1.0734 -0.2184
10952SOL    HW233542   7.227   0.718   2.680 -0.3257 -0.2029  0.6600
10953SOL     OW33543   6.024   1.053   1.607  0.3680  0.0812 -0.1840
10953SOL    HW133544   6.084   1.009   1.668 -1.2425 -0.7368  0.8652
10953SOL    HW233545   6.022   0.996   1.531 -1.3636 -1.5567  0.9927
10954SOL     OW33546   3.064   6.349   5.474 -0.1646 -0.3181  0.0615
10954SOL    HW133547   3.112   6.372   5.394 -0.5398 -0.7276 -0.2844
10954SOL    HW233548   3.094   6.261   5.496  0.5686  0.1111  0.8602
10955SOL     OW33549   7.224   5.922   0.663 -0.3356 -0.5192 -0.3871
10955SOL    HW133550   7.313   5.954   0.648 -1.1544  2.3255  0.2589
10955SOL    HW233551   7.226   5.887   0.752  0.0312  0.1035 -0.1403
10956SOL     OW33552   6.657   4.345   6.063 -0.1633 -0.4136 -0.3420
10956SOL    HW133553   6.676   4.384   6.149 -0.8642  1.9406 -1.1691
10956SOL    HW233554   6.597   4.407   6.021 -1.3367 -2.4329 -1.8382
10957SOL     OW33555   0.346   4.102   6.853 -0.6812  0.5493  0.0610
10957SOL    HW133556   0.302   4.146   6.925 -3.0310 -1.6287  0.0950
10957SOL    HW233557   0.360   4.170   6.788 -1.3565  1.9387  1.3148
10958SOL     OW33558   7.273   3.211   5.772  0.4652  0.1534  0.2056
10958SOL    HW133559   7.208   3.207   5.701 -0.8545  0.0105  1.3618
10958SOL    HW233560   7.336   3.277   5.743 -0.5142  0.7229 -0.7163
10959SOL     OW33561   2.490   2.233   1.240  0.0334  0.4445 -0.5228
10959SOL    HW133562   2.509   2.254   1.331  0.2426  0.9654 -0.6813
10959SOL    HW233563   2.403   2.193   1.241 -0.0195  0.5753 -0.1161
10960SOL     OW33564   6.927   2.699   0.718  0.0801 -0.3109 -0.0594
10960SOL    HW133565   6.842   2.737   0.741 -0.1983 -0.4188 -0.8981
10960SOL    HW233566   6.980   2.773   0.690 -0.1109 -0.3888 -0.6397
10961SOL     OW33567   6.764   2.267   3.405  0.0057 -0.1151  0.5390
10961SOL    HW133568   6.729   2.351   3.377  0.7697 -0.1891 -0.7017
10961SOL    HW233569   6.764   2.212   3.327  2.0597 -0.3779  0.6626
10962SOL     OW33570   6.405   2.035   2.502  0.8937  0.2488 -0.5373
10962SOL    HW133571   6.333   2.053   2.563  2.0599  3.8686 -0.0049
10962SOL    HW233572   6.366   2.045   2.415  0.2874  0.0070 -0.2974
10963SOL     OW33573   7.378   0.224   5.690  0.0418 -0.7466  0.4934
10963SOL    HW133574   7.447   0.264   5.638  0.0462 -1.1735  0.1719
10963SOL    HW233575   7.420   0.204   5.774  0.8233 -2.6512 -0.3030
10964SOL     OW33576   4.900   2.786   6.715  0.0376 -0.0078  0.5536
10964SOL    HW133577   4.983   2.826   6.692  0.5397 -0.0024  2.2403
10964SOL    HW233578   4.897   2.705   6.664  1.3326 -0.2682  0.8716
10965SOL     OW33579   1.024   4.187   6.744  0.0217 -0.3488  0.5097
10965SOL    HW133580   1.048   4.105   6.787  0.4372 -1.2775 -1.4055
10965SOL    HW233581   1.107   4.230   6.724 -0.0968 -0.5245 -0.4300
10966SOL     OW33582   6.869   1.621   0.965  0.9147  0.1838  0.1007
10966SOL    HW133583   6.856   1.666   1.049  0.9461 -2.5617  1.7088
10966SOL    HW233584   6.781   1.593   0.939  0.8415  1.4078 -1.0940
10967SOL     OW33585   2.528   5.485   6.364  0.1951 -0.4110 -0.1043
10967SOL    HW133586   2.487   5.566   6.333  0.5136 -0.6421 -1.1789
10967SOL    HW233587   2.622   5.499   6.351  0.4874  0.0309  2.1391
10968SOL     OW33588   6.654   1.134   5.945 -0.0080 -0.3661  0.1318
10968SOL    HW133589   6.682   1.094   6.027 -0.0082 -0.8748 -0.1107
10968SOL    HW233590   6.571   1.176   5.966  0.1551 -0.2142  0.4699
10969SOL     OW33591   5.652   7.605   4.774 -0.3087 -0.5403  0.2050
10969SOL    HW133592   5.572   7.625   4.821  0.0828 -0.4914  0.8586
10969SOL    HW233593   5.665   7.680   4.715  1.8542  1.9930  3.5475
10970SOL     OW33594   1.514   6.932   6.683 -0.4167 -0.3182 -0.7765
10970SOL    HW133595   1.548   6.896   6.601 -0.9974 -0.4297 -0.9743
10970SOL    HW233596   1.530   6.863   6.747  1.1823  0.2674 -0.5183
10971SOL     OW33597   3.113   5.076   1.510  0.2934  0.1040  0.0807
10971SOL    HW133598   3.207   5.080   1.529  0.2719 -0.9124  0.4932
10971SOL    HW233599   3.075   5.038   1.589 -0.4052  0.0585 -0.2727
10972SOL     OW33600   5.832   3.867   1.470  0.1416  0.0479 -0.1501
10972SOL    HW133601   5.825   3.956   1.435 -2.9741  0.3811  0.9228
10972SOL    HW233602   5.843   3.811   1.394  0.1393  1.2120 -1.0264
10973SOL     OW33603   7.604   1.876   4.605 -0.1167  0.9757  0.2604
10973SOL    HW133604   7.597   1.885   4.510  1.6960 -1.0865 -0.1343
10973SOL    HW233605   7.663   1.946   4.632  1.0365  0.2980 -0.4539
10974SOL     OW33606   2.135   6.663   4.893  0.1720 -0.2476 -0.1625
10974SOL    HW133607   2.171   6.711   4.967  0.2270 -0.7575  0.1426
10974SOL    HW233608   2.075   6.599   4.932 -0.7827  0.3281 -0.6328
10975SOL     OW33609   4.046   5.568   2.650 -0.7767 -0.0989  0.9448
10975SOL    HW133610   4.119   5.619   2.685 -0.7674 -0.3705  1.3225
10975SOL    HW233611   4.051   5.581   2.555 -0.8676  0.7311  1.0468
10976SOL     OW33612   1.439   1.884   2.607 -0.0590  0.6846  0.6155
10976SOL    HW133613   1.477   1.823   2.544  0.3177  1.7554 -0.2451
10976SOL    HW233614   1.482   1.863   2.690  2.2343  1.5889 -0.2327
10977SOL     OW33615   6.912   4.039   1.524 -0.4189 -0.4278 -0.5286
10977SOL    HW133616   6.859   4.104   1.571 -0.3080  1.6276 -3.0292
10977SOL    HW233617   6.863   3.957   1.533 -2.7560  0.8620 -0.7015
10978SOL     OW33618   3.532   2.601   4.072 -0.4112 -0.6422 -0.2587
10978SOL    HW133619   3.513   2.690   4.098 -1.1601 -0.9262  0.1709
10978SOL    HW233620   3.545   2.606   3.977  0.2245  0.0260 -0.1461
10979SOL     OW33621   6.343   2.095   5.017 -0.2555 -0.2553  0.5987
10979SOL    HW133622   6.375   2.184   4.999 -0.1517 -0.2081  1.0093
10979SOL    HW233623   6.249   2.106   5.032 -0.0833 -0.0668  1.6189
10980SOL     OW33624   2.001   1.994   4.487 -0.3866 -0.3858  0.2333
10980SOL    HW133625   2.044   1.911   4.466 -0.5447 -0.6105  0.7978
10980SOL    HW233626   1.985   1.990   4.581 -0.6548  0.1645  0.2135
10981SOL     OW33627   5.742   1.340   5.111  0.3190 -0.2207 -0.3454
10981SOL    HW133628   5.754   1.358   5.204  0.6602  1.0679 -0.6148
10981SOL    HW233629   5.824   1.370   5.071  0.6684 -1.8641 -0.9412
10982SOL     OW33630   5.017   6.034   3.495  0.1633  0.1375  0.7758
10982SOL    HW133631   5.042   6.122   3.470 -1.1757  0.3235 -0.0169
10982SOL    HW233632   5.073   5.976   3.443  0.1096  0.5258  0.2841
10983SOL     OW33633   4.605   1.914   1.246  0.0256  0.5676 -0.4523
10983SOL    HW133634   4.639   1.917   1.157  1.1205  2.8298 -0.0319
10983SOL    HW233635   4.540   1.984   1.250 -0.8979 -0.2978  0.2233
10984SOL     OW33636   5.176   4.002   4.563 -0.8421 -0.0819 -0.1126
10984SOL    HW133637   5.212   4.011   4.652 -1.9923 -0.0575  0.3580
10984SOL    HW233638   5.082   3.998   4.575 -0.9962 -0.4728 -1.3157
10985SOL     OW33639   5.321   4.827   7.190 -0.1015  0.1561 -0.3879
10985SOL    HW133640   5.395   4.803   7.245  0.5488  1.0082 -0.8674
10985SOL    HW233641   5.299   4.747   7.143 -0.7094 -0.6097  1.1151
10986SOL     OW33642   7.177   0.038   4.719 -0.4512 -0.2906  0.0616
10986SOL    HW133643   7.154   0.090   4.642 -0.5910  0.9250  0.9034
10986SOL    HW233644   7.098  -0.012   4.738  0.0609 -1.8032 -1.4683
10987SOL     OW33645   4.001   7.138   5.333 -0.1129 -0.4352 -0.0336
10987SOL    HW133646   4.022   7.193   5.408  0.0999 -0.9705  0.3105
10987SOL    HW233647   4.006   7.196   5.257  0.4373 -0.0629  0.2837
10988SOL     OW33648   5.783   6.011   3.286 -0.1647  0.1687 -0.0908
10988SOL    HW133649   5.800   5.990   3.377 -0.5903  1.3334  0.2769
10988SOL    HW233650   5.728   6.090   3.289  1.9518  1.7939 -1.3506
10989SOL     OW33651   5.258   7.412   5.438  0.0870 -0.4902 -0.1469
10989SOL    HW133652   5.240   7.391   5.530  0.3958  0.1607  0.0658
10989SOL    HW233653   5.212   7.494   5.423 -1.1594 -1.3099 -0.9938
10990SOL     OW33654   6.819   5.413   1.271  0.4151 -0.0764  0.5849
10990SOL    HW133655   6.779   5.499   1.265  0.5141  0.0138  1.1245
10990SOL    HW233656   6.887   5.423   1.338  0.2052 -0.6543  0.8889
10991SOL     OW33657   7.521   3.794   2.644 -0.3337 -0.5679 -0.4005
10991SOL    HW133658   7.615   3.777   2.656 -0.5949 -2.4787 -0.7699
10991SOL    HW233659   7.517   3.867   2.583  0.9207 -1.2536 -1.3358
10992SOL     OW33660   4.657   5.001   0.388 -0.0803  0.1074 -0.4351
10992SOL    HW133661   4.690   5.043   0.309  1.1924 -0.9708 -0.4988
10992SOL    HW233662   4.571   4.966   0.363 -0.0094  0.4069 -1.1092
10993SOL     OW33663   6.229   5.214   0.635 -0.0806 -0.1188 -0.0247
10993SOL    HW133664   6.306   5.224   0.690  0.1926  0.0998 -0.4477
10993SOL    HW233665   6.177   5.292   0.652  0.5121  0.4722 -0.8798
10994SOL     OW33666   2.610   6.703   3.169 -0.0006  0.4047  0.2167
10994SOL    HW133667   2.556   6.649   3.110 -0.2908  1.0109 -0.0768
10994SOL    HW233668   2.697   6.665   3.161 -0.1424  0.1502 -0.2099
10995SOL     OW33669   5.098   2.103   1.965 -0.1737  0.6037  0.0546
10995SOL    HW133670   5.020   2.135   2.009  0.9073  3.0466  0.3571
10995SOL    HW233671   5.070   2.085   1.876 -1.1909  1.0000  0.2850
10996SOL     OW33672   6.181   6.039   1.208 -0.5700 -0.2257  0.8851
10996SOL    HW133673   6.204   5.957   1.165 -1.1800  0.6503 -1.2275
10996SOL    HW233674   6.114   6.015   1.272 -1.2328 -1.2889 -0.1854
10997SOL     OW33675   7.325   0.683   7.711  0.1540  0.3862  0.3215
10997SOL    HW133676   7.420   0.689   7.707  0.4870 -1.6950  2.6000
10997SOL    HW233677   7.300   0.742   7.783 -0.0713 -0.3435  0.8523
10998SOL     OW33678   3.743   5.513   3.380 -0.2450  0.0661 -0.1251
10998SOL    HW133679   3.658   5.472   3.365  0.4247 -0.7459 -2.0988
10998SOL    HW233680   3.807   5.447   3.353  1.0778  0.3495  2.0711
10999SOL     OW33681   1.348   0.884   3.981  0.4556  0.3567 -0.5893
10999SOL    HW133682   1.321   0.915   4.067 -1.8856  1.5581 -1.6709
10999SOL    HW233683   1.391   0.800   3.998  0.0620  0.5569  1.7314
11000SOL     OW33684   3.285   1.893   6.850 -0.2959  0.1019  0.1637
11000SOL    HW133685   3.330   1.977   6.835  0.5640 -0.2808  0.5124
11000SOL    HW233686   3.250   1.868   6.765 -0.5223  0.7939  0.0481
11001SOL     OW33687   6.145   4.287   1.514 -0.1147 -0.7199 -0.1026
11001SOL    HW133688   6.110   4.374   1.534 -0.2404 -0.5185 -1.1703
11001SOL    HW233689   6.107   4.231   1.581 -1.9790 -0.3802 -0.8132
11002SOL     OW33690   4.260   2.135   7.583 -0.2049 -0.6560  0.0237
11002SOL    HW133691   4.233   2.056   7.631  1.3037  0.5147  3.0915
11002SOL    HW233692   4.213   2.206   7.626  0.6785  0.4098 -0.7203
11003SOL     OW33693   4.036   5.384   0.060  0.1439 -0.0618 -0.3796
11003SOL    HW133694   3.959   5.345   0.101  0.6767 -1.5031 -0.6733
11003SOL    HW233695   4.073   5.313   0.007  1.5970  0.6295 -0.3393
11004SOL     OW33696   5.420   5.488   5.815 -0.1134  0.0542  0.2789
11004SOL    HW133697   5.380   5.574   5.822  0.0042  0.1053  0.3218
11004SOL    HW233698   5.513   5.503   5.832 -0.3852 -0.4161  2.5198
11005SOL     OW33699   1.468   6.614   6.602  0.1429  0.0112 -0.0386
11005SOL    HW133700   1.392   6.572   6.563 -0.3090  0.5767  0.2234
11005SOL    HW233701   1.449   6.617   6.695 -0.1513  1.4175 -0.1241
11006SOL     OW33702   0.162   0.908   2.989  0.3869  0.3013 -0.1381
11006SOL    HW133703   0.157   0.840   3.055 -0.2293  2.1336  1.8123
11006SOL    HW233704   0.148   0.862   2.906 -0.4558 -1.8578  1.1201
11007SOL     OW33705   4.093   3.914   1.574  1.0792  0.0990  0.5013
11007SOL    HW133706   4.006   3.884   1.600  1.3201 -0.4186  0.7400
11007SOL    HW233707   4.102   4.001   1.613  0.3916  0.4655 -0.1391
11008SOL     OW33708   0.010   5.726   1.996 -0.0892 -0.5123 -0.3653
11008SOL    HW133709  -0.031   5.721   2.082 -0.0128  1.5683 -0.1514
11008SOL    HW233710   0.051   5.640   1.983 -2.6137 -1.9237  0.3247
11009SOL     OW33711   1.508   5.272   5.169 -0.2609  0.1471 -0.0587
11009SOL    HW133712   1.578   5.317   5.121  1.1480 -2.4412 -0.6572
11009SOL    HW233713   1.549   5.248   5.252 -0.7755 -0.5095  0.0087
11010SOL     OW33714   3.226   2.954   2.545 -0.4015  0.1147 -0.0620
11010SOL    HW133715   3.259   2.914   2.626  0.0711 -0.7642 -0.6812
11010SOL    HW233716   3.299   2.947   2.484 -0.6045  1.1822 -0.4385
11011SOL     OW33717   7.225   0.595   6.327  0.4405  0.4780  0.3333
11011SOL    HW133718   7.202   0.548   6.408  0.7070 -0.2080  0.0222
11011SOL    HW233719   7.257   0.526   6.268 -2.3419  0.4908 -1.3933
11012SOL     OW33720   0.775   1.140   2.447 -0.0573 -1.1073 -0.0592
11012SOL    HW133721   0.784   1.136   2.352  0.8592 -1.5402  0.0434
11012SOL    HW233722   0.777   1.049   2.475  0.1338 -0.9575  0.4180
11013SOL     OW33723   0.577   5.519   5.971 -0.4582  0.6980  0.3725
11013SOL    HW133724   0.647   5.474   6.018 -0.6115  0.7351  0.6414
11013SOL    HW233725   0.589   5.494   5.879 -0.7529 -0.1768  0.5624
11014SOL     OW33726   6.263   5.468   7.286 -0.5051 -0.0048 -0.1178
11014SOL    HW133727   6.195   5.513   7.237 -0.0223 -0.8542 -1.6373
11014SOL    HW233728   6.228   5.380   7.301 -0.4053  0.0634  0.5715
11015SOL     OW33729   6.471   4.965   2.622  0.1978  0.1532 -0.0278
11015SOL    HW133730   6.464   5.060   2.610  1.0060  0.1571 -0.6059
11015SOL    HW233731   6.398   4.929   2.572 -0.1808  0.4786  0.2872
11016SOL     OW33732   1.847   4.701   6.296  0.3498  0.0436  0.2060
11016SOL    HW133733   1.805   4.615   6.303  0.3504  0.1023  0.9643
11016SOL    HW233734   1.780   4.756   6.255  0.2248 -0.2330  0.0324
11017SOL     OW33735   0.613   2.263   0.330  0.0484  0.4312  0.4841
11017SOL    HW133736   0.647   2.341   0.286 -0.6458  0.8314  0.6401
11017SOL    HW233737   0.536   2.294   0.378 -0.7808 -0.5304 -0.1826
11018SOL     OW33738   1.012   5.047   0.565  0.0083  0.0743  0.6555
11018SOL    HW133739   1.076   5.044   0.494  0.4240 -0.8018  1.0561
11018SOL    HW233740   0.941   5.101   0.531  0.9995  1.1531  0.2394
11019SOL     OW33741   6.065   0.427   0.463 -0.1702 -0.1092  0.1855
11019SOL    HW133742   6.129   0.475   0.410  0.9811  0.1159  1.7209
11019SOL    HW233743   6.055   0.479   0.542 -2.8359  0.2299 -0.2923
11020SOL     OW33744   4.346   0.389   2.024  0.0537 -0.0309 -0.3358
11020SOL    HW133745   4.350   0.316   1.962 -0.4168 -0.7082  0.4129
11020SOL    HW233746   4.331   0.466   1.969 -2.2773 -0.8513 -0.9596
11021SOL     OW33747   0.366   0.521   3.266 -0.2612 -0.2245 -0.2172
11021SOL    HW133748   0.426   0.588   3.299  0.1537  0.4547 -2.2419
11021SOL    HW233749   0.424   0.451   3.235 -0.6602 -1.0967  0.9274
11022SOL     OW33750   1.024   1.244   7.425  0.3122 -0.6426  0.3281
11022SOL    HW133751   1.072   1.327   7.416 -0.8214 -0.0835 -0.8331
11022SOL    HW233752   1.013   1.233   7.520  1.2298  0.0786  0.5360
11023SOL     OW33753   0.159   0.791   2.520  0.0477 -0.1150 -0.0420
11023SOL    HW133754   0.099   0.741   2.465 -1.6756  1.7365  0.0707
11023SOL    HW233755   0.180   0.869   2.469 -0.5611  1.0154  1.3816
11024SOL     OW33756   1.546   6.526   2.275 -0.1172 -0.1482  0.1639
11024SOL    HW133757   1.557   6.620   2.259 -3.6053  0.4734  0.5533
11024SOL    HW233758   1.526   6.520   2.368 -0.5291 -1.2044  0.0229
11025SOL     OW33759   5.657   6.991   2.868 -0.1176 -0.1930 -0.5820
11025SOL    HW133760   5.683   6.967   2.956 -0.7788  1.2121  0.0300
11025SOL    HW233761   5.726   6.955   2.812  0.3619 -1.0153  0.4999
11026SOL     OW33762   4.053   6.383   5.263 -0.5042  0.2392 -0.1454
11026SOL    HW133763   4.012   6.374   5.177 -0.7661  0.6758 -0.0726
11026SOL    HW233764   4.094   6.470   5.260 -0.3466  0.1722  0.1009
11027SOL     OW33765   4.521   0.958   4.509  0.5355  0.0746 -0.2938
11027SOL    HW133766   4.584   0.892   4.481 -1.6534 -2.7652  0.9677
11027SOL    HW233767   4.444   0.944   4.454 -0.6557  0.2566  1.2448
11028SOL     OW33768   4.354   2.749   6.592  0.2286 -0.1820 -0.3080
11028SOL    HW133769   4.325   2.714   6.677  0.3904 -0.6028 -0.4215
11028SOL    HW233770   4.418   2.817   6.615 -1.5233  1.4535 -0.0212
11029SOL     OW33771   5.485   0.100   4.276 -0.5848 -0.1754  0.1854
11029SOL    HW133772   5.465   0.080   4.185  3.1324 -1.5999 -0.5109
11029SOL    HW233773   5.497   0.195   4.277  0.1968 -0.2348 -1.0590
11030SOL     OW33774   3.232   3.127   3.214 -0.2950  0.0696 -0.0134
11030SOL    HW133775   3.295   3.086   3.274  0.6295 -0.1464 -1.0940
11030SOL    HW233776   3.230   3.219   3.242  0.2698  0.0139  0.2354
11031SOL     OW33777   7.213   7.253   0.206  0.4343  0.3723  0.1251
11031SOL    HW133778   7.223   7.332   0.259  1.0143 -0.1006  0.7367
11031SOL    HW233779   7.159   7.195   0.258 -3.8726  1.9343 -2.1195
11032SOL     OW33780   7.326   5.273   5.990 -0.1229  0.4589  0.4483
11032SOL    HW133781   7.381   5.351   5.998  1.7291 -0.9244  1.8524
11032SOL    HW233782   7.367   5.208   6.047 -1.9058 -1.4106 -0.2784
11033SOL     OW33783   5.338   2.677   2.401  0.3144 -0.1529 -0.0262
11033SOL    HW133784   5.376   2.742   2.341 -1.1593 -0.9436 -1.9305
11033SOL    HW233785   5.414   2.641   2.447  1.3895  1.3439 -0.5352
11034SOL     OW33786   6.673   3.142   1.919  0.4126  0.5094 -0.1050
11034SOL    HW133787   6.643   3.163   1.830 -0.9048  1.7762  0.5895
11034SOL    HW233788   6.681   3.227   1.962  0.1100 -0.1345  1.2633
11035SOL     OW33789   3.117   0.559   0.727 -0.2173  0.2869 -0.5390
11035SOL    HW133790   3.045   0.574   0.666 -0.2850 -1.5106 -0.9707
11035SOL    HW233791   3.075   0.550   0.813 -0.2684  1.3500 -0.4395
11036SOL     OW33792   3.003   5.742   6.267  0.2647 -0.1774 -0.0388
11036SOL    HW133793   3.011   5.714   6.175  0.8327  0.7961 -0.3044
11036SOL    HW233794   3.046   5.674   6.317  0.2511 -0.5519 -0.5274
11037SOL     OW33795   4.871   7.390   2.067  0.3854  0.2730  0.5112
11037SOL    HW133796   4.955   7.399   2.023 -0.7383  1.7376 -1.4835
11037SOL    HW233797   4.819   7.333   2.009 -0.9196  1.7334  0.1718
11038SOL     OW33798   7.062   3.992   4.750  0.6429  0.7685  0.1853
11038SOL    HW133799   6.980   4.013   4.796 -0.1269 -0.6528 -0.4624
11038SOL    HW233800   7.037   3.924   4.687  2.0203  1.4182 -1.1219
11039SOL     OW33801   4.424   2.088   4.552  0.6554  0.6493  1.1174
11039SOL    HW133802   4.447   2.178   4.574 -0.2788  1.4526 -0.9321
11039SOL    HW233803   4.448   2.079   4.460 -2.2804 -0.1015  0.3318
11040SOL     OW33804   6.471   5.731   3.713  0.2193  0.3828  0.3474
11040SOL    HW133805   6.384   5.727   3.753  0.1996  0.5683  0.3209
11040SOL    HW233806   6.517   5.799   3.763  1.3225 -1.6565  2.3155
11041SOL     OW33807   0.741   1.301   3.852  0.1043 -0.3355 -0.2541
11041SOL    HW133808   0.695   1.254   3.782 -0.8382  1.4875 -0.9300
11041SOL    HW233809   0.781   1.376   3.808  1.1286 -0.1978  0.8635
11042SOL     OW33810   3.572   2.084   1.423 -0.1489 -0.0752  0.1353
11042SOL    HW133811   3.581   2.179   1.424 -3.3776  0.3619  0.7665
11042SOL    HW233812   3.573   2.058   1.515 -1.3543 -0.3086  0.1118
11043SOL     OW33813   3.723   3.425   2.468 -0.1373  0.1874  0.0491
11043SOL    HW133814   3.726   3.341   2.423  0.4899 -0.4323  1.2057
11043SOL    HW233815   3.661   3.412   2.540  0.6950  0.4041  0.8224
11044SOL     OW33816   0.514   5.326   7.087  0.0781 -0.1346 -1.0414
11044SOL    HW133817   0.560   5.405   7.057 -0.6765 -0.1977 -2.4588
11044SOL    HW233818   0.422   5.351   7.088 -0.0017 -0.3884  0.5670
11045SOL     OW33819   5.451   5.363   0.633  0.0105  0.4512 -0.1689
11045SOL    HW133820   5.506   5.440   0.615  1.2312 -0.2591  0.3769
11045SOL    HW233821   5.463   5.347   0.726  2.0465 -2.0460 -0.7540
11046SOL     OW33822   6.129   1.403   3.243  0.2853 -0.1623  0.5701
11046SOL    HW133823   6.079   1.370   3.169  1.0779 -0.8158  0.3085
11046SOL    HW233824   6.167   1.486   3.212  1.3710 -0.8895 -0.0908
11047SOL     OW33825   0.087   1.327   2.700 -0.1133 -0.4654 -0.2687
11047SOL    HW133826   0.019   1.263   2.677 -1.4197  0.6803  0.2697
11047SOL    HW233827   0.160   1.274   2.732 -2.2737 -1.6807  3.2636
11048SOL     OW33828   5.916   7.493   1.942 -0.5050  0.5092  0.7664
11048SOL    HW133829   5.964   7.540   2.010  1.1722 -0.7489  0.4971
11048SOL    HW233830   5.842   7.453   1.988  0.2598  0.1806  1.7436
11049SOL     OW33831   4.616   4.224   3.834 -0.2366  0.4696 -0.3696
11049SOL    HW133832   4.620   4.235   3.739 -1.1436  0.4435 -0.4159
11049SOL    HW233833   4.537   4.269   3.860 -0.7178 -0.6697  0.2073
11050SOL     OW33834   5.222   2.531   5.331  0.9639  0.1931 -0.2302
11050SOL    HW133835   5.238   2.615   5.288 -0.5243  1.7117  1.9708
11050SOL    HW233836   5.303   2.513   5.379  1.4765  0.0763 -1.1180
11051SOL     OW33837   0.893   2.272   3.737 -0.6583 -0.2741  0.0191
11051SOL    HW133838   0.825   2.285   3.804 -1.0592 -2.9602  0.2300
11051SOL    HW233839   0.849   2.288   3.654 -1.0489 -0.1418  0.2499
11052SOL     OW33840   2.813   3.843   5.813 -0.2445  0.1757  0.6600
11052SOL    HW133841   2.822   3.803   5.899  0.4561  1.6009  1.2962
11052SOL    HW233842   2.896   3.826   5.769 -0.8466 -1.1302 -0.0260
11053SOL     OW33843   5.528   3.750   0.020 -0.5322  0.1451 -0.0295
11053SOL    HW133844   5.537   3.696   0.098  0.5197  1.6079  0.9147
11053SOL    HW233845   5.462   3.816   0.043  2.2800  2.8540  1.1301
11054SOL     OW33846   7.265   0.214   3.788 -0.3340  0.5766 -0.2500
11054SOL    HW133847   7.357   0.194   3.773 -0.1200  0.1143  1.5425
11054SOL    HW233848   7.265   0.291   3.844 -0.9569 -0.7304  1.6341
11055SOL     OW33849   5.816   0.096   7.649 -0.2655 -0.2880  0.0766
11055SOL    HW133850   5.833   0.023   7.708 -2.4253 -1.2350 -0.3791
11055SOL    HW233851   5.722   0.112   7.657 -0.0986  1.4708 -0.9520
11056SOL     OW33852   2.697   4.049   3.807  0.0546  0.3788 -0.4986
11056SOL    HW133853   2.722   4.140   3.819  0.0470  0.4198 -0.7914
11056SOL    HW233854   2.769   4.010   3.757 -0.5411  0.5503 -1.5372
11057SOL     OW33855   3.799   1.444   2.071  0.7092  0.1908  0.5444
11057SOL    HW133856   3.776   1.374   2.010 -1.4171  1.7883 -0.6256
11057SOL    HW233857   3.824   1.518   2.015 -0.8417  1.5597  1.5678
11058SOL     OW33858   0.957   5.262   1.552 -0.4959 -0.0970 -0.7437
11058SOL    HW133859   1.023   5.294   1.492  0.0958  2.0589  0.9343
11058SOL    HW233860   0.971   5.167   1.556  1.2283  0.0800 -1.8565
11059SOL     OW33861   1.149   4.551   1.935 -0.2812 -0.5241 -0.2472
11059SOL    HW133862   1.200   4.613   1.987 -1.2993 -0.1015  0.2799
11059SOL    HW233863   1.134   4.596   1.852 -0.1202 -0.4977 -0.2626
11060SOL     OW33864   1.963   7.470   6.977 -0.1353  0.2961  0.2051
11060SOL    HW133865   2.036   7.531   6.970 -0.4810  0.5311 -2.2258
11060SOL    HW233866   1.996   7.389   6.936 -0.3287 -0.5350  1.6339
11061SOL     OW33867   2.893   2.528   2.222 -0.1282 -0.0426  0.5367
11061SOL    HW133868   2.951   2.562   2.290 -0.6918 -0.0446  1.0272
11061SOL    HW233869   2.913   2.435   2.217 -0.8963 -0.2774  1.5353
11062SOL     OW33870   1.845   3.118   2.520 -0.3381 -0.1598 -0.1781
11062SOL    HW133871   1.795   3.150   2.445  0.5847  0.0882 -0.6961
11062SOL    HW233872   1.849   3.023   2.508 -4.1022 -0.7938  1.9749
11063SOL     OW33873   2.089   7.210   6.340  0.3146  0.0125  0.1159
11063SOL    HW133874   2.056   7.298   6.324  0.2368  0.5868  3.0041
11063SOL    HW233875   2.010   7.156   6.348  0.2561  0.2188  1.0049
11064SOL     OW33876   5.077   3.415   6.916  0.4881 -0.1520 -0.2759
11064SOL    HW133877   4.993   3.369   6.915  0.3672  0.0727 -0.6320
11064SOL    HW233878   5.122   3.381   6.994  0.0410 -0.2238 -0.0442
11065SOL     OW33879   2.547   5.272   0.365  0.1193  0.0938  0.5283
11065SOL    HW133880   2.550   5.359   0.404 -0.3613  0.0509  0.6602
11065SOL    HW233881   2.614   5.275   0.296 -0.3727  0.7875  0.0736
11066SOL     OW33882   2.869   1.317   7.168 -0.0164 -0.3935  0.1016
11066SOL    HW133883   2.865   1.237   7.220  4.1166 -1.0164 -0.2575
11066SOL    HW233884   2.878   1.387   7.234  1.6724 -0.8305  0.3803
11067SOL     OW33885   1.845   5.843   1.418 -0.0164 -0.7295  1.0561
11067SOL    HW133886   1.881   5.931   1.424  0.1181 -0.5987 -0.8964
11067SOL    HW233887   1.882   5.796   1.493  1.5387  0.3214  0.9859
11068SOL     OW33888   4.019   3.448   1.012  0.3535 -0.1410  0.0882
11068SOL    HW133889   3.965   3.527   1.014  0.9241  0.2373  1.0949
11068SOL    HW233890   4.107   3.479   0.995  0.6493 -0.5096  0.8925
11069SOL     OW33891   0.914   1.559   5.728 -0.0694  0.4542  0.0272
11069SOL    HW133892   0.990   1.580   5.781  0.4932  1.2963 -1.0730
11069SOL    HW233893   0.950   1.523   5.647 -0.9439 -3.6537  1.2313
11070SOL     OW33894   5.456   7.424   4.758 -0.0175 -0.1752  0.1936
11070SOL    HW133895   5.434   7.361   4.826 -1.9194 -0.7506 -0.8503
11070SOL    HW233896   5.551   7.422   4.752  0.0443 -1.8882  1.1546
11071SOL     OW33897   6.467   3.418   6.918  0.6803  0.5329  0.5837
11071SOL    HW133898   6.550   3.449   6.881 -1.0093  1.5654 -2.6888
11071SOL    HW233899   6.426   3.367   6.848 -2.1430  1.4214  1.4353
11072SOL     OW33900   6.710   0.747   0.525 -0.1404  0.0363 -0.0664
11072SOL    HW133901   6.788   0.692   0.524  0.4373  0.8330  0.3186
11072SOL    HW233902   6.649   0.703   0.465  0.6043 -0.5806 -0.3893
11073SOL     OW33903   0.825   3.672   3.978 -0.2429  0.3568 -0.1400
11073SOL    HW133904   0.771   3.736   3.931 -0.7038 -0.8954 -1.3756
11073SOL    HW233905   0.783   3.588   3.961  0.4245 -0.3139  1.3520
11074SOL     OW33906   3.859   5.366   2.385 -0.6269 -0.2123 -0.2086
11074SOL    HW133907   3.926   5.431   2.363 -0.7094 -0.3774 -0.9911
11074SOL    HW233908   3.786   5.386   2.326 -0.8406 -0.7169 -0.1218
11075SOL     OW33909   4.151   2.354   2.851  0.5006 -0.1733 -0.0454
11075SOL    HW133910   4.098   2.279   2.824  0.2134 -0.1337  0.3890
11075SOL    HW233911   4.212   2.369   2.778  0.4588 -0.7310 -0.1977
11076SOL     OW33912   3.017   6.266   6.861  0.3921  0.0835 -0.0722
11076SOL    HW133913   3.111   6.283   6.872  0.1764  0.8710  0.6595
11076SOL    HW233914   3.001   6.186   6.910  0.9540 -0.9100 -1.4544
11077SOL     OW33915   5.431   4.898   5.318 -0.4166  0.2008  0.6984
11077SOL    HW133916   5.375   4.942   5.254 -0.0018  1.2993  1.0614
11077SOL    HW233917   5.373   4.881   5.392 -0.7820 -0.6366  0.2228
11078SOL     OW33918   0.195   2.907   2.102  0.0081 -0.2715  0.6013
11078SOL    HW133919   0.252   2.835   2.075 -1.8178 -1.7627  0.5338
11078SOL    HW233920   0.251   2.963   2.156  1.6286 -1.4050  0.1700
11079SOL     OW33921   6.206   5.689   3.852 -0.1225 -0.1057 -0.3100
11079SOL    HW133922   6.118   5.705   3.819  0.2567  0.2508 -1.1861
11079SOL    HW233923   6.194   5.636   3.931 -1.0930 -0.4061 -0.6564
11080SOL     OW33924   7.086   2.128   4.069 -0.1805 -0.1278  0.7139
11080SOL    HW133925   7.179   2.107   4.056 -0.1882  0.3201 -0.1146
11080SOL    HW233926   7.066   2.092   4.155  0.8351  0.0032  1.0260
11081SOL     OW33927   6.905   3.937   2.426 -0.3367  0.0830  0.1780
11081SOL    HW133928   6.952   4.018   2.405 -1.2880  0.4310 -0.7395
11081SOL    HW233929   6.959   3.867   2.389 -0.2806  0.4336 -0.4179
11082SOL     OW33930   6.939   1.046   6.383 -0.4237 -0.0483  0.1686
11082SOL    HW133931   6.932   0.951   6.387  0.5127 -0.1482 -0.3620
11082SOL    HW233932   7.001   1.069   6.452 -0.1772  0.1206 -0.1083
11083SOL     OW33933   5.114   3.881   2.854  0.3495 -0.3233 -0.1270
11083SOL    HW133934   5.178   3.814   2.878  1.2857  0.7170  0.3191
11083SOL    HW233935   5.051   3.881   2.927  0.0568 -1.0544 -0.3703
11084SOL     OW33936   7.059   1.756   5.617  0.4510  0.5316  0.4811
11084SOL    HW133937   7.077   1.742   5.710 -0.9690  1.7482  0.9891
11084SOL    HW233938   7.069   1.850   5.604  1.2862  0.2839 -0.7660
11085SOL     OW33939   1.326   6.886   6.393 -0.2694 -0.2598  0.1946
11085SOL    HW133940   1.420   6.875   6.384  0.0619  1.5051  1.1304
11085SOL    HW233941   1.315   6.966   6.444 -2.2508 -1.0821  1.1988
11086SOL     OW33942   5.818   6.009   0.070  0.2953  0.2365  0.5620
11086SOL    HW133943   5.723   6.010   0.083  0.2888  0.3303  0.5101
11086SOL    HW233944   5.829   6.015  -0.024  0.3593  0.7982  0.6004
11087SOL     OW33945   7.485   4.342   4.750  0.1971  0.2209 -0.6366
11087SOL    HW133946   7.441   4.263   4.718 -0.5179  0.7806 -1.0369
11087SOL    HW233947   7.416   4.407   4.758  0.6578  0.5980  0.4185
11088SOL     OW33948   6.789   0.321   1.290 -0.0968 -0.0774  0.1272
11088SOL    HW133949   6.754   0.234   1.268 -2.1556  0.4328  1.1300
11088SOL    HW233950   6.725   0.382   1.253  1.4239  1.0468 -0.7282
11089SOL     OW33951   1.325   5.073   6.839 -0.0943  0.2043  0.0456
11089SOL    HW133952   1.271   5.133   6.890  0.7872 -0.3093  1.6647
11089SOL    HW233953   1.413   5.083   6.876  1.0609  1.2499 -2.7205
11090SOL     OW33954   2.186   3.894   0.310  0.4842 -0.1785 -0.2998
11090SOL    HW133955   2.187   3.990   0.319  0.9553 -0.1277 -0.8150
11090SOL    HW233956   2.096   3.873   0.287  0.0743  0.0157  1.0270
11091SOL     OW33957   1.159   2.323   1.017 -0.0502 -1.3361 -0.0443
11091SOL    HW133958   1.197   2.276   0.943 -1.8814 -1.1204 -1.1720
11091SOL    HW233959   1.094   2.381   0.978 -0.4917 -0.6100  1.6722
11092SOL     OW33960   1.614   1.725   3.451 -0.0050 -0.2601 -1.0606
11092SOL    HW133961   1.703   1.715   3.485  0.1511 -0.2978 -1.4694
11092SOL    HW233962   1.623   1.707   3.357 -0.4172 -0.1133 -1.1276
11093SOL     OW33963   0.723   7.202   1.052  0.6078 -0.3283  0.4182
11093SOL    HW133964   0.703   7.226   0.961  0.5886  1.7003  0.9006
11093SOL    HW233965   0.642   7.164   1.085  0.2573 -0.0448 -0.0924
11094SOL     OW33966   2.111   3.457   0.001 -0.6082  0.2099  0.4369
11094SOL    HW133967   2.054   3.532   0.013  1.1011  1.3241  2.0719
11094SOL    HW233968   2.062   3.383   0.036 -1.6499  0.8461  0.3398
11095SOL     OW33969   2.710   7.070   3.170  0.3743 -0.6045 -0.0866
11095SOL    HW133970   2.687   7.012   3.243 -2.4035  1.5839  0.9746
11095SOL    HW233971   2.737   7.152   3.211  0.8594 -0.0032 -1.5223
11096SOL     OW33972   3.874   1.384   5.534  0.7200 -0.2083 -0.1989
11096SOL    HW133973   3.876   1.464   5.587 -5.1605  0.6413 -0.6045
11096SOL    HW233974   3.888   1.414   5.445 -0.0762  0.1486 -0.2060
11097SOL     OW33975   6.482   2.824   5.115  0.1013  0.5462 -0.0537
11097SOL    HW133976   6.547   2.881   5.075  1.8124 -1.7482 -0.7336
11097SOL    HW233977   6.525   2.789   5.193 -0.9322  0.2344  0.3943
11098SOL     OW33978   6.627   2.069   2.712 -0.3753  0.1242  0.4721
11098SOL    HW133979   6.552   2.024   2.673  0.1480 -2.1259  1.8978
11098SOL    HW233980   6.605   2.162   2.705 -3.9942 -0.4330  2.1491
11099SOL     OW33981   2.702   5.720   5.829  0.3023  0.0736  0.3806
11099SOL    HW133982   2.736   5.796   5.781  0.1323 -1.1784 -1.8506
11099SOL    HW233983   2.607   5.728   5.821  0.2765 -0.1732  0.4446
11100SOL     OW33984   3.638   6.237   2.939 -0.0086  0.2276 -0.2019
11100SOL    HW133985   3.619   6.330   2.925 -0.9494  0.3320  1.5637
11100SOL    HW233986   3.557   6.201   2.975  0.8120 -0.9611  0.4992
11101SOL     OW33987   5.650   7.071   6.971 -0.2102  0.3029 -0.2406
11101SOL    HW133988   5.736   7.062   7.012  0.0676 -0.1831 -0.9141
11101SOL    HW233989   5.667   7.060   6.878 -1.2216 -1.6121 -0.2551
11102SOL     OW33990   2.764   5.254   6.441 -0.6730 -0.4072  0.4802
11102SOL    HW133991   2.816   5.257   6.521 -0.9843 -2.5249  0.8200
11102SOL    HW233992   2.805   5.319   6.384  1.2711 -0.7721  1.3623
11103SOL     OW33993   4.261   0.245   4.350 -0.0859  0.3791  0.0042
11103SOL    HW133994   4.241   0.307   4.420 -0.4827  0.1385  0.1093
11103SOL    HW233995   4.201   0.172   4.365  0.2566  0.0495 -0.2243
11104SOL     OW33996   1.927   2.529   1.890  0.2374  0.3708 -0.1219
11104SOL    HW133997   1.984   2.589   1.842  1.4625 -1.2158 -0.7652
11104SOL    HW233998   1.987   2.471   1.937 -0.8677 -0.7115  0.0094
11105SOL     OW33999   4.777   6.622   5.751  0.3168  0.6188  0.0391
11105SOL    HW134000   4.754   6.533   5.724 -1.9159  0.6563  1.5514
11105SOL    HW234001   4.818   6.611   5.836 -0.4886  1.0380  0.4959
11106SOL     OW34002   2.306   1.957   2.339 -0.0079 -0.1060 -0.0113
11106SOL    HW134003   2.400   1.962   2.356  0.0791  0.7226 -0.7076
11106SOL    HW234004   2.299   1.914   2.255 -0.2065  0.5274 -0.3270
11107SOL     OW34005   6.654   1.453   6.776 -0.0556  0.5503  0.0968
11107SOL    HW134006   6.579   1.469   6.833 -0.7416 -0.3624 -0.5166
11107SOL    HW234007   6.728   1.495   6.821 -1.0586  2.1428  0.3186
11108SOL     OW34008   2.967   7.146   5.480  0.2449 -0.1359 -0.7135
11108SOL    HW134009   2.911   7.077   5.516  0.5584 -0.5398 -0.9853
11108SOL    HW234010   3.045   7.144   5.537 -0.1007  0.5642 -0.2071
11109SOL     OW34011   5.857   3.724   2.456  0.3691  0.1312 -0.0282
11109SOL    HW134012   5.784   3.690   2.404 -0.1586  0.2143  0.6351
11109SOL    HW234013   5.924   3.746   2.392 -0.1429 -0.0577 -0.6444
11110SOL     OW34014   5.566   6.567   1.648 -0.4150  0.8281 -0.6102
11110SOL    HW134015   5.553   6.592   1.557 -2.6277 -0.0962 -0.5972
11110SOL    HW234016   5.526   6.637   1.699 -3.5905 -0.8624 -0.5225
11111SOL     OW34017   5.895   7.356   2.809 -0.1186 -0.3891 -0.1092
11111SOL    HW134018   5.901   7.340   2.715 -0.5088 -0.1908 -0.1710
11111SOL    HW234019   5.916   7.449   2.818 -0.3411 -0.3468 -0.0289
11112SOL     OW34020   3.219   4.333   2.484 -0.8752 -0.2573  0.6426
11112SOL    HW134021   3.248   4.310   2.396  1.0087 -0.7625  1.3351
11112SOL    HW234022   3.185   4.251   2.520  0.7639 -0.7103  1.2377
11113SOL     OW34023   6.414   0.511   5.297  0.1846 -0.1153  0.0591
11113SOL    HW134024   6.461   0.521   5.380 -1.0702  0.5028  0.7267
11113SOL    HW234025   6.435   0.590   5.248 -0.6973  0.5181  0.6604
11114SOL     OW34026   2.738   7.770   5.879  0.2943  0.1792 -0.1194
11114SOL    HW134027   2.796   7.714   5.930 -0.4199 -0.2342  0.2422
11114SOL    HW234028   2.789   7.791   5.800  0.5537 -1.0236 -0.2884
11115SOL     OW34029   7.047   5.896   3.208  0.6797 -0.2399  0.2336
11115SOL    HW134030   7.072   5.869   3.296 -1.2087  0.5440  1.0663
11115SOL    HW234031   7.060   5.991   3.207  0.3534 -0.1987 -0.2164
11116SOL     OW34032   3.552   0.510   5.337  0.5270  0.5206  0.9098
11116SOL    HW134033   3.590   0.429   5.372 -0.8860  0.2454  1.8701
11116SOL    HW234034   3.622   0.574   5.344  2.0141 -0.7879 -0.7405
11117SOL     OW34035   2.887   7.414   4.545  0.0541 -0.0056 -0.6119
11117SOL    HW134036   2.876   7.325   4.577  0.5442 -1.1074 -3.2529
11117SOL    HW234037   2.959   7.409   4.482  0.1937  2.2887 -0.7402
11118SOL     OW34038   3.692   3.895   7.269 -0.4005 -0.5630 -0.4293
11118SOL    HW134039   3.720   3.889   7.361 -2.8672 -2.8700  0.2920
11118SOL    HW234040   3.602   3.927   7.274 -1.0640 -2.0599 -1.9144
11119SOL     OW34041   7.127   7.196   1.852 -0.0831 -0.6882 -0.0207
11119SOL    HW134042   7.135   7.149   1.769  0.4015 -0.4348 -0.1234
11119SOL    HW234043   7.087   7.133   1.912 -1.6293 -0.4668 -0.7820
11120SOL     OW34044   2.452   7.169   6.770  0.1690  0.0696 -0.0736
11120SOL    HW134045   2.359   7.190   6.768  0.0060 -0.6556 -0.5863
11120SOL    HW234046   2.468   7.139   6.860 -1.2985 -4.8179 -1.1482
11121SOL     OW34047   1.830   2.216   4.931  0.0631  0.2324  0.2551
11121SOL    HW134048   1.837   2.220   5.026  0.7769 -1.4026  0.3056
11121SOL    HW234049   1.823   2.307   4.903  0.8996  0.7912  1.7925
11122SOL     OW34050   5.865   0.228   4.388  0.3770  0.2696  0.3532
11122SOL    HW134051   5.789   0.277   4.356  0.2793  0.4463  0.8542
11122SOL    HW234052   5.893   0.276   4.466 -0.8690 -1.5472  1.9951
11123SOL     OW34053   5.683   0.253   0.491 -0.2468  0.1761 -0.1028
11123SOL    HW134054   5.727   0.315   0.433 -2.4571  0.7110 -1.3407
11123SOL    HW234055   5.678   0.172   0.440  0.0907 -0.1618  0.3902
11124SOL     OW34056   3.360   3.586   6.199  0.5028  0.1912 -0.0876
11124SOL    HW134057   3.357   3.568   6.105 -1.7313  0.6167 -0.1740
11124SOL    HW234058   3.453   3.590   6.220  1.0931  0.9286 -2.4555
11125SOL     OW34059   4.336   2.249   0.403 -0.1612 -0.3978  0.0046
11125SOL    HW134060   4.288   2.207   0.331  0.2948  1.5398 -1.5243
11125SOL    HW234061   4.408   2.189   0.422  1.1080  0.0649 -2.8409
11126SOL     OW34062   4.160   2.144   4.950  0.4066 -0.7202 -0.2557
11126SOL    HW134063   4.187   2.159   4.859  1.6847  0.6157  0.3024
11126SOL    HW234064   4.095   2.212   4.966 -0.4629 -1.4998 -0.4123
11127SOL     OW34065   2.866   6.846   1.654 -0.5129  0.0196  0.1434
11127SOL    HW134066   2.812   6.783   1.607  0.6592  0.6164 -2.1709
11127SOL    HW234067   2.946   6.852   1.603  0.0669  2.2126  1.1534
11128SOL     OW34068   4.711   3.137   0.757 -0.2880  0.0076 -0.2461
11128SOL    HW134069   4.682   3.071   0.694  0.8318 -0.1348 -0.6192
11128SOL    HW234070   4.776   3.093   0.811 -0.7188  0.3407  0.5590
11129SOL     OW34071   0.513   1.888   5.395 -0.1503  0.0236  0.0029
11129SOL    HW134072   0.563   1.838   5.460 -1.0102 -1.7294 -0.6263
11129SOL    HW234073   0.459   1.948   5.447  0.3105 -0.2541  0.8236
11130SOL     OW34074   0.950   0.304   5.035 -0.0479  0.2395  0.0443
11130SOL    HW134075   1.003   0.383   5.049  1.4758 -0.8319  0.5727
11130SOL    HW234076   0.859   0.334   5.044  0.5178  1.7837  0.9995
11131SOL     OW34077   4.267   4.735   5.633  0.3424 -0.1390 -0.6632
11131SOL    HW134078   4.321   4.756   5.709 -0.8504 -0.0630  0.1870
11131SOL    HW234079   4.239   4.820   5.599 -1.6175 -0.1691  0.6853
11132SOL     OW34080   6.001   5.337   1.177  0.0957 -0.3837 -0.0649
11132SOL    HW134081   6.028   5.259   1.129  1.5820 -1.4809  2.3736
11132SOL    HW234082   5.971   5.304   1.262 -0.0919  1.6408  0.7151
11133SOL     OW34083   0.657   5.913   6.284  0.0739  0.0839 -0.1315
11133SOL    HW134084   0.733   5.968   6.300  0.9306 -1.6950  2.4051
11133SOL    HW234085   0.632   5.933   6.193  2.3852  2.0634 -0.4297
11134SOL     OW34086   0.179   0.527   5.764 -0.6175  0.4982 -0.2279
11134SOL    HW134087   0.232   0.522   5.844  0.3037 -0.0002 -0.8531
11134SOL    HW234088   0.200   0.613   5.727  0.0742  0.1504 -0.6731
11135SOL     OW34089   0.468   3.700   1.252 -0.5101  0.1829 -0.5536
11135SOL    HW134090   0.474   3.613   1.213 -0.4754 -0.4649  0.8239
11135SOL    HW234091   0.519   3.693   1.333  0.1260  1.7118 -0.7821
11136SOL     OW34092   7.752   2.518   4.503  0.2152 -0.2939  0.0279
11136SOL    HW134093   7.752   2.578   4.577  1.1884  0.4808 -0.5732
11136SOL    HW234094   7.793   2.438   4.536 -0.5475 -0.4325  0.6686
11137SOL     OW34095   1.137   2.720   5.449  0.3039  0.0981 -0.0326
11137SOL    HW134096   1.204   2.784   5.422 -1.2185  1.1236 -1.5533
11137SOL    HW234097   1.056   2.751   5.409 -0.7442 -2.1621  0.1712
11138SOL     OW34098   2.254   7.605   2.741  0.0531  0.6298  0.6863
11138SOL    HW134099   2.269   7.628   2.650 -0.8574  2.0130  0.8567
11138SOL    HW234100   2.273   7.511   2.745  2.9169  1.0453 -0.2807
11139SOL     OW34101   3.872   5.846   6.742  0.4298  0.5581 -0.3190
11139SOL    HW134102   3.812   5.918   6.721  0.4989  0.7910  0.2725
11139SOL    HW234103   3.824   5.791   6.803  0.5514  0.3547 -0.4059
11140SOL     OW34104   4.519   7.371   2.303  0.7933  0.4077 -0.7602
11140SOL    HW134105   4.564   7.382   2.387  0.8414 -1.5691 -0.4809
11140SOL    HW234106   4.574   7.310   2.254 -1.9187 -2.9771  0.0001
11141SOL     OW34107   0.152   7.488   3.955  0.6570 -0.4683 -0.5692
11141SOL    HW134108   0.206   7.414   3.928  1.3699 -0.3931  0.5618
11141SOL    HW234109   0.215   7.552   3.989  0.0413  0.5739 -1.3160
11142SOL     OW34110   3.168   0.182   7.354 -0.0786  0.1587 -0.4862
11142SOL    HW134111   3.122   0.198   7.436 -1.8309  2.1668 -1.7616
11142SOL    HW234112   3.230   0.112   7.374 -0.8010  0.2402  2.3854
11143SOL     OW34113   2.634   4.962   2.548  0.3765  0.3722  0.0715
11143SOL    HW134114   2.689   5.040   2.540 -2.7992  3.0043  1.5793
11143SOL    HW234115   2.632   4.944   2.642  0.0724 -0.8063 -0.1389
11144SOL     OW34116   2.141   0.725   7.618 -0.9022 -1.1665  0.1120
11144SOL    HW134117   2.156   0.631   7.608 -1.7243 -1.2667 -0.2251
11144SOL    HW234118   2.143   0.740   7.713  0.1478 -1.3567  0.1379
11145SOL     OW34119   1.952   0.616   4.026  0.5629  0.5183 -0.3320
11145SOL    HW134120   1.929   0.691   4.080 -1.3232 -0.2511  0.0107
11145SOL    HW234121   1.940   0.540   4.083  1.3041 -0.1339 -1.0134
11146SOL     OW34122   4.957   5.000   0.072 -0.1857  0.1814 -0.4082
11146SOL    HW134123   4.993   4.963  -0.009 -1.6463 -1.9658 -0.1744
11146SOL    HW234124   5.033   5.011   0.129  0.6453  0.0379 -1.4612
11147SOL     OW34125   7.701   5.208   6.065 -0.0163 -0.0027  0.0264
11147SOL    HW134126   7.673   5.128   6.111 -1.2609  0.4124  0.0198
11147SOL    HW234127   7.639   5.218   5.993  0.3316  0.7987 -0.1770
11148SOL     OW34128   0.303   5.505   6.866 -0.6655 -0.2629 -0.8137
11148SOL    HW134129   0.354   5.555   6.802 -0.8769 -1.2277 -1.7767
11148SOL    HW234130   0.269   5.570   6.926 -1.0441  0.7789 -2.1105
11149SOL     OW34131   1.063   1.935   4.822 -0.2597 -0.2733  0.1075
11149SOL    HW134132   1.101   1.997   4.759  0.0891 -0.6829 -0.0896
11149SOL    HW234133   1.014   1.990   4.883  1.2879  0.3613  0.8362
11150SOL     OW34134   5.472   1.842   1.159  0.4796 -0.2577  0.5789
11150SOL    HW134135   5.477   1.907   1.229 -0.5331 -0.9110  1.2826
11150SOL    HW234136   5.474   1.758   1.204 -0.4557 -0.6864 -0.1427
11151SOL     OW34137   3.589   3.013   0.724 -0.3582  0.3696  0.2734
11151SOL    HW134138   3.634   3.089   0.688  1.9484 -0.3515  1.4000
11151SOL    HW234139   3.499   3.042   0.738 -0.0178  2.2546 -1.1031
11152SOL     OW34140   1.865   1.058   5.278 -0.3096 -0.1257 -0.2470
11152SOL    HW134141   1.787   1.087   5.325 -0.2537 -0.7620  0.2580
11152SOL    HW234142   1.835   0.983   5.227  0.0361 -0.5964  0.2244
11153SOL     OW34143   1.264   2.194   0.815  0.0323 -0.1209 -0.7221
11153SOL    HW134144   1.271   2.103   0.787  0.3407 -0.6722  1.0437
11153SOL    HW234145   1.352   2.230   0.803  0.6445 -0.8784  1.1639
11154SOL     OW34146   6.542   2.080   6.400  0.3273 -0.0431 -0.0051
11154SOL    HW134147   6.613   2.104   6.340 -0.0047  0.8575 -0.0547
11154SOL    HW234148   6.479   2.034   6.346  0.8537 -0.8189  0.0300
11155SOL     OW34149   4.160   3.940   1.258  0.3703  0.0679  0.2195
11155SOL    HW134150   4.208   3.868   1.298  0.1668  0.9722  2.2014
11155SOL    HW234151   4.091   3.962   1.321 -0.9473  0.5945 -1.3182
11156SOL     OW34152   1.761   3.585   0.966  0.8948 -0.0323 -0.0142
11156SOL    HW134153   1.801   3.662   1.007  0.4594  0.7185 -0.9822
11156SOL    HW234154   1.834   3.541   0.921  1.0874 -0.0470  0.3032
11157SOL     OW34155   5.157   3.243   4.068 -0.0454 -0.1914 -0.0812
11157SOL    HW134156   5.126   3.157   4.099 -0.5649 -0.6229 -1.7058
11157SOL    HW234157   5.086   3.275   4.012 -0.0141  1.4846  0.7815
11158SOL     OW34158   7.460   1.526   1.579 -0.3787  0.1456  0.0532
11158SOL    HW134159   7.510   1.483   1.509 -0.5281  0.1423 -0.0518
11158SOL    HW234160   7.403   1.588   1.534  0.2909  0.9132  0.2529
11159SOL     OW34161   7.338   3.018   7.428  0.5895 -0.5955  0.0953
11159SOL    HW134162   7.368   3.033   7.338 -0.4226  1.2978  0.0296
11159SOL    HW234163   7.280   2.942   7.422  0.2908 -0.3017 -0.9155
11160SOL     OW34164   1.921   4.328   7.556 -0.2740 -0.0455  0.7839
11160SOL    HW134165   1.852   4.264   7.575  0.1879 -0.9289 -0.3912
11160SOL    HW234166   1.888   4.377   7.481  0.4876 -0.7095 -0.0133
11161SOL     OW34167   6.140   2.519   1.169 -0.0941  0.3894  0.0037
11161SOL    HW134168   6.146   2.580   1.096 -0.0712  1.3101  0.7499
11161SOL    HW234169   6.232   2.503   1.194 -0.1181  0.3721  0.0805
11162SOL     OW34170   4.051   2.891   4.514 -0.0227 -0.1433  0.1400
11162SOL    HW134171   4.002   2.868   4.594  0.5837  1.5007  1.0216
11162SOL    HW234172   4.026   2.981   4.496  0.3261 -0.3016 -1.2122
11163SOL     OW34173   6.323   6.539   3.307 -0.1096 -1.0219 -0.2804
11163SOL    HW134174   6.378   6.493   3.371  0.6824  0.3906  0.0782
11163SOL    HW234175   6.253   6.578   3.360  0.8869  0.6645 -0.1544
11164SOL     OW34176   0.531   2.451   6.822  0.1795  0.6412  1.0781
11164SOL    HW134177   0.479   2.420   6.748  1.3222 -0.3474  0.6708
11164SOL    HW234178   0.492   2.409   6.898  0.1397  0.1979  0.8178
11165SOL     OW34179   4.797   4.448   0.300  0.1660 -0.3872  0.0251
11165SOL    HW134180   4.766   4.399   0.224  0.7182 -0.7383  0.0220
11165SOL    HW234181   4.746   4.529   0.298 -0.8849 -1.0238  0.1302
11166SOL     OW34182   7.085   7.193   2.963  0.3057 -0.1420 -0.4523
11166SOL    HW134183   7.070   7.246   3.042  0.0489  0.3201 -0.8052
11166SOL    HW234184   7.104   7.106   2.997 -0.0636 -0.0148  0.1195
11167SOL     OW34185   6.400   3.756   7.193 -0.1151 -0.5127  0.6881
11167SOL    HW134186   6.330   3.795   7.246  1.5601 -0.8335  3.3073
11167SOL    HW234187   6.480   3.797   7.225  1.0456 -0.8592 -1.5617
11168SOL     OW34188   3.878   0.772   7.491  0.2911 -0.0954 -0.3365
11168SOL    HW134189   3.879   0.731   7.577  0.1724 -0.7851 -0.6566
11168SOL    HW234190   3.969   0.792   7.473  0.2994  0.1902  0.0122
11169SOL     OW34191   6.801   0.705   5.565  0.0332  0.5063 -0.6489
11169SOL    HW134192   6.825   0.722   5.656  0.9572 -1.5654 -0.4479
11169SOL    HW234193   6.747   0.780   5.540  0.0949  1.3263  1.4635
11170SOL     OW34194   4.796   5.675   6.307 -0.1366  0.5308 -0.1007
11170SOL    HW134195   4.847   5.753   6.328  0.7244 -0.3562  1.2168
11170SOL    HW234196   4.852   5.602   6.331 -0.9990 -0.5179 -1.1340
11171SOL     OW34197   5.424   7.761   3.023 -0.1515 -0.4150 -0.0711
11171SOL    HW134198   5.496   7.707   3.057 -0.1399  0.0353  0.6354
11171SOL    HW234199   5.398   7.718   2.942 -0.5644 -1.8435  0.7903
11172SOL     OW34200   4.300   1.760   4.206 -0.3968  0.0674  0.2015
11172SOL    HW134201   4.255   1.752   4.122  1.5735 -0.9703 -0.8474
11172SOL    HW234202   4.338   1.673   4.221  1.3515  0.8906  0.8902
11173SOL     OW34203   1.487   7.117   7.775 -0.0740 -0.4409  0.2424
11173SOL    HW134204   1.458   7.151   7.691 -0.8185 -1.9003 -0.1159
11173SOL    HW234205   1.418   7.143   7.837  0.0704 -0.0846  0.2593
11174SOL     OW34206   6.883   6.832   7.741 -0.0324  0.2382  0.3869
11174SOL    HW134207   6.922   6.897   7.682  0.4505 -1.2710 -1.0538
11174SOL    HW234208   6.796   6.866   7.760  0.0635  1.1255 -0.6608
11175SOL     OW34209   3.286   7.190   2.034  0.2139 -0.1126  0.1203
11175SOL    HW134210   3.376   7.197   2.002 -0.7659  2.1067 -2.5672
11175SOL    HW234211   3.242   7.134   1.970 -1.0320  1.6497 -0.6656
11176SOL     OW34212   4.195   2.934   1.176  0.1306 -0.3095 -0.1727
11176SOL    HW134213   4.276   2.910   1.221  0.3685  0.7621 -0.0197
11176SOL    HW234214   4.223   2.967   1.091 -0.1489 -0.0482 -0.1669
11177SOL     OW34215   6.827   6.405   6.592 -0.2024 -0.2415 -0.0301
11177SOL    HW134216   6.917   6.429   6.616  0.3842  0.1450 -2.3819
11177SOL    HW234217   6.805   6.333   6.652  1.5208 -0.1096  0.8352
11178SOL     OW34218   1.222   3.111   5.697 -0.7250 -0.6357 -0.3158
11178SOL    HW134219   1.268   3.139   5.776 -0.4347 -2.6715  0.2938
11178SOL    HW234220   1.131   3.140   5.711 -0.7859 -1.4060  1.0028
11179SOL     OW34221   4.083   3.417   4.211  0.1641  0.2732 -0.3851
11179SOL    HW134222   4.150   3.476   4.246  1.2383 -1.2129  0.1736
11179SOL    HW234223   4.024   3.402   4.285 -1.1745  1.9979 -1.0177
11180SOL     OW34224   4.193   3.378   4.664 -0.3213 -0.5190  0.1209
11180SOL    HW134225   4.207   3.315   4.594 -1.2183  0.0606 -0.5993
11180SOL    HW234226   4.139   3.447   4.625 -1.8019 -0.7336  1.6692
11181SOL     OW34227   1.210   0.670   6.801  0.1643 -0.2093 -0.0763
11181SOL    HW134228   1.180   0.760   6.814 -1.4046 -0.7266  0.1026
11181SOL    HW234229   1.195   0.627   6.885  0.2686 -0.8119 -0.3634
11182SOL     OW34230   4.315   7.232   4.916  0.5425  0.1313  0.3924
11182SOL    HW134231   4.352   7.319   4.927 -1.2161  0.8670  0.8619
11182SOL    HW234232   4.267   7.236   4.834 -0.5584  0.0172  1.0032
11183SOL     OW34233   3.938   2.468   4.742  0.5242 -0.3827  0.3696
11183SOL    HW134234   4.027   2.432   4.739  1.2767  1.4226 -1.0811
11183SOL    HW234235   3.906   2.460   4.652  0.3759  1.6329  0.2055
11184SOL     OW34236   4.574   5.892   1.356 -0.2471  0.1672 -0.3002
11184SOL    HW134237   4.623   5.833   1.300  1.4047  1.3045 -0.1324
11184SOL    HW234238   4.628   5.900   1.435  0.0029  2.4247 -0.6129
11185SOL     OW34239   2.764   4.501   1.722  0.3008 -0.6431  0.1257
11185SOL    HW134240   2.832   4.483   1.656  0.6437  0.3627  0.1861
11185SOL    HW234241   2.751   4.417   1.766  1.2088 -0.9524 -0.1672
11186SOL     OW34242   7.207   7.394   5.526 -0.1524 -0.3389 -0.2529
11186SOL    HW134243   7.195   7.480   5.486  1.3310 -0.9535 -2.1843
11186SOL    HW234244   7.269   7.409   5.597  1.2972  0.0232 -1.5317
11187SOL     OW34245   4.443   5.541   6.074  0.1473  0.4705 -0.1894
11187SOL    HW134246   4.468   5.550   6.166  0.6113  0.2486 -0.2964
11187SOL    HW234247   4.517   5.576   6.025  0.1080  0.1270 -0.4952
11188SOL     OW34248   6.518   6.167   4.794  0.1947 -0.1796 -0.0625
11188SOL    HW134249   6.511   6.163   4.889  1.0023 -0.4344 -0.0074
11188SOL    HW234250   6.432   6.197   4.765 -0.7077 -1.9809  0.6190
11189SOL     OW34251   0.913   3.713   5.652 -0.3256 -0.4024  0.2807
11189SOL    HW134252   0.919   3.618   5.642  0.7975 -0.4795  1.4173
11189SOL    HW234253   0.998   3.745   5.623  0.1009  0.0354  1.9119
11190SOL     OW34254   6.114   7.751   6.716 -0.0534  0.1414  0.0248
11190SOL    HW134255   6.175   7.725   6.784 -0.5341  0.5339  0.6196
11190SOL    HW234256   6.164   7.746   6.635  0.5352 -0.2884  0.4139
11191SOL     OW34257   2.789   1.169   2.165  0.0181 -0.0148 -0.5367
11191SOL    HW134258   2.865   1.210   2.206  0.5635  0.4282 -1.9216
11191SOL    HW234259   2.777   1.087   2.212  0.3585  0.6414  0.7508
11192SOL     OW34260   6.810   6.344   7.072 -0.1401  0.4647  0.2989
11192SOL    HW134261   6.757   6.422   7.056  0.8891  1.1381  0.0704
11192SOL    HW234262   6.771   6.303   7.149 -1.1641  0.7841 -0.0469
11193SOL     OW34263   6.362   7.211   0.949  0.4753 -0.5002  0.3142
11193SOL    HW134264   6.345   7.229   0.856  1.2922  2.6113  0.6423
11193SOL    HW234265   6.337   7.120   0.961  0.1846 -0.9631 -2.9218
11194SOL     OW34266   0.705   6.337   3.444  0.3439  0.1131 -0.1510
11194SOL    HW134267   0.643   6.333   3.371  0.7219 -0.1947 -0.4625
11194SOL    HW234268   0.691   6.423   3.483 -2.0233 -0.8356  1.3357
11195SOL     OW34269   0.265   2.640   3.713  0.4407  0.0006 -0.6204
11195SOL    HW134270   0.170   2.655   3.716  0.1783 -1.3827 -1.1093
11195SOL    HW234271   0.285   2.635   3.619  1.1480  1.0342 -0.5392
11196SOL     OW34272   0.264   4.574   4.360  0.2781 -0.5768 -0.7251
11196SOL    HW134273   0.191   4.599   4.303 -0.1808 -1.8398 -0.7358
11196SOL    HW234274   0.338   4.564   4.300  0.1061 -0.6783 -0.9225
11197SOL     OW34275   4.606   3.259   5.831 -0.4793  0.0715  0.4508
11197SOL    HW134276   4.599   3.342   5.880 -0.5073 -0.0443  0.6452
11197SOL    HW234277   4.632   3.285   5.743  0.2202  0.2325  0.7040
11198SOL     OW34278   4.503   6.148   1.401  0.9334 -0.1744  0.2304
11198SOL    HW134279   4.504   6.052   1.404  1.0707 -0.2101 -0.7582
11198SOL    HW234280   4.414   6.172   1.425  1.2987 -0.4764  2.0118
11199SOL     OW34281   6.460   5.603   5.104 -0.2302  0.2009 -0.1780
11199SOL    HW134282   6.508   5.534   5.059 -0.0821  1.2003 -1.6292
11199SOL    HW234283   6.525   5.647   5.158  0.3143  0.9395 -1.3975
11200SOL     OW34284   5.431   6.273   0.400 -0.5589  0.0969  0.2114
11200SOL    HW134285   5.492   6.260   0.327 -0.7440  0.3308  0.0147
11200SOL    HW234286   5.344   6.273   0.359 -0.5585  3.1377  0.0138
11201SOL     OW34287   7.193   0.477   0.393  0.4018 -0.0198  0.3009
11201SOL    HW134288   7.258   0.415   0.359  2.0152 -0.0784  3.1351
11201SOL    HW234289   7.235   0.563   0.384  0.5051  0.0440  1.2478
11202SOL     OW34290   6.669   1.720   6.198 -0.5981  0.0103 -0.1959
11202SOL    HW134291   6.677   1.635   6.241  0.4419 -0.3774 -1.0795
11202SOL    HW234292   6.602   1.706   6.131 -2.2138  0.6127  1.2232
11203SOL     OW34293   3.168   2.348   3.909  0.0374  0.5127 -0.2952
11203SOL    HW134294   3.261   2.338   3.932  0.1964  1.2240 -0.6076
11203SOL    HW234295   3.121   2.306   3.981  0.5377  2.0287  0.9750
11204SOL     OW34296   5.972   5.368   1.878 -0.2364 -0.7048  0.1402
11204SOL    HW134297   6.028   5.292   1.860 -2.2252 -2.3016  0.3244
11204SOL    HW234298   5.898   5.358   1.818  0.0754  1.8513 -0.7525
11205SOL     OW34299   4.422   6.162   1.072  0.0208 -0.0281  0.1081
11205SOL    HW134300   4.511   6.128   1.076  0.8141  1.6381 -1.5839
11205SOL    HW234301   4.417   6.206   0.988 -2.3381  0.1799  0.2819
11206SOL     OW34302   1.151   6.114   3.614 -0.4731 -0.0535 -0.2803
11206SOL    HW134303   1.193   6.198   3.635  0.3028 -0.4085 -0.4036
11206SOL    HW234304   1.057   6.133   3.618 -0.3129  0.6347  0.4636
11207SOL     OW34305   3.376   6.957   6.002 -0.2557 -0.0769 -0.0098
11207SOL    HW134306   3.332   7.031   6.042 -1.3421 -0.2474 -0.8526
11207SOL    HW234307   3.308   6.892   5.987  0.4684 -0.7929 -0.3323
11208SOL     OW34308   1.263   7.448   5.713 -0.3208 -0.7454 -0.1893
11208SOL    HW134309   1.328   7.504   5.756 -1.4147 -0.6907  1.4838
11208SOL    HW234310   1.221   7.505   5.649 -1.2469  0.3695  1.3201
11209SOL     OW34311   5.421   1.926   4.571 -0.4540 -0.5234  0.4151
11209SOL    HW134312   5.475   1.861   4.615 -0.7439 -1.1236 -0.0922
11209SOL    HW234313   5.342   1.878   4.545  0.2578 -0.5645 -1.9142
11210SOL     OW34314   4.509   6.856   3.460 -0.2717 -0.0961  0.0105
11210SOL    HW134315   4.553   6.787   3.410  0.1989 -0.2187  0.5818
11210SOL    HW234316   4.416   6.842   3.445 -0.1512 -0.3770 -0.5029
11211SOL     OW34317   1.450   6.988   1.573  0.3788  0.2874 -1.0193
11211SOL    HW134318   1.411   7.054   1.515  0.0575  1.3640  0.3609
11211SOL    HW234319   1.397   6.909   1.560 -4.7288  2.4165  3.0378
11212SOL     OW34320   2.457   3.876   0.239 -0.5604  0.1783  0.1728
11212SOL    HW134321   2.490   3.955   0.281  0.8751  0.0170 -0.5684
11212SOL    HW234322   2.365   3.871   0.264  0.0414  0.4314  2.7734
11213SOL     OW34323   3.628   1.294   1.897 -0.2250 -0.9682 -0.1869
11213SOL    HW134324   3.598   1.205   1.882  0.3018 -0.8138 -2.5266
11213SOL    HW234325   3.721   1.292   1.876 -0.1634  0.0854 -0.0733
11214SOL     OW34326   6.656   6.847   0.394 -0.4531  0.2665 -0.2886
11214SOL    HW134327   6.737   6.851   0.343  1.1610 -0.3362  2.0317
11214SOL    HW234328   6.626   6.756   0.385 -0.6171  0.3678 -0.7787
11215SOL     OW34329   1.572   2.394   0.294  0.0785 -0.0534  0.5389
11215SOL    HW134330   1.531   2.313   0.323  0.3703  0.3961  2.3143
11215SOL    HW234331   1.509   2.434   0.234 -0.6870 -0.8744  0.7912
11216SOL     OW34332   1.218   7.363   3.131 -0.2135 -0.3773  0.0944
11216SOL    HW134333   1.143   7.343   3.075 -0.4034  0.2279  0.1268
11216SOL    HW234334   1.279   7.411   3.075 -0.4446  0.3119  0.4205
11217SOL     OW34335   6.999   1.173   0.499  0.0402  0.4403  0.6940
11217SOL    HW134336   6.921   1.125   0.473 -0.5614  1.6294  0.2404
11217SOL    HW234337   6.966   1.248   0.548  0.6732  2.5363 -1.9017
11218SOL     OW34338   4.077   2.308   5.216  0.0694  0.3277  0.5923
11218SOL    HW134339   4.025   2.295   5.137  1.2254  0.0765 -0.1582
11218SOL    HW234340   4.102   2.400   5.214  0.4197  0.2335  0.4446
11219SOL     OW34341   7.252   3.791   5.649 -0.3521 -0.2027  0.5557
11219SOL    HW134342   7.342   3.768   5.672 -0.2507 -0.5290 -0.1358
11219SOL    HW234343   7.258   3.822   5.558 -0.8799  0.1448  0.6359
11220SOL     OW34344   3.138   2.626   0.216 -0.1022  0.3087  0.4099
11220SOL    HW134345   3.203   2.588   0.157 -2.8845 -0.4103 -2.5302
11220SOL    HW234346   3.117   2.555   0.277 -0.2638 -0.5756 -0.6166
11221SOL     OW34347   2.567   2.883   6.400  0.4340 -0.5574 -0.2879
11221SOL    HW134348   2.551   2.877   6.494  0.2558 -0.5234 -0.3161
11221SOL    HW234349   2.507   2.819   6.362  0.6883 -0.7560 -0.3602
11222SOL     OW34350   6.573   5.977   0.480  0.5112  0.3696  0.7793
11222SOL    HW134351   6.550   5.885   0.467 -0.1026  0.7097 -0.8393
11222SOL    HW234352   6.625   6.000   0.403 -0.3131  1.6438  0.5579
11223SOL     OW34353   6.224   0.073   5.590  0.1198 -0.3000  0.3162
11223SOL    HW134354   6.243   0.016   5.516 -0.9777  0.5347 -0.6450
11223SOL    HW234355   6.131   0.091   5.583 -0.0648 -0.4255  2.0839
11224SOL     OW34356   5.039   4.273   3.642  0.2521  0.4347 -0.0612
11224SOL    HW134357   5.071   4.333   3.575  0.9015 -0.1801 -0.3092
11224SOL    HW234358   5.113   4.216   3.662 -0.3561 -0.3063  0.1515
11225SOL     OW34359   0.932   2.831   3.021  0.1857 -0.2117  0.8324
11225SOL    HW134360   0.891   2.744   3.022 -1.8089  0.6380 -0.1261
11225SOL    HW234361   0.907   2.868   2.936  2.8857  0.4903  0.2576
11226SOL     OW34362   0.458   5.855   7.094 -0.4008 -0.2281 -0.1223
11226SOL    HW134363   0.408   5.906   7.157  2.6088  2.1500  0.5585
11226SOL    HW234364   0.466   5.912   7.018  1.2760 -0.5068 -0.1805
11227SOL     OW34365   5.220   6.549   3.547 -0.0330  0.4541  0.2513
11227SOL    HW134366   5.185   6.556   3.636 -0.0565 -0.5236  0.3305
11227SOL    HW234367   5.304   6.505   3.557 -0.2493 -0.0893 -0.2548
11228SOL     OW34368   1.811   5.329   0.400  0.2250 -0.1285 -0.5802
11228SOL    HW134369   1.846   5.291   0.480  0.9198  0.4184 -0.6208
11228SOL    HW234370   1.764   5.407   0.429 -1.3799 -1.0852 -0.4715
11229SOL     OW34371   2.821   4.718   5.991 -0.1324  0.0707 -0.3213
11229SOL    HW134372   2.775   4.766   5.923 -2.3364 -0.0294  0.9994
11229SOL    HW234373   2.758   4.652   6.021  1.1226 -0.5545  1.1051
11230SOL     OW34374   1.002   2.549   6.188  0.7443  0.5998 -0.0199
11230SOL    HW134375   0.930   2.587   6.138  1.6135  0.2697 -1.5585
11230SOL    HW234376   1.054   2.624   6.216  0.9993  0.7199 -0.7932
11231SOL     OW34377   5.229   3.092   0.529  0.0014 -0.3976  0.2913
11231SOL    HW134378   5.314   3.121   0.496 -0.6770  3.9369  1.6876
11231SOL    HW234379   5.180   3.069   0.450  0.8033  2.4039 -1.1818
11232SOL     OW34380   6.483   5.180   0.753 -0.4422 -0.3928 -0.8396
11232SOL    HW134381   6.492   5.128   0.673 -0.7840 -0.1361 -1.0543
11232SOL    HW234382   6.557   5.240   0.751  0.4767 -1.4858 -0.1098
11233SOL     OW34383   4.619   1.152   2.030  0.3087  0.3614 -0.4498
11233SOL    HW134384   4.581   1.140   2.117 -0.5848 -0.7177 -0.9671
11233SOL    HW234385   4.561   1.215   1.987  1.9224  2.5293  0.4062
11234SOL     OW34386   5.896   7.543   3.841  0.3413 -0.1718 -0.0064
11234SOL    HW134387   5.905   7.554   3.936  1.2119 -1.0478  0.0373
11234SOL    HW234388   5.874   7.450   3.830 -1.4332  0.2871 -0.5883
11235SOL     OW34389   5.359   5.484   1.921  0.6033  0.3728  0.0347
11235SOL    HW134390   5.275   5.526   1.941  0.9524  1.1475 -0.0958
11235SOL    HW234391   5.415   5.506   1.995  1.0518  0.8686 -0.4476
11236SOL     OW34392   4.694   7.779   0.912 -0.0315 -0.1553  0.1299
11236SOL    HW134393   4.749   7.785   0.834  1.2807  0.3855  1.0655
11236SOL    HW234394   4.604   7.785   0.879  0.4884 -0.2118 -1.3485
11237SOL     OW34395   0.819   7.439   5.116 -0.1570  0.1927 -0.0822
11237SOL    HW134396   0.824   7.343   5.108  1.6306  0.3696 -1.9454
11237SOL    HW234397   0.812   7.454   5.210 -0.8079 -1.7655  0.2384
11238SOL     OW34398   1.780   4.991   0.097 -0.2897  0.1595 -0.0282
11238SOL    HW134399   1.809   5.073   0.136 -0.8371 -0.1827  1.1425
11238SOL    HW234400   1.854   4.963   0.042  0.2464  0.9844  0.2545
11239SOL     OW34401   0.061   5.408   5.121  0.3509  0.0742  0.2236
11239SOL    HW134402  -0.020   5.358   5.128 -0.4790  1.4875  1.4437
11239SOL    HW234403   0.032   5.495   5.092  1.1765  1.0934  2.2757
11240SOL     OW34404   5.538   0.290   1.375 -0.2058  0.1531 -0.1085
11240SOL    HW134405   5.533   0.376   1.332 -0.4435 -0.6198 -1.6815
11240SOL    HW234406   5.612   0.298   1.436  0.5317  1.0987 -1.0897
11241SOL     OW34407   5.955   3.714   0.741 -0.3473 -0.3870 -0.0144
11241SOL    HW134408   6.038   3.749   0.774 -1.0268 -0.1784  1.6020
11241SOL    HW234409   5.935   3.642   0.801 -2.8290  1.5129  1.6176
11242SOL     OW34410   7.523   5.446   6.496  0.8176  0.0489 -0.2815
11242SOL    HW134411   7.553   5.359   6.524 -0.2909 -0.3253 -0.1779
11242SOL    HW234412   7.543   5.450   6.403  1.6210  0.0099 -0.1135
11243SOL     OW34413   3.806   5.930   1.734 -0.2741 -0.1833  0.1447
11243SOL    HW134414   3.837   6.019   1.719 -0.1298 -0.2740 -0.1078
11243SOL    HW234415   3.884   5.875   1.724  0.3578 -0.0854  3.4658
11244SOL     OW34416   6.021   6.400   7.642 -0.3798 -0.4273  0.6787
11244SOL    HW134417   6.055   6.395   7.732  1.4862 -1.4609 -0.0274
11244SOL    HW234418   6.059   6.324   7.598 -0.4320  0.6063 -1.2566
11245SOL     OW34419   0.846   2.368   4.310  0.0696 -0.3391  0.3385
11245SOL    HW134420   0.898   2.429   4.363 -1.4492  0.5544  0.8493
11245SOL    HW234421   0.802   2.424   4.246 -0.5452 -1.0269  0.1517
11246SOL     OW34422   3.890   0.661   6.323  0.5810  0.5938 -0.1773
11246SOL    HW134423   3.919   0.716   6.395  0.6175 -0.4044  0.5838
11246SOL    HW234424   3.885   0.573   6.360  1.3550 -0.0743 -1.5808
11247SOL     OW34425   7.048   5.288   0.928  0.1115  0.6056 -0.1489
11247SOL    HW134426   7.095   5.296   0.845  2.0878  2.3437  1.0248
11247SOL    HW234427   7.080   5.361   0.981 -2.8191  0.9633  1.3644
11248SOL     OW34428   5.701   1.011   1.839  0.0738  0.4823  0.1952
11248SOL    HW134429   5.699   0.916   1.847 -1.3365  0.4791 -0.0438
11248SOL    HW234430   5.769   1.028   1.773  0.1762 -0.3641  0.0729
11249SOL     OW34431   0.236   0.057   1.475  0.0459 -0.0655 -0.3864
11249SOL    HW134432   0.156   0.021   1.437 -0.3432  0.8750 -0.4789
11249SOL    HW234433   0.301  -0.013   1.465 -0.6162 -0.6340 -0.8026
11250SOL     OW34434   6.784   7.694   4.935 -0.3105  0.4128 -0.2603
11250SOL    HW134435   6.757   7.726   5.021  0.2449 -1.5433  0.7031
11250SOL    HW234436   6.827   7.611   4.953  0.1952  0.1466 -2.4140
11251SOL     OW34437   5.762   0.158   4.895  0.3233  0.5392  0.3156
11251SOL    HW134438   5.705   0.148   4.819 -0.7592  2.7912  0.7576
11251SOL    HW234439   5.703   0.174   4.968  1.4317  0.4653  1.2676
11252SOL     OW34440   1.269   2.811   0.455  0.3711  0.0654 -0.1570
11252SOL    HW134441   1.191   2.857   0.486  0.2143  0.2868 -0.8680
11252SOL    HW234442   1.240   2.722   0.437 -0.3724  0.7878 -2.9229
11253SOL     OW34443   4.497   1.262   6.068  0.2129 -0.4006  0.7594
11253SOL    HW134444   4.407   1.231   6.083 -0.2301 -0.4702 -1.5855
11253SOL    HW234445   4.525   1.215   5.989  1.5343  1.1628  0.2472
11254SOL     OW34446   5.905   3.401   5.419  0.2891 -0.3702  0.5148
11254SOL    HW134447   5.876   3.341   5.487 -2.4079  0.4877  0.2682
11254SOL    HW234448   5.830   3.459   5.405  1.5055  0.8216 -1.6967
11255SOL     OW34449   5.378   1.264   3.053 -0.8832  0.0809 -0.8050
11255SOL    HW134450   5.371   1.296   3.143  0.1466 -0.9225 -0.3487
11255SOL    HW234451   5.349   1.173   3.057 -0.5421 -0.0627 -1.4330
11256SOL     OW34452   7.467   1.338   3.115  0.6098 -0.5407 -0.7333
11256SOL    HW134453   7.506   1.341   3.027 -0.2326 -1.9474 -1.1933
11256SOL    HW234454   7.378   1.305   3.100  0.4277 -0.7361  0.6603
11257SOL     OW34455   7.492   6.024   7.355 -0.2625  0.0090  0.0483
11257SOL    HW134456   7.518   5.992   7.442  0.2241 -0.0604 -0.1211
11257SOL    HW234457   7.411   5.977   7.335 -1.0447  0.8892  0.9711
11258SOL     OW34458   6.232   7.323   2.789 -0.0968  0.3057  0.5153
11258SOL    HW134459   6.196   7.395   2.842 -1.6841  0.1997 -0.3443
11258SOL    HW234460   6.321   7.311   2.821 -0.6730  0.9140  2.4672
11259SOL     OW34461   3.244   0.763   2.867  0.4828 -0.3379  0.0341
11259SOL    HW134462   3.236   0.858   2.873  0.2862 -0.4569  3.2343
11259SOL    HW234463   3.157   0.730   2.886  0.8301 -1.1623  0.2629
11260SOL     OW34464   7.302   6.490   6.347 -0.6400  0.0099 -0.1314
11260SOL    HW134465   7.286   6.511   6.439 -1.3863  0.5913 -0.3833
11260SOL    HW234466   7.215   6.492   6.307 -0.3021 -0.0822 -0.8864
11261SOL     OW34467   0.053   5.746   1.253 -0.2921  0.0381  0.1192
11261SOL    HW134468  -0.025   5.728   1.199  0.0090 -1.8128  0.2467
11261SOL    HW234469   0.018   5.772   1.338 -0.7601  0.9085 -0.3226
11262SOL     OW34470   1.075   1.031   6.218  0.4745  0.0586  0.0383
11262SOL    HW134471   1.004   1.070   6.269  0.7307  0.4330  0.1176
11262SOL    HW234472   1.037   1.015   6.132  0.8049  2.0172 -0.5150
11263SOL     OW34473   3.783   5.928   6.267 -0.0033 -0.0814  0.1182
11263SOL    HW134474   3.774   5.981   6.188  3.2462  0.0369 -0.3005
11263SOL    HW234475   3.730   5.972   6.333 -1.7357  0.5471 -1.6136
11264SOL     OW34476   5.389   7.470   1.486 -0.4066  0.2366  0.1707
11264SOL    HW134477   5.414   7.397   1.544 -1.4833 -0.4696 -0.2161
11264SOL    HW234478   5.332   7.429   1.421 -1.5240  1.5419  0.3037
11265SOL     OW34479   3.139   5.326   7.421 -0.1863  1.1044  0.6138
11265SOL    HW134480   3.103   5.238   7.437  0.1759  0.5205 -1.3893
11265SOL    HW234481   3.069   5.372   7.375  0.5220  0.9415 -0.6926
11266SOL     OW34482   3.491   4.994   3.451  0.3297  0.0058  0.0300
11266SOL    HW134483   3.507   5.073   3.502 -3.4322  1.0265 -0.0635
11266SOL    HW234484   3.498   4.922   3.514 -0.3960  0.8750  1.1299
11267SOL     OW34485   1.079   6.266   7.196  0.4917  0.2399 -0.0544
11267SOL    HW134486   1.124   6.329   7.140 -0.3662  1.5365  0.6778
11267SOL    HW234487   1.023   6.217   7.137  1.2391  0.0764 -0.6462
11268SOL     OW34488   2.484   5.814   5.707 -0.2475 -0.3581 -0.1141
11268SOL    HW134489   2.539   5.775   5.638 -1.0964 -1.2060 -0.3302
11268SOL    HW234490   2.438   5.740   5.746 -0.0637  0.1625  1.1284
11269SOL     OW34491   0.660   5.302   2.819  0.1018 -0.0982  0.8038
11269SOL    HW134492   0.675   5.278   2.728  1.0345 -0.0061  0.9293
11269SOL    HW234493   0.620   5.224   2.858  0.2701 -0.3521  0.4681
11270SOL     OW34494   0.742   6.507   0.838 -0.0599  0.0877  0.4436
11270SOL    HW134495   0.765   6.521   0.746 -0.8414  0.6313  0.3251
11270SOL    HW234496   0.746   6.412   0.849  0.7371  0.0600  0.0413
11271SOL     OW34497   4.720   3.361   7.333  0.0513  0.5984  0.4079
11271SOL    HW134498   4.686   3.348   7.244  0.0710  0.8430  0.3645
11271SOL    HW234499   4.753   3.451   7.333  3.4100 -0.4778 -0.4748
11272SOL     OW34500   6.257   4.445   0.526 -0.8228  0.1463 -0.1488
11272SOL    HW134501   6.163   4.431   0.539 -0.6690  0.5198  1.6332
11272SOL    HW234502   6.264   4.533   0.488 -1.1904 -0.0126 -0.5996
11273SOL     OW34503   3.043   1.134   1.035 -0.3097 -0.2192  0.2753
11273SOL    HW134504   3.125   1.178   1.015 -0.9619  0.9007 -0.0171
11273SOL    HW234505   3.069   1.053   1.079  1.0128 -0.6635 -1.2146
11274SOL     OW34506   6.456   6.747   0.101  0.1815 -0.4526 -0.6018
11274SOL    HW134507   6.502   6.691   0.164  1.8731  1.5254  0.0510
11274SOL    HW234508   6.378   6.777   0.147  0.2258 -0.8235 -0.2834
11275SOL     OW34509   2.249   3.655   1.760  0.0559  0.2075  0.1807
11275SOL    HW134510   2.197   3.645   1.840 -0.4347 -1.6123 -0.3196
11275SOL    HW234511   2.192   3.621   1.691  1.0763  0.2893 -0.7143
11276SOL     OW34512   2.558   0.043   7.119  0.3924 -0.3437  0.2336
11276SOL    HW134513   2.549   0.110   7.186 -1.3227 -0.5957  0.3115
11276SOL    HW234514   2.471   0.003   7.113  0.4740 -0.3421 -2.1054
11277SOL     OW34515   4.304   0.889   5.832 -0.1970 -0.2392  0.0543
11277SOL    HW134516   4.348   0.936   5.761  0.8082 -1.1389  0.0714
11277SOL    HW234517   4.257   0.818   5.788 -1.1941  0.3696  0.0985
11278SOL     OW34518   2.994   0.132   7.577  0.3862  0.1513 -0.5304
11278SOL    HW134519   2.915   0.141   7.631 -0.6697  2.0872 -2.2728
11278SOL    HW234520   3.058   0.092   7.636 -1.6835 -0.9444  1.1297
11279SOL     OW34521   6.387   0.214   6.698 -0.0033  0.4231 -0.6845
11279SOL    HW134522   6.368   0.163   6.777  0.9224  1.4310  0.2404
11279SOL    HW234523   6.376   0.153   6.626 -1.7602 -0.3066  0.1400
11280SOL     OW34524   3.840   5.929   0.109 -0.1714 -0.4874  0.1170
11280SOL    HW134525   3.841   5.837   0.133 -0.7837 -0.8115 -1.0338
11280SOL    HW234526   3.886   5.932   0.025  1.3218  0.5095  0.9185
11281SOL     OW34527   6.564   2.346   7.168  0.1595  0.0551  0.3720
11281SOL    HW134528   6.481   2.306   7.195 -0.5358  0.1246 -1.4658
11281SOL    HW234529   6.588   2.403   7.241 -0.3118 -1.5441  1.8194
11282SOL     OW34530   1.282   3.751   5.093  0.2321  0.3374 -0.1422
11282SOL    HW134531   1.216   3.814   5.064  0.1982  0.6157  0.5164
11282SOL    HW234532   1.238   3.666   5.088  0.1925  0.3845 -0.7811
11283SOL     OW34533   3.941   3.274   5.976 -0.1460  0.2143 -0.6541
11283SOL    HW134534   3.996   3.329   5.920 -0.9187  1.8002  0.0926
11283SOL    HW234535   3.962   3.184   5.950  0.4405  0.8768 -2.5932
11284SOL     OW34536   5.564   4.852   4.279 -0.0809  0.4225  0.0904
11284SOL    HW134537   5.600   4.936   4.306  1.5445 -0.8401  2.1161
11284SOL    HW234538   5.479   4.846   4.324 -0.4125  1.1349 -0.4247
11285SOL     OW34539   1.630   0.528   6.560 -0.1693 -0.4931 -0.2118
11285SOL    HW134540   1.548   0.560   6.522 -0.1187 -0.2258 -0.1046
11285SOL    HW234541   1.679   0.608   6.579 -0.4498 -0.5784  0.9686
11286SOL     OW34542   2.133   5.342   5.403 -0.0172  0.1473 -0.2292
11286SOL    HW134543   2.043   5.372   5.413 -0.0560 -0.0911  0.1569
11286SOL    HW234544   2.187   5.414   5.435 -0.0424  0.5798 -1.1371
11287SOL     OW34545   0.602   0.350   4.486 -0.5226  0.2208 -0.4071
11287SOL    HW134546   0.567   0.351   4.397 -2.1715  0.4029  0.2123
11287SOL    HW234547   0.546   0.289   4.533  0.3405  0.1204  0.5248
11288SOL     OW34548   3.960   6.677   6.673  0.4089  0.3764  0.2385
11288SOL    HW134549   3.967   6.753   6.616  1.0519  0.6703  0.6984
11288SOL    HW234550   4.013   6.699   6.750 -3.4412  1.7420  2.8562
11289SOL     OW34551   5.063   0.820   0.713 -0.0784  1.1860  0.0189
11289SOL    HW134552   5.007   0.819   0.636 -1.2932  1.7214  0.8580
11289SOL    HW234553   5.010   0.864   0.780  0.7175  0.2391  1.3150
11290SOL     OW34554   7.357   4.547   5.054  0.1906 -0.4240 -0.1149
11290SOL    HW134555   7.302   4.525   4.979 -0.1655 -2.3276  0.6412
11290SOL    HW234556   7.418   4.473   5.061  1.4658  0.6397  0.3389
11291SOL     OW34557   2.377   0.259   1.986 -0.5018 -0.4503 -0.9085
11291SOL    HW134558   2.362   0.353   1.993 -3.4085 -0.7139 -2.3896
11291SOL    HW234559   2.412   0.247   1.897  0.4613 -0.7620 -0.5085
11292SOL     OW34560   1.393   4.041   7.336 -0.4167 -0.3579  0.4284
11292SOL    HW134561   1.391   4.066   7.428 -1.5598  1.0105  0.0704
11292SOL    HW234562   1.453   4.103   7.295 -0.1839 -0.7336  0.2011
11293SOL     OW34563   5.766   4.743   0.501  0.2628  0.9931 -0.4758
11293SOL    HW134564   5.783   4.718   0.591  1.0040  0.2410 -0.8145
11293SOL    HW234565   5.834   4.807   0.480 -0.9437  2.5055  0.0242
11294SOL     OW34566   7.697   0.398   3.734  0.0482 -0.2061 -0.0984
11294SOL    HW134567   7.755   0.332   3.695  1.8828  0.5613  1.1770
11294SOL    HW234568   7.709   0.387   3.828 -2.1196 -0.1619  0.2175
11295SOL     OW34569   2.482   4.870   0.804  0.5453  0.2167  0.1113
11295SOL    HW134570   2.490   4.851   0.898 -1.8009  1.0470  0.5268
11295SOL    HW234571   2.564   4.915   0.783  0.1251  2.2454  2.3681
11296SOL     OW34572   5.744   3.678   2.168 -0.5122  0.1552  0.1573
11296SOL    HW134573   5.732   3.754   2.111  1.9510  0.8712  0.4852
11296SOL    HW234574   5.675   3.617   2.141 -0.0588  0.8254 -2.9797
11297SOL     OW34575   1.722   6.693   7.172 -0.1687 -0.4113  0.1661
11297SOL    HW134576   1.740   6.621   7.233  0.3747  0.4175  1.0199
11297SOL    HW234577   1.652   6.743   7.214  0.5411  0.4383  0.3749
11298SOL     OW34578   0.104   2.345   2.068 -1.0420  0.6389  0.0517
11298SOL    HW134579   0.180   2.381   2.114 -0.0787 -0.4428 -0.6588
11298SOL    HW234580   0.055   2.298   2.136 -0.6077  0.5968  0.3407
11299SOL     OW34581   5.951   5.206   6.726 -0.0019  0.2357  0.0245
11299SOL    HW134582   6.033   5.160   6.744  0.0423  0.7576  1.2192
11299SOL    HW234583   5.929   5.250   6.808 -0.3883  1.8196 -0.8877
11300SOL     OW34584   1.490   3.804   3.159 -0.2682  0.0590  0.1225
11300SOL    HW134585   1.568   3.839   3.203 -1.7793  1.5885  1.7566
11300SOL    HW234586   1.474   3.720   3.202 -0.2135  0.3275  0.6886
11301SOL     OW34587   1.838   7.259   2.620  0.3587 -0.5019 -0.4528
11301SOL    HW134588   1.819   7.187   2.559  1.2659  0.3741 -1.8553
11301SOL    HW234589   1.906   7.310   2.575 -0.0193  1.0440  0.6433
11302SOL     OW34590   0.420   3.528   5.092  0.0983  0.7763  0.2950
11302SOL    HW134591   0.360   3.490   5.027 -0.2775  0.8352  0.6060
11302SOL    HW234592   0.475   3.588   5.041  0.5111  0.0274 -0.1500
11303SOL     OW34593   4.182   0.998   2.693 -0.0673  0.4518  0.1714
11303SOL    HW134594   4.125   1.037   2.759  1.0640 -0.1611  1.5702
11303SOL    HW234595   4.236   0.936   2.742  0.4739 -0.3953 -1.4294
11304SOL     OW34596   4.359   0.338   0.708 -0.1611  0.4832 -0.1498
11304SOL    HW134597   4.372   0.417   0.762  0.4604  1.8374 -2.1666
11304SOL    HW234598   4.404   0.357   0.626 -1.0921 -1.4808 -1.1908
11305SOL     OW34599   6.225   4.906   1.191 -0.1744 -0.5723  0.4222
11305SOL    HW134600   6.293   4.952   1.240  0.2157 -2.2377  1.5449
11305SOL    HW234601   6.229   4.816   1.224 -1.6804 -1.1423 -0.8332
11306SOL     OW34602   7.176   1.100   1.264 -0.1749 -0.1736 -0.2566
11306SOL    HW134603   7.267   1.105   1.294 -0.1302  2.4368 -0.6347
11306SOL    HW234604   7.177   1.139   1.176 -1.5008 -1.0582 -0.6957
11307SOL     OW34605   3.799   4.156   3.042  0.5895  0.2343  0.3808
11307SOL    HW134606   3.826   4.066   3.060 -0.5215 -0.4657 -1.1727
11307SOL    HW234607   3.874   4.195   2.996 -0.0478 -0.9543 -1.8089
11308SOL     OW34608   1.169   7.120   4.101 -0.2604  0.1375  0.0208
11308SOL    HW134609   1.192   7.211   4.081 -1.8818  0.6404  0.3422
11308SOL    HW234610   1.107   7.126   4.174  1.5642 -1.3853  1.8164
11309SOL     OW34611   1.650   1.738   3.874  0.9804  0.1695 -0.2142
11309SOL    HW134612   1.721   1.719   3.936  0.7547 -0.9981 -0.2969
11309SOL    HW234613   1.626   1.829   3.893  2.1817  0.4366  0.1281
11310SOL     OW34614   3.377   7.585   1.542 -0.0210  0.3009 -0.3588
11310SOL    HW134615   3.464   7.621   1.526  0.7609  0.0237  2.6107
11310SOL    HW234616   3.389   7.490   1.538 -0.0259  0.2491  0.5850
11311SOL     OW34617   7.031   6.963   3.291 -0.0743  0.9415  0.1316
11311SOL    HW134618   7.071   6.991   3.373 -0.4449  2.4354 -0.1707
11311SOL    HW234619   6.981   7.039   3.261 -1.8914 -0.3399 -0.2912
11312SOL     OW34620   1.226   2.685   2.218 -0.5566 -0.1683  0.3598
11312SOL    HW134621   1.262   2.676   2.306  3.4842 -0.5194 -1.1129
11312SOL    HW234622   1.213   2.780   2.207  0.4250  0.0385  0.8525
11313SOL     OW34623   2.162   3.260   4.903  0.2907  0.2217 -0.0781
11313SOL    HW134624   2.208   3.224   4.827 -0.7885 -0.5593 -0.3901
11313SOL    HW234625   2.231   3.294   4.960  1.2158 -0.5562 -0.7172
11314SOL     OW34626   6.846   4.036   3.998 -0.2985 -0.3607 -0.1156
11314SOL    HW134627   6.910   3.987   3.946  0.3136 -0.1758  0.4427
11314SOL    HW234628   6.779   4.063   3.935  0.9448  0.7312 -1.0261
11315SOL     OW34629   0.045   3.520   5.384 -0.2054  0.3108 -0.3162
11315SOL    HW134630   0.033   3.608   5.350 -0.5505  0.3685 -0.0525
11315SOL    HW234631   0.139   3.507   5.385 -0.0481  1.3670  1.3989
11316SOL     OW34632   3.112   1.626   7.025 -0.2592  0.4241  0.3655
11316SOL    HW134633   3.053   1.700   7.009 -0.6792 -0.1085 -0.5839
11316SOL    HW234634   3.058   1.548   7.009  0.7613 -0.0728 -0.7752
11317SOL     OW34635   2.241   4.921   5.607 -0.4035  0.1610 -0.2233
11317SOL    HW134636   2.210   4.984   5.542 -1.4833 -0.2327 -0.1022
11317SOL    HW234637   2.248   4.838   5.559  1.8738  0.5196 -0.6097
11318SOL     OW34638   6.471   2.621   6.931 -0.6065  0.0560 -0.3604
11318SOL    HW134639   6.524   2.547   6.901 -1.8450 -0.8889 -0.2950
11318SOL    HW234640   6.503   2.638   7.020 -0.6377 -0.7187 -0.1947
11319SOL     OW34641   1.702   6.420   2.524  0.3620  0.1227  0.4221
11319SOL    HW134642   1.702   6.416   2.619 -0.8199 -1.2206  0.3912
11319SOL    HW234643   1.783   6.468   2.502 -0.5564  2.6878  2.1446
11320SOL     OW34644   1.095   3.113   6.947  0.1650  0.5131 -0.7139
11320SOL    HW134645   1.164   3.049   6.929 -1.0520 -0.9288 -0.3741
11320SOL    HW234646   1.125   3.193   6.904  2.1494 -0.0076 -0.3889
11321SOL     OW34647   4.641   4.838   6.825 -0.9449 -0.5974  0.0538
11321SOL    HW134648   4.704   4.902   6.857  0.1226 -0.4857 -2.0939
11321SOL    HW234649   4.556   4.870   6.856 -0.1521  0.3106  1.3657
11322SOL     OW34650   1.510   5.984   2.727 -0.4480  0.0845 -0.2902
11322SOL    HW134651   1.510   6.036   2.646  0.4475  1.9111  0.8291
11322SOL    HW234652   1.459   6.036   2.789 -2.5801 -2.0605 -0.0580
11323SOL     OW34653   5.024   6.725   5.113 -0.1356  0.0833 -0.3814
11323SOL    HW134654   5.048   6.759   5.200  0.2326 -0.0384 -0.4341
11323SOL    HW234655   4.931   6.703   5.121  0.3080 -1.6120  0.5304
11324SOL     OW34656   7.275   4.117   0.303  0.1448  0.9246 -0.4861
11324SOL    HW134657   7.358   4.092   0.345 -0.6464 -2.1470 -0.5148
11324SOL    HW234658   7.247   4.195   0.351  3.0350  2.1664 -0.5437
11325SOL     OW34659   7.200   1.901   1.038 -0.0540 -0.3008 -0.5563
11325SOL    HW134660   7.200   1.969   0.970 -0.9960  0.1645 -0.1004
11325SOL    HW234661   7.233   1.945   1.116  1.0512 -0.8427 -0.6965
11326SOL     OW34662   7.216   4.322   4.448  0.5307  0.4358  0.4711
11326SOL    HW134663   7.137   4.307   4.397  0.4590 -0.4934  0.8252
11326SOL    HW234664   7.248   4.407   4.419  0.2061  0.1672 -0.7372
11327SOL     OW34665   6.934   1.383   0.665  0.2573 -0.0744 -0.1978
11327SOL    HW134666   7.009   1.439   0.688  0.4571 -0.3216 -0.2465
11327SOL    HW234667   6.880   1.383   0.744  0.7254 -0.5647  0.1350
11328SOL     OW34668   4.730   1.178   4.368  1.1140  0.3145  0.4241
11328SOL    HW134669   4.731   1.259   4.316 -0.7709  0.2842  0.2601
11328SOL    HW234670   4.688   1.114   4.310  1.2216 -0.3718  1.0958
11329SOL     OW34671   1.268   5.092   0.265  0.1664  0.5464  0.2016
11329SOL    HW134672   1.251   5.186   0.263 -0.0860  0.5271  1.2643
11329SOL    HW234673   1.240   5.061   0.178  0.3505  1.4563 -0.1982
11330SOL     OW34674   5.440   1.099   1.370 -0.0955  0.7261 -0.2049
11330SOL    HW134675   5.424   1.093   1.276  0.6263 -0.6470 -0.2766
11330SOL    HW234676   5.524   1.143   1.378  0.1722  0.2364 -0.2532
11331SOL     OW34677   1.323   1.753   3.868 -0.1086 -0.2804 -0.5333
11331SOL    HW134678   1.299   1.785   3.781 -1.2618 -0.0327 -0.1448
11331SOL    HW234679   1.407   1.794   3.887 -1.5998  2.8143  0.0293
11332SOL     OW34680   1.249   1.874   0.423  0.5081  0.2152 -0.0737
11332SOL    HW134681   1.329   1.861   0.373  0.5709 -0.7643  0.2661
11332SOL    HW234682   1.187   1.913   0.361  1.1163  0.6217 -0.4390
11333SOL     OW34683   2.178   3.596   2.755  0.3795  0.1586 -0.2929
11333SOL    HW134684   2.142   3.563   2.673 -1.9798  1.9421 -0.0942
11333SOL    HW234685   2.242   3.662   2.728  0.0720  0.2912 -0.7041
11334SOL     OW34686   4.433   4.382   2.150 -0.0614 -0.5152  0.3783
11334SOL    HW134687   4.488   4.451   2.185 -1.1816 -0.0203  1.2188
11334SOL    HW234688   4.392   4.421   2.073  1.5341 -1.2363 -0.9021
11335SOL     OW34689   2.942   7.475   7.131  0.4210 -0.6212 -0.4626
11335SOL    HW134690   2.959   7.467   7.225  1.4552  1.0060 -0.4742
11335SOL    HW234691   3.017   7.432   7.089 -0.0703 -1.4013 -0.5527
11336SOL     OW34692   0.574   0.322   2.775  0.1599  0.4701  0.3955
11336SOL    HW134693   0.559   0.403   2.824 -1.0788  0.8800 -0.6096
11336SOL    HW234694   0.647   0.280   2.821 -0.3089  1.2970  1.9821
11337SOL     OW34695   6.714   0.159   6.706  0.3682  0.2686  0.8810
11337SOL    HW134696   6.759   0.241   6.727 -1.5694  1.5103  0.4202
11337SOL    HW234697   6.656   0.144   6.781  1.3626 -1.2413  1.4057
11338SOL     OW34698   4.945   2.593   6.514  0.4537  0.0954 -0.1791
11338SOL    HW134699   5.020   2.555   6.469  1.0898  2.2879 -1.1210
11338SOL    HW234700   4.869   2.556   6.468  0.8238 -2.5833  1.1492
11339SOL     OW34701   3.105   2.741   3.249 -0.3086 -0.2751 -0.0420
11339SOL    HW134702   3.059   2.811   3.296  0.8500 -0.0976  0.8577
11339SOL    HW234703   3.190   2.736   3.291 -0.4335 -2.3971  0.0528
11340SOL     OW34704   0.260   0.830   1.562  0.6867 -0.1703 -0.3078
11340SOL    HW134705   0.318   0.771   1.516  0.0005 -1.7977  0.8208
11340SOL    HW234706   0.177   0.783   1.568  0.1720  0.8072  0.8197
11341SOL     OW34707   0.328   6.462   4.055 -0.2872 -0.0943  0.3668
11341SOL    HW134708   0.331   6.555   4.033 -1.2148  0.0492  0.8112
11341SOL    HW234709   0.334   6.459   4.150 -2.8418 -0.3059  0.5779
11342SOL     OW34710   0.072   3.734   0.771 -0.7012  0.1822 -0.6616
11342SOL    HW134711   0.010   3.788   0.820 -0.4430  0.9543 -1.1734
11342SOL    HW234712   0.148   3.791   0.757  0.9141 -1.2622  1.4527
11343SOL     OW34713   0.517   0.196   1.890 -0.2264 -0.3099  0.3318
11343SOL    HW134714   0.574   0.267   1.921 -2.1380  0.9050  1.2734
11343SOL    HW234715   0.554   0.117   1.929  0.9203  0.4014  0.7417
11344SOL     OW34716   6.754   1.637   3.140 -0.2381 -0.6460 -0.5176
11344SOL    HW134717   6.662   1.664   3.145 -0.4205 -1.4411  1.7988
11344SOL    HW234718   6.779   1.622   3.231  1.6168 -2.3674 -1.2380
11345SOL     OW34719   0.935   6.090   7.044  0.1225 -0.1387  0.0357
11345SOL    HW134720   0.971   6.001   7.034 -1.0353 -0.5468 -0.7101
11345SOL    HW234721   0.862   6.079   7.105  1.3699  0.7362  1.7879
11346SOL     OW34722   5.161   2.548   4.933  0.1072  0.1914 -0.3094
11346SOL    HW134723   5.082   2.525   4.882  0.6929  0.0246 -1.1625
11346SOL    HW234724   5.173   2.642   4.916 -1.4932  0.9210  2.0769
11347SOL     OW34725   3.529   0.896   5.078  0.2221  0.4587  0.1351
11347SOL    HW134726   3.506   0.989   5.080  0.7864  0.8455 -3.6941
11347SOL    HW234727   3.625   0.896   5.077  0.2252 -0.1808  0.3937
11348SOL     OW34728   1.230   4.327   7.298  0.5579  0.0016 -1.1376
11348SOL    HW134729   1.136   4.337   7.315  0.6329 -0.4308 -0.4322
11348SOL    HW234730   1.234   4.272   7.219  0.2245 -0.6315 -0.7201
11349SOL     OW34731   2.768   5.088   1.184 -0.8678 -0.0796 -0.1164
11349SOL    HW134732   2.820   5.041   1.249 -2.3969 -2.1959 -0.3336
11349SOL    HW234733   2.826   5.158   1.154  1.7096 -2.0530 -0.0852
11350SOL     OW34734   7.125   2.220   1.828 -0.3354 -0.6650 -0.6981
11350SOL    HW134735   7.184   2.152   1.861 -1.0205 -0.7214  0.4620
11350SOL    HW234736   7.092   2.185   1.745 -3.2620 -3.3751  1.3808
11351SOL     OW34737   2.365   7.566   0.777 -0.0217 -0.3704  0.9148
11351SOL    HW134738   2.422   7.508   0.726  1.4559  0.8672  1.0825
11351SOL    HW234739   2.419   7.643   0.793 -1.9926  1.1576  0.4966
11352SOL     OW34740   2.719   1.403   5.177 -0.0671  0.0948 -0.1343
11352SOL    HW134741   2.633   1.425   5.140 -0.1344 -0.5484 -0.3808
11352SOL    HW234742   2.699   1.348   5.252  0.1018  0.7123  0.3690
11353SOL     OW34743   6.512   3.048   5.671  0.5896 -0.1905  0.3074
11353SOL    HW134744   6.503   3.043   5.766  2.0982  2.8529  0.7215
11353SOL    HW234745   6.601   3.081   5.657  1.1988 -2.5215 -2.3099
11354SOL     OW34746   2.243   4.703   1.868 -0.3562  0.0866 -0.2800
11354SOL    HW134747   2.228   4.608   1.876  1.6622 -0.3687 -1.2244
11354SOL    HW234748   2.266   4.731   1.956  0.3433 -0.5997 -0.2242
11355SOL     OW34749   5.951   6.146   5.300 -0.0743 -0.3831  0.2392
11355SOL    HW134750   5.949   6.172   5.392 -1.5596  0.8392 -0.0852
11355SOL    HW234751   6.019   6.200   5.261 -2.7684  2.9887 -0.3108
11356SOL     OW34752   3.846   0.116   3.797  0.2038  0.9717 -0.3369
11356SOL    HW134753   3.906   0.087   3.728  1.0731  3.3598 -0.6679
11356SOL    HW234754   3.764   0.132   3.751 -0.5624 -1.5493 -0.0114
11357SOL     OW34755   3.611   4.144   1.130  0.0483 -0.2186  0.1899
11357SOL    HW134756   3.550   4.078   1.163 -1.0402  1.5102  1.8787
11357SOL    HW234757   3.554   4.217   1.105  1.3698  1.4356  1.7698
11358SOL     OW34758   1.437   4.555   4.091  0.1172 -0.2998  0.2700
11358SOL    HW134759   1.397   4.590   4.171  0.2406 -0.6423  0.4830
11358SOL    HW234760   1.491   4.481   4.120  1.3871  0.5151  0.0581
11359SOL     OW34761   3.589   7.337   7.127  0.7299  0.4050  0.2125
11359SOL    HW134762   3.506   7.289   7.125  1.5842 -1.1414  0.0292
11359SOL    HW234763   3.565   7.429   7.116 -0.8961 -0.0873 -0.6035
11360SOL     OW34764   0.517   6.348   3.248 -0.5242  0.5960 -0.8218
11360SOL    HW134765   0.508   6.427   3.196  0.5987  1.9050  0.8596
11360SOL    HW234766   0.436   6.345   3.300 -1.1427 -0.1073 -1.7793
11361SOL     OW34767   5.754   0.458   5.329  0.1946  0.6981 -0.0552
11361SOL    HW134768   5.818   0.477   5.398  0.1719 -0.5005  0.3151
11361SOL    HW234769   5.808   0.431   5.254  0.1421 -0.1886  0.2165
11362SOL     OW34770   0.976   4.269   7.408  0.3775 -0.5160  0.4430
11362SOL    HW134771   0.958   4.332   7.478 -0.1390 -0.4822  0.2878
11362SOL    HW234772   0.890   4.253   7.368  0.8625  0.5216 -1.0854
11363SOL     OW34773   1.071   2.468   2.187  0.4120  0.6242  0.1826
11363SOL    HW134774   1.000   2.494   2.128 -1.6668  2.6393  3.2417
11363SOL    HW234775   1.122   2.547   2.200  0.6706  0.3042  1.2384
11364SOL     OW34776   2.402   0.176   0.453 -0.0963 -0.5748  0.5025
11364SOL    HW134777   2.392   0.241   0.383 -1.3716 -0.9649  0.2768
11364SOL    HW234778   2.312   0.144   0.468  0.0980 -0.2534  2.5724
11365SOL     OW34779   2.358   0.969   7.648 -0.3456 -0.3583 -0.3453
11365SOL    HW134780   2.427   1.017   7.601 -1.4371 -0.0794 -1.7139
11365SOL    HW234781   2.313   1.036   7.700 -0.4532 -0.3045 -0.5095
11366SOL     OW34782   2.582   0.672   3.680  0.6764  0.4125 -0.4708
11366SOL    HW134783   2.625   0.643   3.600  0.2510 -0.6216 -0.3352
11366SOL    HW234784   2.631   0.630   3.750  1.4411  1.8119 -0.1273
11367SOL     OW34785   7.532   2.876   2.408  0.2098 -0.4438  0.2293
11367SOL    HW134786   7.495   2.789   2.395 -0.4340  0.0422 -1.4130
11367SOL    HW234787   7.605   2.882   2.346 -0.8971  0.8061 -1.0233
11368SOL     OW34788   3.807   5.125   7.613 -0.2139 -0.6521 -0.0378
11368SOL    HW134789   3.773   5.051   7.662  2.3916 -1.2931  0.9248
11368SOL    HW234790   3.816   5.092   7.523 -1.0929 -0.7779 -0.0903
11369SOL     OW34791   1.506   5.511   2.651  0.2632 -0.3661  0.0840
11369SOL    HW134792   1.583   5.504   2.595  1.0476  0.2878  1.0468
11369SOL    HW234793   1.472   5.599   2.636 -0.6187 -0.8246 -0.7170
11370SOL     OW34794   6.766   4.479   2.466  0.0061  0.3375  0.1570
11370SOL    HW134795   6.824   4.432   2.527 -0.4412  0.6580  0.8348
11370SOL    HW234796   6.706   4.411   2.434  1.5745 -0.3092 -1.6148
11371SOL     OW34797   5.431   7.739   0.461 -0.5662  0.2594  0.1758
11371SOL    HW134798   5.463   7.703   0.378  0.7982 -0.5200  1.0029
11371SOL    HW234799   5.392   7.663   0.506 -1.6046  0.7461  0.1341
11372SOL     OW34800   7.577   6.241   1.537  0.8915  0.3263  0.5894
11372SOL    HW134801   7.600   6.210   1.449 -0.2373  1.6279 -0.2077
11372SOL    HW234802   7.481   6.251   1.535  0.7452 -0.3617  2.2362
11373SOL     OW34803   6.114   4.074   5.256 -0.0420 -0.8951 -0.5224
11373SOL    HW134804   6.133   4.119   5.174  0.7731 -0.1127  0.0775
11373SOL    HW234805   6.182   4.104   5.316 -0.5218 -1.5931  0.3928
11374SOL     OW34806   6.573   4.075   6.092  0.7456 -0.5149 -0.6552
11374SOL    HW134807   6.602   4.165   6.078 -0.1618 -0.1795 -0.4603
11374SOL    HW234808   6.480   4.076   6.070  0.7683 -1.4520 -0.8395
11375SOL     OW34809   6.679   2.521   5.160  0.1132  0.0681 -0.0026
11375SOL    HW134810   6.737   2.540   5.086  0.1242 -0.7384 -0.2058
11375SOL    HW234811   6.719   2.446   5.203 -1.7492 -1.7342 -1.2498
11376SOL     OW34812   3.679   6.971   5.520  0.3070 -0.3254 -0.5154
11376SOL    HW134813   3.746   6.939   5.459  1.7755  0.5589  0.5491
11376SOL    HW234814   3.682   7.066   5.512 -1.7514 -0.2831 -1.3441
11377SOL     OW34815   6.110   5.777   5.785  0.2992 -0.2060  0.6804
11377SOL    HW134816   6.173   5.845   5.759  0.8862 -1.3616 -1.1304
11377SOL    HW234817   6.163   5.711   5.828  0.1323 -0.6266  0.2455
11378SOL     OW34818   3.237   4.308   3.933 -0.2541 -0.5471 -0.1220
11378SOL    HW134819   3.141   4.308   3.929 -0.2401 -0.4952 -0.4932
11378SOL    HW234820   3.265   4.341   3.847  0.0909 -0.2879  0.0854
11379SOL     OW34821   1.219   4.806   5.180  0.2548  0.3973 -0.2812
11379SOL    HW134822   1.216   4.717   5.145 -0.4246  0.9097 -1.5862
11379SOL    HW234823   1.250   4.795   5.270  0.3678 -1.1328 -0.4781
11380SOL     OW34824   6.705   5.377   4.004  0.2030  0.1530 -0.6154
11380SOL    HW134825   6.729   5.342   4.090 -0.5448  0.4544 -0.2718
11380SOL    HW234826   6.609   5.380   4.006  0.1633 -0.1384 -1.5844
11381SOL     OW34827   5.998   1.424   6.142  0.0457 -0.0209 -0.1032
11381SOL    HW134828   6.021   1.459   6.228 -0.8085 -0.1340  0.1844
11381SOL    HW234829   6.047   1.342   6.135 -1.7066 -1.2582  1.3179
11382SOL     OW34830   6.759   2.783   1.460 -0.1318 -0.2470  0.8382
11382SOL    HW134831   6.739   2.876   1.451 -2.1838 -0.7451 -0.5070
11382SOL    HW234832   6.768   2.752   1.370 -1.0364 -1.6252  1.2008
11383SOL     OW34833   1.499   2.344   0.742  0.2717 -0.3370 -0.2641
11383SOL    HW134834   1.557   2.365   0.816 -0.3198 -0.5142  0.2579
11383SOL    HW234835   1.549   2.280   0.691  0.9187  0.2057 -0.3329
11384SOL     OW34836   6.186   1.979   2.700 -0.7509  0.6035 -0.1185
11384SOL    HW134837   6.225   2.017   2.779  0.4324  0.8704 -0.8012
11384SOL    HW234838   6.179   1.886   2.719 -0.2682  0.6309  0.2313
11385SOL     OW34839   5.864   4.260   4.896  0.3830  0.2161  0.0699
11385SOL    HW134840   5.849   4.187   4.957 -0.6157 -1.3652 -1.9663
11385SOL    HW234841   5.781   4.309   4.897 -0.2713 -0.8343 -1.2997
11386SOL     OW34842   2.328   3.652   5.218  0.2223 -0.2080  0.4199
11386SOL    HW134843   2.344   3.674   5.126  0.1347  0.3128  0.5273
11386SOL    HW234844   2.401   3.692   5.265  1.6573 -2.5366  0.3518
11387SOL     OW34845   4.788   3.494   2.781 -0.2474  0.3850  0.5540
11387SOL    HW134846   4.873   3.463   2.815 -0.0046  0.5791  0.1340
11387SOL    HW234847   4.746   3.415   2.747  1.3186  0.7530 -2.5896
11388SOL     OW34848   0.317   3.264   3.556 -0.4156 -0.0530  0.4537
11388SOL    HW134849   0.350   3.310   3.634  2.2341 -0.0117 -0.5804
11388SOL    HW234850   0.293   3.335   3.496 -0.7640 -0.0727  0.5679
11389SOL     OW34851   2.973   4.287   7.739  0.2198 -0.2565  0.0236
11389SOL    HW134852   2.908   4.217   7.749  0.3820 -0.1824  1.9892
11389SOL    HW234853   2.928   4.366   7.769  1.0419 -0.1236  0.9640
11390SOL     OW34854   2.790   6.839   2.959  0.0161 -0.3541  0.2513
11390SOL    HW134855   2.726   6.836   3.031 -1.1126 -2.6646 -0.7578
11390SOL    HW234856   2.745   6.886   2.889  0.3212  0.0369  0.3122
11391SOL     OW34857   3.660   3.949   6.358  0.0723 -0.6196  0.0867
11391SOL    HW134858   3.711   3.883   6.405  0.8338 -0.3551 -0.3660
11391SOL    HW234859   3.573   3.945   6.399 -0.2608 -2.7108 -0.6743
11392SOL     OW34860   6.726   3.194   3.013  0.3674  0.5506  0.5593
11392SOL    HW134861   6.683   3.125   2.962  0.0886  0.1364  1.3308
11392SOL    HW234862   6.654   3.246   3.049  0.4241 -0.4973  2.3474
11393SOL     OW34863   5.157   6.427   0.287  0.5374 -0.5756  0.5434
11393SOL    HW134864   5.224   6.452   0.223 -0.8328  0.5474 -0.5250
11393SOL    HW234865   5.111   6.354   0.245  1.2512 -1.5680  1.4198
11394SOL     OW34866   2.353   3.598   7.608  0.2360 -0.2387 -0.4336
11394SOL    HW134867   2.331   3.505   7.615 -1.9808  0.3164  1.4215
11394SOL    HW234868   2.276   3.643   7.644  0.6337  2.3964 -2.5453
11395SOL     OW34869   0.190   7.032   7.234  0.1863  0.0241  0.9087
11395SOL    HW134870   0.118   7.095   7.236  0.0526 -0.1283  0.8679
11395SOL    HW234871   0.152   6.954   7.195  1.4037  1.2253 -3.1964
11396SOL     OW34872   3.858   7.489   6.934  0.4071  0.3468 -0.0441
11396SOL    HW134873   3.895   7.446   7.011  0.9214 -0.4227 -0.6992
11396SOL    HW234874   3.769   7.512   6.960  0.4015 -0.3656  0.6184
11397SOL     OW34875   0.230   2.279   4.110 -0.4085  0.1994  0.2612
11397SOL    HW134876   0.149   2.289   4.160  0.0049  1.2454  0.7654
11397SOL    HW234877   0.220   2.196   4.064 -1.7583  0.3104  0.3105
11398SOL     OW34878   0.617   1.718   0.353 -0.0677  0.1213  0.3527
11398SOL    HW134879   0.587   1.673   0.432 -1.5634 -0.0644 -0.2880
11398SOL    HW234880   0.573   1.803   0.355  1.2860  0.8533  0.6018
11399SOL     OW34881   1.836   0.018   4.348  0.7009 -0.1867  0.3869
11399SOL    HW134882   1.852  -0.052   4.285 -0.9635 -0.1316 -0.1653
11399SOL    HW234883   1.868  -0.017   4.431 -1.0545 -2.1038  0.3426
11400SOL     OW34884   5.804   2.492   0.719  0.5334  0.0140  0.3563
11400SOL    HW134885   5.744   2.555   0.757 -0.0117 -1.4705  2.0607
11400SOL    HW234886   5.762   2.407   0.731  2.0130 -0.8689 -0.3378
11401SOL     OW34887   0.296   3.268   5.973  0.0359  0.0187 -0.0100
11401SOL    HW134888   0.293   3.173   5.968 -0.5083  0.0879 -1.4969
11401SOL    HW234889   0.388   3.290   5.962  0.1645 -0.3228  0.3496
11402SOL     OW34890   1.979   0.538   0.120  0.0589  0.5014 -0.0824
11402SOL    HW134891   2.009   0.474   0.185 -1.1255  1.6742  1.7008
11402SOL    HW234892   2.016   0.621   0.148 -0.2220  0.9921 -1.0991
11403SOL     OW34893   5.290   7.327   4.197 -0.5212  0.0725  0.3085
11403SOL    HW134894   5.365   7.354   4.250 -1.3910 -0.1077  1.6691
11403SOL    HW234895   5.219   7.315   4.260 -1.3775 -0.9216 -0.8013
11404SOL     OW34896   6.411   0.347   7.120  0.5128  0.2140 -0.3832
11404SOL    HW134897   6.476   0.369   7.186 -2.6230  1.4186  2.6182
11404SOL    HW234898   6.384   0.432   7.084 -2.5600  0.3771  1.9078
11405SOL     OW34899   0.281   6.929   1.593  0.0976 -0.1473 -0.2924
11405SOL    HW134900   0.355   6.983   1.623 -0.5790  0.3090  0.6226
11405SOL    HW234901   0.282   6.853   1.651  0.2868 -0.5055 -0.7621
11406SOL     OW34902   3.878   2.495   6.365 -0.2669  0.6477  0.7847
11406SOL    HW134903   3.816   2.528   6.299 -0.8200 -1.5638  0.1100
11406SOL    HW234904   3.824   2.470   6.439 -0.6198 -3.1165 -0.5247
11407SOL     OW34905   5.941   5.410   3.670 -0.5661 -0.1964 -0.2736
11407SOL    HW134906   5.907   5.322   3.686 -2.0805  0.3947 -0.0099
11407SOL    HW234907   5.896   5.465   3.734  3.0359  0.3190  2.1148
11408SOL     OW34908   4.692   3.776   6.396  0.4558 -0.4269  0.3778
11408SOL    HW134909   4.747   3.731   6.332  0.9984  0.7190  0.0019
11408SOL    HW234910   4.754   3.821   6.454 -0.0638  0.2587  0.4188
11409SOL     OW34911   4.750   3.241   5.349 -0.1238  0.1608 -0.5745
11409SOL    HW134912   4.766   3.336   5.352  0.5951  0.0363 -0.4523
11409SOL    HW234913   4.675   3.232   5.290 -1.3885  0.9511  0.8390
11410SOL     OW34914   4.499   4.273   1.527  0.6099  0.6023  0.0305
11410SOL    HW134915   4.533   4.322   1.602  1.8445 -1.0839  0.6268
11410SOL    HW234916   4.424   4.224   1.561  1.9092 -1.1273  0.5594
11411SOL     OW34917   4.782   6.653   0.382 -0.4119  0.1510  0.5489
11411SOL    HW134918   4.821   6.739   0.364 -0.3037 -0.1250 -0.6634
11411SOL    HW234919   4.696   6.672   0.419 -0.0276  0.7707  1.1418
11412SOL     OW34920   1.705   1.186   4.176  0.7677 -0.2226 -0.0407
11412SOL    HW134921   1.614   1.213   4.164  0.7249  0.2523  1.2674
11412SOL    HW234922   1.711   1.103   4.129 -0.2772 -0.1399 -0.3482
11413SOL     OW34923   5.281   0.925   4.037 -0.4335  0.4075  0.2314
11413SOL    HW134924   5.239   0.931   4.123 -0.9641 -1.4642  0.1471
11413SOL    HW234925   5.350   0.991   4.039  0.0934 -0.1362  2.4133
11414SOL     OW34926   2.618   7.572   1.099 -0.5666 -0.0869  0.5114
11414SOL    HW134927   2.632   7.612   1.013  0.4715  0.7783  1.0451
11414SOL    HW234928   2.526   7.589   1.119 -1.0140 -0.9393 -0.7283
11415SOL     OW34929   6.389   7.020   3.096  0.0381 -0.4185 -0.1270
11415SOL    HW134930   6.306   7.030   3.050  0.9844  0.8574 -1.6718
11415SOL    HW234931   6.398   6.925   3.109 -0.4647 -0.8073 -2.2742
11416SOL     OW34932   0.031   7.025   2.142  0.2968  0.1284 -0.0841
11416SOL    HW134933  -0.017   7.023   2.059  2.3312 -1.8770 -1.3318
11416SOL    HW234934  -0.000   7.104   2.186 -0.9280  1.2249 -2.6987
11417SOL     OW34935   5.881   6.587   6.759 -0.6702 -0.4067 -0.8552
11417SOL    HW134936   5.850   6.597   6.668 -0.7487 -0.0465 -0.7914
11417SOL    HW234937   5.807   6.548   6.805 -1.1115  0.6136 -0.6644
11418SOL     OW34938   0.450   2.010   3.331 -0.4269 -0.4086  0.5083
11418SOL    HW134939   0.358   2.002   3.305 -0.0837  0.1041 -0.9187
11418SOL    HW234940   0.450   2.077   3.399 -0.8471  1.3698 -1.1554
11419SOL     OW34941   7.745   3.546   7.646 -0.2532  0.0698  0.1865
11419SOL    HW134942   7.702   3.631   7.659  0.4072  0.0512  3.1026
11419SOL    HW234943   7.833   3.568   7.615 -0.2703  0.4105  0.3717
11420SOL     OW34944   5.978   7.407   6.967 -0.4765 -0.4185  0.5176
11420SOL    HW134945   5.995   7.357   7.047 -1.6365 -1.1316  0.3395
11420SOL    HW234946   6.052   7.386   6.909  0.5819  0.4081  1.5128
11421SOL     OW34947   6.316   7.600   4.298 -0.0900 -0.1235 -0.2512
11421SOL    HW134948   6.293   7.623   4.208  1.5534  3.3182  0.0438
11421SOL    HW234949   6.236   7.616   4.348 -0.4699 -0.1242 -0.8462
11422SOL     OW34950   1.281   2.842   1.649  0.2660 -0.8418 -0.1625
11422SOL    HW134951   1.319   2.929   1.665  1.3688 -1.8843  4.2068
11422SOL    HW234952   1.187   2.858   1.640  0.5612  0.8682 -0.5938
11423SOL     OW34953   6.584   3.756   1.237  0.1576  0.2723  0.2055
11423SOL    HW134954   6.489   3.746   1.232  0.2602 -0.3933 -0.6287
11423SOL    HW234955   6.597   3.827   1.301 -0.8222 -0.8045  1.6668
11424SOL     OW34956   6.340   3.698   6.667  0.1602  0.4496  0.5009
11424SOL    HW134957   6.251   3.686   6.699 -1.0374  1.0879 -2.3249
11424SOL    HW234958   6.383   3.748   6.736 -0.4878 -2.8359  3.5857
11425SOL     OW34959   5.962   2.839   6.938 -0.5295  0.5525  0.0566
11425SOL    HW134960   6.018   2.764   6.918 -1.4025 -0.5622  1.6095
11425SOL    HW234961   5.996   2.909   6.882  1.3013 -0.5497 -0.3077
11426SOL     OW34962   2.661   4.174   3.114 -0.0453 -0.1868 -0.1458
11426SOL    HW134963   2.668   4.269   3.101  0.7086 -0.2339 -0.1537
11426SOL    HW234964   2.567   4.156   3.112 -0.1512  0.2553 -2.3841
11427SOL     OW34965   3.954   2.097   6.511 -0.3858 -0.0162 -0.0460
11427SOL    HW134966   3.923   2.072   6.598 -0.8313 -0.1449 -0.2391
11427SOL    HW234967   4.046   2.070   6.510  0.1681  1.6724  1.0433
11428SOL     OW34968   6.712   6.461   1.202 -0.3696  0.1471  0.3926
11428SOL    HW134969   6.657   6.425   1.271  0.2974 -0.0044  0.8523
11428SOL    HW234970   6.703   6.556   1.213  1.2336  0.1723  1.9523
11429SOL     OW34971   3.100   1.253   4.468  0.2076  0.2762 -0.2176
11429SOL    HW134972   3.156   1.331   4.472  2.1089 -0.9779 -0.6927
11429SOL    HW234973   3.129   1.199   4.541  3.2423 -2.5498 -3.1363
11430SOL     OW34974   1.906   0.890   3.177  0.1946 -0.3083 -0.0255
11430SOL    HW134975   1.999   0.889   3.199  0.4325 -0.6479 -0.9995
11430SOL    HW234976   1.861   0.875   3.260  0.9642  1.0066  0.6527
11431SOL     OW34977   3.240   7.586   0.262 -0.3670 -0.7734 -0.9279
11431SOL    HW134978   3.208   7.499   0.238 -1.3265 -1.1372  1.4514
11431SOL    HW234979   3.334   7.573   0.278 -0.1307 -0.9452 -2.3529
11432SOL     OW34980   3.588   6.032   0.525 -0.5011 -0.3075  0.2405
11432SOL    HW134981   3.493   6.046   0.534 -0.0878  1.4984  3.1030
11432SOL    HW234982   3.603   5.944   0.561 -0.9586  0.0503  1.3599
11433SOL     OW34983   1.142   2.072   6.686 -0.3200  0.6288 -0.6359
11433SOL    HW134984   1.096   2.095   6.605  0.8202  0.4441 -1.3633
11433SOL    HW234985   1.224   2.122   6.683 -0.1271  0.3963  0.2634
11434SOL     OW34986   3.111   7.279   2.789 -0.1291  0.6506  0.0374
11434SOL    HW134987   3.058   7.241   2.719  0.7877  0.3500 -0.5023
11434SOL    HW234988   3.074   7.367   2.801 -1.3519  0.1220  0.3295
11435SOL     OW34989   3.191   7.375   0.092  0.0837 -0.4864 -0.4858
11435SOL    HW134990   3.270   7.340   0.050 -0.2939  0.2210 -1.8397
11435SOL    HW234991   3.129   7.302   0.089  0.4988 -0.8791  0.1135
11436SOL     OW34992   2.476   4.946   1.923 -0.5421  0.1543 -0.0071
11436SOL    HW134993   2.547   4.882   1.927 -0.7622 -0.0252  1.2792
11436SOL    HW234994   2.405   4.906   1.973 -0.5481  1.5800  1.1607
11437SOL     OW34995   0.661   6.579   0.143 -0.3306  0.0906  0.4335
11437SOL    HW134996   0.717   6.519   0.192  0.0988  0.4761  0.4207
11437SOL    HW234997   0.686   6.566   0.052 -0.7062 -0.1891  0.3668
11438SOL     OW34998   3.179   2.865   7.127 -0.7958  0.2804 -0.0894
11438SOL    HW134999   3.184   2.880   7.221  0.8454 -1.2582  0.1208
11438SOL    HW235000   3.099   2.812   7.116 -1.4698  1.1935  0.3050
11439SOL     OW35001   0.380   3.442   3.993 -0.4983  0.1507 -0.2841
11439SOL    HW135002   0.314   3.508   3.973  0.6607  0.8448 -2.0240
11439SOL    HW235003   0.331   3.360   4.000 -1.6085  0.7431 -0.8848
11440SOL     OW35004   6.890   3.174   4.204 -0.5153  0.1846  0.3664
11440SOL    HW135005   6.801   3.208   4.209 -0.2531  1.0968 -0.6748
11440SOL    HW235006   6.905   3.161   4.110 -0.2891 -2.0343  0.6492
11441SOL     OW35007   4.845   1.388   2.748 -0.5351  1.0055 -0.7011
11441SOL    HW135008   4.923   1.361   2.796  0.5888  1.3898 -2.2552
11441SOL    HW235009   4.789   1.310   2.748  0.2474  0.4332 -0.3855
11442SOL     OW35010   0.470   2.498   4.088 -0.1993  0.1315  0.1711
11442SOL    HW135011   0.430   2.411   4.098  0.6175  0.0098  3.5194
11442SOL    HW235012   0.399   2.553   4.055 -1.4548 -1.2880  0.3907
11443SOL     OW35013   3.192   6.072   6.732  0.6281 -0.0873  0.0385
11443SOL    HW135014   3.133   6.143   6.708 -1.0503 -0.5994  2.3068
11443SOL    HW235015   3.159   5.996   6.684  0.9738  0.1288 -0.5579
11444SOL     OW35016   4.393   1.978   3.012  0.0545 -0.2440 -0.3727
11444SOL    HW135017   4.441   2.032   2.948  0.7051 -1.7112 -1.1749
11444SOL    HW235018   4.346   2.041   3.066  3.0130  1.3545  0.5917
11445SOL     OW35019   2.669   0.915   2.544 -0.1502  0.0394  0.3029
11445SOL    HW135020   2.743   0.861   2.571 -0.2148  0.0941  0.6030
11445SOL    HW235021   2.679   0.926   2.450  0.4329  0.3575  0.3967
11446SOL     OW35022   7.553   4.590   5.646 -0.2599 -0.1508 -0.2808
11446SOL    HW135023   7.581   4.499   5.661  0.6699  0.1184 -0.3381
11446SOL    HW235024   7.582   4.609   5.557  1.0503  0.7483  0.3216
11447SOL     OW35025   7.488   7.126   5.387  0.0831 -0.0494 -0.4026
11447SOL    HW135026   7.401   7.147   5.353  0.6627  1.2927 -1.1121
11447SOL    HW235027   7.512   7.045   5.342 -0.1488  0.4287 -1.4211
11448SOL     OW35028   3.710   6.977   0.035  0.3784  0.2047  0.1251
11448SOL    HW135029   3.757   6.894   0.047 -1.0846 -0.8416 -1.0467
11448SOL    HW235030   3.729   7.026   0.115  1.3870 -1.2014  0.8058
11449SOL     OW35031   1.303   0.561   7.598 -0.2907 -0.2757  0.0308
11449SOL    HW135032   1.231   0.506   7.630  0.5331 -0.7347  1.1315
11449SOL    HW235033   1.262   0.645   7.580 -0.7513  0.1887  2.7995
11450SOL     OW35034   4.354   6.699   0.676 -0.2350 -0.2344  0.3633
11450SOL    HW135035   4.290   6.765   0.649  0.1540 -0.1368 -0.3693
11450SOL    HW235036   4.378   6.723   0.765  0.1710  0.8500 -0.0147
11451SOL     OW35037   4.766   5.065   4.253  0.5002  0.3699  0.5199
11451SOL    HW135038   4.799   5.059   4.343  2.3984  2.4658  0.0548
11451SOL    HW235039   4.806   5.145   4.218 -1.2764  0.3510 -1.7698
11452SOL     OW35040   1.900   1.604   1.745  0.4487  0.4431 -0.0876
11452SOL    HW135041   1.922   1.569   1.831 -0.9075  1.0146  0.5239
11452SOL    HW235042   1.817   1.649   1.758  0.6031  1.2089 -1.5345
11453SOL     OW35043   5.387   4.338   2.051  0.1612 -0.6756 -0.1672
11453SOL    HW135044   5.315   4.364   2.109  0.7800  0.1321  0.2723
11453SOL    HW235045   5.367   4.380   1.967  0.8969  0.8881  0.3988
11454SOL     OW35046   0.617   6.734   1.623  0.1848 -0.0800 -0.1834
11454SOL    HW135047   0.627   6.667   1.691  1.0153  0.0293 -0.1889
11454SOL    HW235048   0.604   6.685   1.542 -1.7577 -0.2159  0.1578
11455SOL     OW35049   2.421   1.254   2.395  0.2446  0.3524  0.3441
11455SOL    HW135050   2.408   1.324   2.459  1.5812  0.5138  0.4840
11455SOL    HW235051   2.392   1.174   2.439  1.3216  0.4345  1.2560
11456SOL     OW35052   5.568   2.169   1.997 -0.1220  0.2729  0.6543
11456SOL    HW135053   5.554   2.134   2.085 -0.5520  0.8588  0.8308
11456SOL    HW235054   5.483   2.158   1.954  0.0470  0.1184  0.3622
11457SOL     OW35055   3.910   7.632   1.814 -0.0262 -0.6929  0.1395
11457SOL    HW135056   3.982   7.601   1.870  0.6249 -1.2018 -0.9320
11457SOL    HW235057   3.836   7.576   1.837  0.4466 -1.4080 -0.0107
11458SOL     OW35058   0.480   4.682   7.353 -0.6357 -0.5696 -0.1827
11458SOL    HW135059   0.453   4.732   7.276  1.8976 -0.1142 -0.8612
11458SOL    HW235060   0.505   4.748   7.417  0.1158 -0.9533 -0.0706
11459SOL     OW35061   4.723   0.379   5.852 -0.6466  0.1397  0.4293
11459SOL    HW135062   4.812   0.381   5.818 -0.2625  0.6667  1.4163
11459SOL    HW235063   4.705   0.287   5.868  0.7673  0.1899  2.7656
11460SOL     OW35064   1.060   0.804   6.553  0.0164 -0.1260 -0.0588
11460SOL    HW135065   0.969   0.785   6.526  0.6791 -1.8304 -1.3311
11460SOL    HW235066   1.085   0.728   6.606  1.0333 -0.2094 -0.6410
11461SOL     OW35067   3.730   0.181   2.299 -0.1488  0.3308  0.2614
11461SOL    HW135068   3.722   0.099   2.349  0.2053  0.2756  0.2305
11461SOL    HW235069   3.793   0.161   2.230 -2.1307 -0.1958 -1.4750
11462SOL     OW35070   0.129   7.079   6.677 -0.0654 -0.8186 -0.3258
11462SOL    HW135071   0.147   7.086   6.771 -0.3991  0.0587 -0.3184
11462SOL    HW235072   0.081   7.159   6.656  1.8220  0.0462 -1.6599
11463SOL     OW35073   6.570   0.008   3.989  0.2465 -0.0968 -0.4043
11463SOL    HW135074   6.663   0.004   3.968  0.2041  4.2152 -2.5532
11463SOL    HW235075   6.529   0.046   3.911 -3.1945 -0.8342  0.8547
11464SOL     OW35076   6.688   7.167   3.670 -0.1060 -0.1271  0.0633
11464SOL    HW135077   6.732   7.190   3.588 -0.1643  0.7819  0.2708
11464SOL    HW235078   6.600   7.205   3.661 -0.1365 -0.0887  0.5071
11465SOL     OW35079   0.491   1.139   3.389 -0.5577 -0.0464 -0.1878
11465SOL    HW135080   0.571   1.165   3.343 -0.1564  0.2834  0.6883
11465SOL    HW235081   0.424   1.196   3.354 -0.5712 -0.7855 -1.4356
11466SOL     OW35082   4.956   0.449   6.524  0.0766 -0.2832 -0.0061
11466SOL    HW135083   4.990   0.433   6.611 -0.4255  0.2600  0.2963
11466SOL    HW235084   4.861   0.448   6.534  0.0184  0.8778 -0.3336
11467SOL     OW35085   7.630   5.002   6.981 -0.4551 -0.1446  0.7782
11467SOL    HW135086   7.596   5.044   7.060  2.1718 -0.0775  1.9933
11467SOL    HW235087   7.708   4.955   7.011  0.5276 -0.2782 -1.7628
11468SOL     OW35088   3.531   4.745   3.589  0.2740 -0.5056 -0.1311
11468SOL    HW135089   3.626   4.756   3.579  0.4732 -0.4243  1.6106
11468SOL    HW235090   3.519   4.720   3.681 -1.3437 -1.1986 -0.4977
11469SOL     OW35091   1.224   7.639   1.468  0.0377 -0.0003 -0.4086
11469SOL    HW135092   1.245   7.715   1.413  0.4958  1.0767  1.1985
11469SOL    HW235093   1.135   7.614   1.440  0.2340  0.5404 -1.5852
11470SOL     OW35094   0.015   1.444   0.919  0.3280 -0.0182  0.3528
11470SOL    HW135095   0.046   1.379   0.856 -1.0818 -0.7122  0.3352
11470SOL    HW235096  -0.080   1.442   0.910  0.1863  0.9761  1.4322
11471SOL     OW35097   1.371   1.511   6.654 -0.2070  0.2245  0.1654
11471SOL    HW135098   1.311   1.511   6.580 -1.5381 -0.7219  1.1887
11471SOL    HW235099   1.452   1.473   6.619 -0.7562 -0.0547 -0.8410
11472SOL     OW35100   0.566   7.379   4.072  0.4553 -0.7857  0.1526
11472SOL    HW135101   0.643   7.370   4.128 -0.5955  1.8968  2.2662
11472SOL    HW235102   0.601   7.396   3.985  2.2824 -0.1797  0.9514
11473SOL     OW35103   1.390   0.478   1.302 -0.1760  0.1378 -0.1600
11473SOL    HW135104   1.466   0.420   1.293  0.0275  0.5548 -1.3042
11473SOL    HW235105   1.316   0.427   1.269 -0.1740  0.1955 -0.2513
11474SOL     OW35106   2.641   7.718   2.705 -0.0984  0.2059  0.3396
11474SOL    HW135107   2.637   7.799   2.654 -0.5414  0.1778  0.3284
11474SOL    HW235108   2.625   7.745   2.795  1.8884  0.4315  0.6703
11475SOL     OW35109   3.016   3.151   3.053  0.5836  0.4656 -0.3862
11475SOL    HW135110   2.931   3.152   3.098 -0.5274  1.2062 -2.3574
11475SOL    HW235111   3.080   3.141   3.123 -1.0685  0.8560  1.2714
11476SOL     OW35112   2.741   2.758   7.251 -0.6618 -0.0057 -0.5606
11476SOL    HW135113   2.794   2.693   7.297  0.3959  1.3624  0.2452
11476SOL    HW235114   2.695   2.708   7.184 -2.8370 -2.2755  2.3160
11477SOL     OW35115   4.297   4.463   5.323 -0.2169  0.2368 -0.1671
11477SOL    HW135116   4.342   4.547   5.321  1.0222 -0.4083 -1.6327
11477SOL    HW235117   4.284   4.441   5.230  0.3423 -1.6115  0.1598
11478SOL     OW35118   6.805   5.016   1.483 -0.2476  0.1527  0.0029
11478SOL    HW135119   6.774   5.068   1.409  0.2768 -0.1023 -0.4032
11478SOL    HW235120   6.818   5.080   1.553  1.0774  0.6935 -0.7121
11479SOL     OW35121   3.840   1.288   4.197 -0.8712  0.2574  0.7058
11479SOL    HW135122   3.835   1.221   4.129 -1.0984  1.6644 -0.7216
11479SOL    HW235123   3.755   1.285   4.241 -0.7357 -0.6346  0.9294
11480SOL     OW35124   7.760   0.279   2.603  0.6836 -0.3273 -0.0703
11480SOL    HW135125   7.779   0.229   2.523  0.9533  0.9617 -0.8363
11480SOL    HW235126   7.700   0.347   2.575 -0.5848 -0.8747  1.1975
11481SOL     OW35127   1.108   5.522   0.015  0.0284  0.5127 -0.0370
11481SOL    HW135128   1.161   5.535  -0.064 -1.5034  2.7035 -0.7877
11481SOL    HW235129   1.151   5.575   0.082  0.3055  0.0711  0.1480
11482SOL     OW35130   5.148   3.939   5.772 -0.5115  0.0258 -0.7758
11482SOL    HW135131   5.072   3.899   5.814  0.2463  0.7139  1.4086
11482SOL    HW235132   5.147   4.030   5.803  0.8277  0.2082 -1.2224
11483SOL     OW35133   4.671   7.009   0.545  0.0865 -0.3926  0.2400
11483SOL    HW135134   4.757   6.968   0.531 -0.1879 -1.8280  2.3803
11483SOL    HW235135   4.632   7.013   0.458  1.2472 -2.1911 -0.4073
11484SOL     OW35136   1.976   6.568   0.948 -0.0230  0.2330 -0.0964
11484SOL    HW135137   1.937   6.616   0.875  0.7125  3.0740  1.2326
11484SOL    HW235138   2.069   6.563   0.926 -0.2244 -1.4386 -0.6338
11485SOL     OW35139   5.193   5.448   2.715 -0.2005 -0.2439  0.2343
11485SOL    HW135140   5.236   5.363   2.707 -0.4419 -0.4159  0.7338
11485SOL    HW235141   5.117   5.432   2.770  0.0646  0.4071  0.8083
11486SOL     OW35142   5.133   7.320   0.646  0.2147 -0.1307  0.4781
11486SOL    HW135143   5.194   7.254   0.678  1.9818  0.1735 -2.0066
11486SOL    HW235144   5.069   7.271   0.594 -1.1767 -0.3185  2.2439
11487SOL     OW35145   0.536   6.067   0.298 -0.3667 -0.4622  0.1759
11487SOL    HW135146   0.521   5.988   0.246  0.2849  0.1793 -1.0279
11487SOL    HW235147   0.619   6.101   0.266 -1.0976  1.2369 -0.0203
11488SOL     OW35148   5.808   1.604   3.223  0.2322  0.1091  0.2195
11488SOL    HW135149   5.768   1.690   3.236 -0.7676  0.0342 -1.9215
11488SOL    HW235150   5.746   1.542   3.261 -0.8691  0.1370 -1.3983
11489SOL     OW35151   0.830   7.282   4.160 -0.6492  0.3619 -0.2944
11489SOL    HW135152   0.894   7.307   4.094 -1.3865  0.6020 -0.9207
11489SOL    HW235153   0.856   7.194   4.186  0.2888  0.6812 -0.1043
11490SOL     OW35154   5.825   4.406   5.911  0.5964  0.0527  0.2848
11490SOL    HW135155   5.778   4.468   5.855  1.4905  0.0375 -0.5082
11490SOL    HW235156   5.772   4.402   5.991 -0.5753  0.2723 -0.4410
11491SOL     OW35157   1.892   7.066   0.712  0.4186  0.6007 -0.6878
11491SOL    HW135158   1.943   6.986   0.723  0.8769  0.7923 -1.3781
11491SOL    HW235159   1.847   7.077   0.796 -0.1478 -0.7148 -0.7957
11492SOL     OW35160   1.146   5.483   2.288  0.8392  0.5277  0.3597
11492SOL    HW135161   1.112   5.443   2.208  0.8325  1.5172 -0.1488
11492SOL    HW235162   1.241   5.486   2.275  0.7979  1.1629  0.1468
11493SOL     OW35163   1.706   1.749   2.384  0.2484 -0.3340 -0.0161
11493SOL    HW135164   1.760   1.684   2.429  0.0384 -0.0447  0.6766
11493SOL    HW235165   1.626   1.702   2.361  0.4307 -0.5320 -0.2502
11494SOL     OW35166   1.844   2.351   3.765  0.2211 -0.2749  0.3627
11494SOL    HW135167   1.767   2.365   3.820  0.2916 -0.5145  0.5241
11494SOL    HW235168   1.902   2.296   3.818 -0.2383 -1.5720 -0.4452
11495SOL     OW35169   5.808   5.757   3.137 -0.3196  0.2217  0.0631
11495SOL    HW135170   5.737   5.791   3.082 -0.6130  1.1711  0.9915
11495SOL    HW235171   5.833   5.831   3.192 -0.7562 -0.9409  1.9269
11496SOL     OW35172   4.789   0.259   7.246  0.9023  0.0158 -0.0101
11496SOL    HW135173   4.820   0.169   7.257  1.3761 -0.0782 -1.8363
11496SOL    HW235174   4.869   0.310   7.234  0.5627  0.3958 -0.7105
11497SOL     OW35175   6.006   3.999   7.489  0.4271  0.4548  0.2829
11497SOL    HW135176   6.063   4.035   7.557  0.5932 -1.4662  1.2202
11497SOL    HW235177   5.930   4.058   7.487 -0.0297  0.0548  2.8132
11498SOL     OW35178   5.685   0.955   3.165 -0.6220  0.0406 -0.1489
11498SOL    HW135179   5.617   0.901   3.205 -0.3933 -0.5872 -0.5861
11498SOL    HW235180   5.651   0.975   3.077 -0.4439  0.1091 -0.2027
11499SOL     OW35181   6.278   3.022   3.217  0.0567 -0.1024  0.0300
11499SOL    HW135182   6.364   2.982   3.209 -0.2521 -0.4915 -1.7620
11499SOL    HW235183   6.288   3.088   3.286  1.6880 -0.3644  0.0785
11500SOL     OW35184   6.228   1.600   1.838 -0.3365  0.4319 -0.2408
11500SOL    HW135185   6.303   1.549   1.808 -0.3458  1.2025 -1.6471
11500SOL    HW235186   6.181   1.540   1.896  1.2597 -0.1108  0.5427
11501SOL     OW35187   2.516   3.115   6.240  0.1944  0.5544 -0.1509
11501SOL    HW135188   2.456   3.178   6.279  0.2238  0.3930  0.1554
11501SOL    HW235189   2.507   3.037   6.295 -0.4744 -0.0031 -1.0229
11502SOL     OW35190   1.733   1.820   1.757  0.4754 -0.0023  0.1308
11502SOL    HW135191   1.692   1.808   1.843  0.6020  0.4968  0.2659
11502SOL    HW235192   1.717   1.912   1.736 -1.8183 -0.7011 -1.5725
11503SOL     OW35193   4.638   2.421   3.363 -0.2298  0.0021 -0.3103
11503SOL    HW135194   4.591   2.358   3.418  1.2564 -1.0699 -0.1956
11503SOL    HW235195   4.629   2.386   3.274  0.8088 -0.5599 -0.2163
11504SOL     OW35196   4.122   2.418   1.942  0.2656 -0.4590  0.5730
11504SOL    HW135197   4.078   2.333   1.934 -0.7112  0.0960 -0.4577
11504SOL    HW235198   4.133   2.447   1.851 -1.5445  1.5304  0.9126
11505SOL     OW35199   4.747   5.910   1.572  0.1948  0.3149  0.9505
11505SOL    HW135200   4.806   5.971   1.616 -1.0284  1.0936  1.5736
11505SOL    HW235201   4.715   5.853   1.642  0.1240 -0.0304  0.6402
11506SOL     OW35202   3.707   4.607   6.064 -0.2043 -0.9366  0.2870
11506SOL    HW135203   3.780   4.599   6.003  0.5967  1.1107  0.8813
11506SOL    HW235204   3.734   4.555   6.140  1.4671  1.0411  1.1572
11507SOL     OW35205   7.764   5.791   7.468  0.3538  0.2304  0.1330
11507SOL    HW135206   7.715   5.869   7.495  1.3147  1.7680 -2.2259
11507SOL    HW235207   7.775   5.740   7.548 -1.3460  1.9181  1.5311
11508SOL     OW35208   3.851   4.280   5.833 -0.0717 -0.2532  0.2583
11508SOL    HW135209   3.881   4.371   5.840 -0.6308 -0.0712  0.3902
11508SOL    HW235210   3.911   4.230   5.889  0.0638  0.0765  0.4100
11509SOL     OW35211   0.746   1.637   4.921  0.1580 -0.2290 -0.2356
11509SOL    HW135212   0.778   1.642   5.012  0.2270  0.1760 -0.2821
11509SOL    HW235213   0.653   1.659   4.927  0.0794 -0.5578 -0.2171
11510SOL     OW35214   1.010   3.258   3.755  0.4958 -0.3321 -0.3328
11510SOL    HW135215   1.023   3.207   3.675  1.2858 -1.8789  0.7215
11510SOL    HW235216   0.923   3.296   3.745  1.0914  0.6387 -2.4885
11511SOL     OW35217   7.369   3.124   6.744  0.2275 -0.1298  0.4849
11511SOL    HW135218   7.437   3.067   6.708 -0.1026 -0.4167  0.3033
11511SOL    HW235219   7.413   3.175   6.812  0.2043 -1.7079  1.7389
11512SOL     OW35220   0.142   5.233   7.174 -0.2142  0.1921  0.0572
11512SOL    HW135221   0.072   5.278   7.126 -0.5894 -0.3424  0.1024
11512SOL    HW235222   0.189   5.304   7.219  0.7015  0.8345 -1.7880
11513SOL     OW35223   0.665   3.017   5.019 -0.3131  0.0141 -0.3201
11513SOL    HW135224   0.587   3.056   5.058 -0.4014  0.9118 -1.3470
11513SOL    HW235225   0.653   3.028   4.925  0.5581 -0.8074 -0.5397
11514SOL     OW35226   4.332   2.405   0.128 -0.0701  0.6949  0.1222
11514SOL    HW135227   4.257   2.407   0.187 -0.5746  0.7068 -0.5046
11514SOL    HW235228   4.316   2.331   0.070 -0.3063  1.5119 -0.9026
11515SOL     OW35229   6.928   6.869   5.656  0.5773  0.0293  0.4116
11515SOL    HW135230   6.980   6.852   5.735  0.6403 -0.6691  0.2299
11515SOL    HW235231   6.912   6.782   5.620  0.8336  0.3655 -0.5275
11516SOL     OW35232   5.644   5.019   6.433  0.4949 -0.2851 -0.0242
11516SOL    HW135233   5.582   5.083   6.467  0.5089 -0.8421  1.1047
11516SOL    HW235234   5.687   5.063   6.360 -1.2711  0.0856 -0.8915
11517SOL     OW35235   4.222   6.547   6.574 -0.0699 -0.5762 -0.1443
11517SOL    HW135236   4.309   6.519   6.599  1.0191  1.3098 -1.4816
11517SOL    HW235237   4.193   6.604   6.646  0.2166 -0.4616 -0.1174
11518SOL     OW35238   5.024   4.133   7.454  0.2244  0.1237  0.1092
11518SOL    HW135239   5.019   4.121   7.549  1.3883 -1.1400  0.0507
11518SOL    HW235240   5.117   4.130   7.435 -0.0525 -1.5758 -1.2646
11519SOL     OW35241   2.043   1.368   5.590 -0.2136 -0.2293 -0.4492
11519SOL    HW135242   2.116   1.309   5.604 -0.5758  0.0409  3.8627
11519SOL    HW235243   2.083   1.455   5.581  0.0598 -0.2258  0.7304
11520SOL     OW35244   5.611   1.160   2.045 -0.1006  0.3313 -0.4989
11520SOL    HW135245   5.523   1.199   2.045  0.8185  2.5741 -1.9926
11520SOL    HW235246   5.614   1.110   1.963 -0.2094 -0.3793 -0.0794
11521SOL     OW35247   0.706   0.508   1.672  0.3050 -0.2166 -0.0255
11521SOL    HW135248   0.638   0.463   1.622 -0.9953  0.6008  0.9445
11521SOL    HW235249   0.788   0.481   1.630 -0.6795  0.1104 -2.3266
11522SOL     OW35250   4.211   5.952   3.534 -0.2683 -0.3520 -0.2304
11522SOL    HW135251   4.175   5.942   3.446 -0.3293  1.0979 -0.3882
11522SOL    HW235252   4.179   5.876   3.582  0.2741 -1.5140 -1.6133
11523SOL     OW35253   5.313   2.341   2.588 -0.5021 -0.3484 -0.1082
11523SOL    HW135254   5.346   2.411   2.644  0.2719 -0.8340  0.0750
11523SOL    HW235255   5.220   2.358   2.579 -0.0516  1.6435 -1.4523
11524SOL     OW35256   5.552   4.019   1.156 -0.7534  0.5279 -0.3535
11524SOL    HW135257   5.644   3.993   1.149 -0.6961  0.8172 -0.6856
11524SOL    HW235258   5.504   3.945   1.120 -0.5327  1.3796 -2.5469
11525SOL     OW35259   4.851   6.703   7.186 -0.1115  0.1717 -0.4026
11525SOL    HW135260   4.900   6.642   7.132 -0.9574 -0.3325 -0.6176
11525SOL    HW235261   4.873   6.790   7.151  0.6305 -0.0402 -0.4754
11526SOL     OW35262   3.092   2.826   6.033  0.1135 -0.4955  0.1604
11526SOL    HW135263   3.126   2.739   6.011 -1.3010 -1.1602  0.4473
11526SOL    HW235264   3.169   2.877   6.057  1.1331 -1.2744 -1.2713
11527SOL     OW35265   4.134   1.864   1.399  1.0280  0.8380 -0.3076
11527SOL    HW135266   4.191   1.921   1.346 -0.3778 -0.0343 -2.9329
11527SOL    HW235267   4.177   1.779   1.398  0.7983  0.7218 -0.3985
11528SOL     OW35268   3.259   3.230   2.582  0.0211 -0.5471  0.5003
11528SOL    HW135269   3.212   3.151   2.558 -1.2556  0.5449 -0.7927
11528SOL    HW235270   3.264   3.227   2.678 -1.0946 -1.5960  0.5488
11529SOL     OW35271   5.030   0.266   0.634  0.2798  0.0763 -0.0179
11529SOL    HW135272   5.061   0.356   0.629  0.6588  0.0947  1.9310
11529SOL    HW235273   5.099   0.214   0.592  0.7470  0.5502  0.1570
11530SOL     OW35274   3.189   1.188   3.025 -0.0006 -0.4702 -0.3971
11530SOL    HW135275   3.160   1.099   3.046  1.4158 -0.5730  1.3885
11530SOL    HW235276   3.108   1.239   3.019 -0.9468 -2.0827 -2.8738
11531SOL     OW35277   6.246   1.033   6.584 -0.0005 -0.3820 -0.0690
11531SOL    HW135278   6.262   0.939   6.580  1.7789 -0.1804  1.2452
11531SOL    HW235279   6.291   1.069   6.508  0.0872 -0.5149 -0.0792
11532SOL     OW35280   7.681   1.144   5.656 -0.0534 -0.3554  0.0506
11532SOL    HW135281   7.659   1.162   5.748  1.8720 -0.3378  0.5376
11532SOL    HW235282   7.725   1.059   5.659 -0.4616 -0.6120 -0.9467
11533SOL     OW35283   5.300   7.129   0.720  0.9317 -0.2467 -0.0857
11533SOL    HW135284   5.305   7.073   0.643  0.0067 -1.1630  0.5075
11533SOL    HW235285   5.320   7.071   0.794  0.5426  0.3299  0.4853
11534SOL     OW35286   0.573   1.379   6.387 -0.3407 -0.3556 -0.3618
11534SOL    HW135287   0.584   1.469   6.417 -0.2672 -1.0949  2.0025
11534SOL    HW235288   0.604   1.380   6.296 -0.8657  2.0961 -0.5731
11535SOL     OW35289   3.019   2.996   2.397 -0.2026  0.0462 -0.4943
11535SOL    HW135290   2.942   3.000   2.454 -0.8963 -1.0672 -1.3201
11535SOL    HW235291   3.092   2.981   2.457 -1.0709 -2.4395  0.0647
11536SOL     OW35292   6.512   1.111   0.772 -0.1786  0.0308  0.7170
11536SOL    HW135293   6.593   1.156   0.746  0.1486 -0.7502  0.3697
11536SOL    HW235294   6.521   1.098   0.866 -0.6274  1.3882  0.9650
11537SOL     OW35295   3.502   3.404   3.939 -0.4129 -0.1995 -0.6098
11537SOL    HW135296   3.459   3.482   3.905  0.9597 -0.0223 -2.0640
11537SOL    HW235297   3.573   3.437   3.993  0.4425 -0.4110 -1.5830
11538SOL     OW35298   6.022   5.405   5.689 -0.2261  0.5272 -0.0519
11538SOL    HW135299   6.003   5.336   5.753 -0.4573  0.4037 -0.2553
11538SOL    HW235300   5.946   5.408   5.632 -1.1118  2.3137  1.1323
11539SOL     OW35301   1.480   0.982   6.155 -0.0343  0.3827  0.1469
11539SOL    HW135302   1.470   0.952   6.246 -2.4445 -1.5058 -0.6375
11539SOL    HW235303   1.532   0.914   6.112 -0.4795  0.3086 -0.2871
11540SOL     OW35304   5.963   6.032   5.827 -0.5516  0.3895  0.1247
11540SOL    HW135305   5.940   6.035   5.919 -0.1670  2.0657  0.1966
11540SOL    HW235306   5.979   5.939   5.809 -1.9210 -0.1232  1.3925
11541SOL     OW35307   3.688   2.223   4.144 -0.3599 -0.1698  0.9034
11541SOL    HW135308   3.626   2.265   4.202 -2.3889 -0.4141 -0.9327
11541SOL    HW235309   3.647   2.139   4.122  0.8702 -0.5819  0.0411
11542SOL     OW35310   3.948   1.461   4.871  0.5578 -0.4629  0.6227
11542SOL    HW135311   3.957   1.554   4.893  0.5745 -0.2213 -0.3494
11542SOL    HW235312   4.027   1.420   4.906  0.5901 -0.0985  0.9859
11543SOL     OW35313   2.789   5.464   0.807  0.0462  0.0858 -0.3907
11543SOL    HW135314   2.802   5.377   0.770  2.2164  0.0772  0.2440
11543SOL    HW235315   2.766   5.448   0.899 -1.5960  0.1760 -0.7608
11544SOL     OW35316   4.853   5.204   1.385  0.8823 -0.6244 -0.0354
11544SOL    HW135317   4.814   5.231   1.468  2.0209  1.6797 -0.1581
11544SOL    HW235318   4.910   5.277   1.360  0.6416 -1.2618 -2.8126
11545SOL     OW35319   2.655   1.573   2.161 -0.0482 -0.4035  0.3500
11545SOL    HW135320   2.615   1.647   2.206  1.0207 -0.5694  1.6467
11545SOL    HW235321   2.666   1.507   2.230  1.7581 -0.6175 -0.1097
11546SOL     OW35322   1.289   6.512   7.485  0.5744  0.1464  0.3242
11546SOL    HW135323   1.305   6.506   7.391  1.1485 -0.6764  0.4734
11546SOL    HW235324   1.195   6.494   7.494  0.9130 -1.8710  0.1004
11547SOL     OW35325   5.783   0.646   3.169 -0.4649 -0.2077 -0.7755
11547SOL    HW135326   5.703   0.599   3.146 -1.2700  0.0380  1.2814
11547SOL    HW235327   5.798   0.704   3.095 -0.8833 -1.8499 -2.2274
11548SOL     OW35328   4.796   4.116   5.342 -0.3195  0.5632 -0.0308
11548SOL    HW135329   4.875   4.119   5.288 -0.5890  2.3827 -0.4054
11548SOL    HW235330   4.724   4.126   5.279 -0.6853  1.6956  0.5454
11549SOL     OW35331   2.429   3.237   5.547  0.2435 -0.8409  0.0226
11549SOL    HW135332   2.472   3.293   5.611  1.0578 -1.6097  0.1618
11549SOL    HW235333   2.335   3.251   5.562  0.4242 -0.6646  1.0715
11550SOL     OW35334   4.234   1.448   5.310  0.1579  0.7539 -0.1821
11550SOL    HW135335   4.308   1.503   5.335  0.5676  2.0625 -3.8376
11550SOL    HW235336   4.159   1.507   5.306 -0.7208 -0.1598  1.3552
11551SOL     OW35337   6.713   5.300   6.711  0.2870 -0.1044 -0.2357
11551SOL    HW135338   6.808   5.310   6.709  0.1099  1.8860 -0.3347
11551SOL    HW235339   6.683   5.335   6.627 -0.4839 -1.8142 -0.7162
11552SOL     OW35340   1.582   6.067   4.721  0.2874  0.4429 -0.0838
11552SOL    HW135341   1.598   5.975   4.741  0.7227  0.9742  2.3119
11552SOL    HW235342   1.636   6.085   4.644 -0.0340 -1.3534 -0.7660
11553SOL     OW35343   5.765   5.310   1.035  0.2805  0.0626 -0.1869
11553SOL    HW135344   5.737   5.243   1.097  0.6565 -0.1172 -0.2094
11553SOL    HW235345   5.854   5.332   1.062  0.4897 -0.0974 -0.7271
11554SOL     OW35346   5.163   4.543   0.600 -0.1076 -0.6263 -0.2871
11554SOL    HW135347   5.151   4.624   0.549  2.0758  2.2387  3.2725
11554SOL    HW235348   5.086   4.538   0.657  0.4290 -0.1995  0.4908
11555SOL     OW35349   2.306   7.196   7.355  0.0510 -0.5204  0.0195
11555SOL    HW135350   2.392   7.162   7.330  0.2039  0.8599 -1.4414
11555SOL    HW235351   2.256   7.197   7.274 -0.8214  0.1872  0.5523
11556SOL     OW35352   3.569   3.825   6.993  0.1472 -0.3972  0.0629
11556SOL    HW135353   3.630   3.751   6.987  0.0635 -0.4614  0.0006
11556SOL    HW235354   3.612   3.887   7.052 -0.4000 -1.0938  1.2422
11557SOL     OW35355   0.373   5.468   4.471 -0.1130  0.2363  0.1575
11557SOL    HW135356   0.424   5.509   4.401  2.0922 -1.7331  0.4728
11557SOL    HW235357   0.305   5.419   4.426 -0.6210  1.4219 -0.3990
11558SOL     OW35358   2.300   4.862   2.110 -0.3806  0.2212  0.1238
11558SOL    HW135359   2.314   4.946   2.153  0.4281  0.5924 -0.8124
11558SOL    HW235360   2.260   4.806   2.177 -2.2052  1.7274  0.3762
11559SOL     OW35361   0.252   6.341   0.200 -0.2141  0.3303 -0.1566
11559SOL    HW135362   0.280   6.432   0.211  1.2433  0.1496 -1.8088
11559SOL    HW235363   0.288   6.295   0.275 -1.1578  1.1466  0.8150
11560SOL     OW35364   2.061   6.930   1.208  0.1441 -0.1218  0.2490
11560SOL    HW135365   1.995   6.862   1.191 -0.8085  0.3923  1.6949
11560SOL    HW235366   2.042   6.960   1.297 -0.7543  3.4323 -0.9779
11561SOL     OW35367   1.525   6.588   0.987 -0.3756  0.1257 -0.3141
11561SOL    HW135368   1.452   6.527   0.981 -0.8646  0.8026 -1.5866
11561SOL    HW235369   1.577   6.572   0.908  0.1298  0.5413 -0.0763
11562SOL     OW35370   3.997   5.917   3.372 -0.3109 -0.4616 -0.5073
11562SOL    HW135371   3.997   5.822   3.382  0.9467 -0.3960  0.2591
11562SOL    HW235372   3.944   5.949   3.446 -0.3638 -0.5365 -0.5127
11563SOL     OW35373   3.819   2.582   2.057 -0.2907 -0.6797 -0.6229
11563SOL    HW135374   3.900   2.531   2.051  0.6964  0.8287 -0.5712
11563SOL    HW235375   3.759   2.526   2.107  1.1452 -1.3123  0.4604
11564SOL     OW35376   7.381   6.768   2.679 -0.7649 -0.2656  0.0430
11564SOL    HW135377   7.436   6.840   2.710 -0.8615  0.6014 -1.6247
11564SOL    HW235378   7.384   6.703   2.748 -0.4097  1.2115  1.4776
11565SOL     OW35379   0.461   2.943   5.400 -0.1112 -0.0694  0.1564
11565SOL    HW135380   0.430   2.978   5.484  2.6548  0.0031  1.2425
11565SOL    HW235381   0.431   2.853   5.400 -1.3351  0.3181  0.5678
11566SOL     OW35382   4.026   2.380   1.609  0.1665  0.3452 -0.1829
11566SOL    HW135383   3.992   2.334   1.532  0.0275 -0.1607  0.1722
11566SOL    HW235384   4.058   2.310   1.666 -2.1231  0.4784  1.3776
11567SOL     OW35385   3.210   5.534   4.952  0.3411 -0.3059  0.5976
11567SOL    HW135386   3.126   5.496   4.977  0.5397 -2.2829 -1.4390
11567SOL    HW235387   3.256   5.464   4.906  2.4808  1.1931  0.2845
11568SOL     OW35388   6.889   7.614   5.322 -0.3028 -0.2052  0.7867
11568SOL    HW135389   6.897   7.531   5.369  0.3725  0.2673  1.5359
11568SOL    HW235390   6.926   7.679   5.382  0.0967  0.4895 -0.1873
11569SOL     OW35391   7.373   2.558   6.364 -0.2139  0.1419  0.2819
11569SOL    HW135392   7.291   2.594   6.397 -0.1341  2.2249 -1.6012
11569SOL    HW235393   7.413   2.629   6.313  2.1129 -1.2397  0.0002
11570SOL     OW35394   2.823   3.905   1.374  0.4436 -0.4248 -0.0903
11570SOL    HW135395   2.804   3.878   1.464 -0.1986  2.0483  0.6051
11570SOL    HW235396   2.737   3.927   1.337  0.7455 -1.0280 -1.1891
11571SOL     OW35397   5.461   4.422   0.928 -0.1277  0.0715 -0.3330
11571SOL    HW135398   5.486   4.375   1.007 -1.9014  0.5439  0.5510
11571SOL    HW235399   5.403   4.491   0.958 -0.2960  0.6984 -1.9851
11572SOL     OW35400   0.628   5.131   5.439  0.2525  0.0302  0.3402
11572SOL    HW135401   0.633   5.097   5.528 -1.2745 -0.5949  0.2283
11572SOL    HW235402   0.718   5.135   5.409  1.0149  2.1146  2.5648
11573SOL     OW35403   6.779   2.002   5.563 -0.3471 -0.7256  0.3429
11573SOL    HW135404   6.713   2.063   5.598  0.0452 -1.0307  1.6833
11573SOL    HW235405   6.828   2.054   5.500 -1.0367 -0.1132  0.2954
11574SOL     OW35406   4.858   5.598   3.032 -0.3430  0.0891 -0.1712
11574SOL    HW135407   4.767   5.625   3.042 -0.3654  0.7120 -1.7785
11574SOL    HW235408   4.907   5.657   3.088 -0.8520  0.2604  0.0978
11575SOL     OW35409   1.295   0.519   4.699 -0.1388  0.1751  0.1206
11575SOL    HW135410   1.315   0.469   4.779  1.4306 -0.1825 -0.4572
11575SOL    HW235411   1.266   0.452   4.637 -0.0727  0.2690 -0.0095
11576SOL     OW35412   2.837   6.406   2.853  0.1265 -0.4404  0.0384
11576SOL    HW135413   2.904   6.412   2.785 -0.2973 -2.6390 -0.6746
11576SOL    HW235414   2.854   6.322   2.896 -0.8743 -0.0409  1.2715
11577SOL     OW35415   1.934   1.194   3.795 -0.4959 -0.4204 -0.0944
11577SOL    HW135416   1.928   1.100   3.811 -0.3503 -0.7980 -2.0121
11577SOL    HW235417   1.846   1.227   3.816 -0.5437 -0.9673  0.6048
11578SOL     OW35418   1.384   0.126   5.815 -0.4021  0.3416 -0.0832
11578SOL    HW135419   1.387   0.108   5.909 -1.3539 -1.6529 -0.3906
11578SOL    HW235420   1.468   0.096   5.782 -0.4766  0.0682 -0.0241
11579SOL     OW35421   1.996   5.247   6.300  0.0416  0.0890 -0.0341
11579SOL    HW135422   2.078   5.223   6.257 -1.5213 -0.0509 -3.2674
11579SOL    HW235423   1.935   5.176   6.276 -1.8865  1.8690 -0.6960
11580SOL     OW35424   4.907   0.823   0.487 -0.2208 -0.3297 -0.1487
11580SOL    HW135425   4.953   0.858   0.410  2.1429 -0.8081  0.9561
11580SOL    HW235426   4.837   0.769   0.450  1.5770 -1.5437 -2.0436
11581SOL     OW35427   4.529   2.542   4.421  0.2008 -0.5077 -0.1688
11581SOL    HW135428   4.512   2.567   4.330  0.5067 -1.6525 -0.5611
11581SOL    HW235429   4.540   2.447   4.417  0.8893 -0.4852  0.9646
11582SOL     OW35430   5.692   3.135   6.952  0.4279 -0.2107  0.3429
11582SOL    HW135431   5.734   3.216   6.981 -0.1610  0.6644 -1.1738
11582SOL    HW235432   5.611   3.162   6.910 -0.4088 -1.6944  0.9152
11583SOL     OW35433   3.930   3.997   3.748  0.4027 -0.3687 -0.7865
11583SOL    HW135434   3.871   3.939   3.701  0.0646 -0.9236  0.2831
11583SOL    HW235435   3.991   3.938   3.793  0.1552  0.0978  0.1858
11584SOL     OW35436   5.485   5.617   3.981 -0.1824  0.0587 -0.0476
11584SOL    HW135437   5.416   5.664   3.936  0.7984  2.3100  0.6506
11584SOL    HW235438   5.461   5.621   4.074  1.3339  1.8360  0.3311
11585SOL     OW35439   6.848   6.678   5.962  0.0435  0.0104 -0.0826
11585SOL    HW135440   6.929   6.641   5.928 -0.1762 -0.8133  0.2620
11585SOL    HW235441   6.873   6.763   5.997  0.7010 -0.1183 -0.2258
11586SOL     OW35442   6.282   5.733   4.930 -0.1370 -0.0301  0.3547
11586SOL    HW135443   6.339   5.750   4.855 -0.5699 -2.7772 -0.7080
11586SOL    HW235444   6.338   5.687   4.992 -0.4284  0.0171  0.6516
11587SOL     OW35445   7.249   4.817   0.310 -0.2130  0.4962 -0.3003
11587SOL    HW135446   7.308   4.780   0.376  1.3131  1.5318 -1.0318
11587SOL    HW235447   7.185   4.867   0.361 -0.8538 -1.1162  0.5401
11588SOL     OW35448   7.361   4.243   5.722  0.0414  0.5428  0.2200
11588SOL    HW135449   7.324   4.202   5.799  0.0229 -0.0896 -0.1209
11588SOL    HW235450   7.296   4.309   5.696 -1.2287 -1.0089 -0.7741
11589SOL     OW35451   0.597   5.381   1.673 -0.2706  0.6287  0.1417
11589SOL    HW135452   0.553   5.451   1.625 -0.2973  0.0394 -0.7200
11589SOL    HW235453   0.530   5.314   1.685  0.3171 -0.2171 -1.0676
11590SOL     OW35454   6.865   1.339   1.177  0.2053  0.2124 -0.6811
11590SOL    HW135455   6.847   1.248   1.151  0.0748  0.0948 -0.1938
11590SOL    HW235456   6.782   1.384   1.165  0.2080  0.2124 -0.7021
11591SOL     OW35457   3.413   6.961   5.582 -0.2981 -0.0400 -0.1942
11591SOL    HW135458   3.424   6.881   5.531 -1.2317 -1.7927  2.1489
11591SOL    HW235459   3.503   6.992   5.597  0.0672 -0.4849 -1.3134
11592SOL     OW35460   5.094   4.825   1.804 -0.2074 -0.5852 -0.4948
11592SOL    HW135461   5.084   4.787   1.717  1.3068  0.3862 -1.1336
11592SOL    HW235462   5.158   4.895   1.792 -1.3120  0.7480  1.0571
11593SOL     OW35463   3.221   0.560   2.699 -0.3224 -0.3558  0.0016
11593SOL    HW135464   3.147   0.592   2.647  0.8739  0.7504 -1.1061
11593SOL    HW235465   3.263   0.640   2.732  2.2768 -0.6965 -2.1603
11594SOL     OW35466   5.351   4.140   3.979 -0.2996  0.4677 -0.4126
11594SOL    HW135467   5.399   4.171   3.902  0.6255 -2.3213 -1.0551
11594SOL    HW235468   5.409   4.076   4.019 -2.7369 -1.7935 -0.2384
11595SOL     OW35469   6.716   0.800   1.263 -0.1767  0.1060 -0.3697
11595SOL    HW135470   6.672   0.783   1.180 -0.9371 -1.5108  0.3157
11595SOL    HW235471   6.783   0.733   1.269 -0.7176 -0.3615  0.7063
11596SOL     OW35472   7.297   1.109   5.068 -0.2770 -0.0162 -0.0535
11596SOL    HW135473   7.221   1.052   5.057  0.0558 -0.0371 -3.1408
11596SOL    HW235474   7.342   1.075   5.145 -1.7335 -1.9956 -0.0051
11597SOL     OW35475   0.614   4.526   0.420  0.3727  0.5258 -0.4417
11597SOL    HW135476   0.609   4.620   0.402  0.2180  0.3443 -1.3767
11597SOL    HW235477   0.536   4.489   0.379 -0.2485  0.1343  1.0177
11598SOL     OW35478   1.528   6.833   7.286  0.1402  0.7481  0.2552
11598SOL    HW135479   1.510   6.853   7.378 -0.5290 -0.4784  0.4127
11598SOL    HW235480   1.503   6.912   7.239 -1.4021  0.7102  0.9366
11599SOL     OW35481   4.364   1.194   7.678  0.1868 -0.5403  0.3816
11599SOL    HW135482   4.375   1.251   7.602  0.0392 -0.9755  0.0337
11599SOL    HW235483   4.270   1.183   7.687  0.1738  0.0183  1.0120
11600SOL     OW35484   7.705   1.866   5.301 -0.0413 -0.3752 -0.3837
11600SOL    HW135485   7.795   1.841   5.280  0.8024  0.8711  1.4788
11600SOL    HW235486   7.694   1.952   5.259 -0.0100 -0.0589  0.2565
11601SOL     OW35487   3.016   1.265   3.279  0.0061  0.1093 -0.4082
11601SOL    HW135488   2.967   1.320   3.340 -0.6160 -0.4773 -0.3663
11601SOL    HW235489   3.036   1.323   3.205 -1.3984  0.1841 -0.7577
11602SOL     OW35490   5.311   3.614   5.439 -0.3522 -0.6461 -0.5417
11602SOL    HW135491   5.328   3.655   5.354  0.2408  0.4152  0.0572
11602SOL    HW235492   5.360   3.532   5.436 -0.2833 -0.5908 -1.1953
11603SOL     OW35493   7.642   2.366   0.214  0.5092  0.4658  0.2963
11603SOL    HW135494   7.565   2.354   0.270  0.1693  3.1235  0.4886
11603SOL    HW235495   7.607   2.400   0.131  1.4919  3.3004  0.9410
11604SOL     OW35496   3.251   2.385   7.611  0.3884  0.6183  0.4672
11604SOL    HW135497   3.315   2.322   7.578  0.3257  0.8015 -0.0186
11604SOL    HW235498   3.169   2.337   7.614  0.4422  0.5336  0.5817
11605SOL     OW35499   4.742   0.543   4.246  0.0755 -0.1648  0.0588
11605SOL    HW135500   4.754   0.515   4.155 -0.6490 -0.6309  0.0977
11605SOL    HW235501   4.655   0.511   4.269  0.4416 -0.4650  1.0717
11606SOL     OW35502   7.520   2.330   0.466  0.3733  0.3847 -0.7790
11606SOL    HW135503   7.582   2.285   0.523 -1.0497  1.2459  1.5791
11606SOL    HW235504   7.555   2.419   0.457  0.3438  0.3913 -0.8328
11607SOL     OW35505   5.325   3.851   0.691  0.2376  0.4053  0.6863
11607SOL    HW135506   5.305   3.786   0.624  2.2301  0.0484  0.3902
11607SOL    HW235507   5.258   3.837   0.758 -1.2140  0.1280 -0.7594
11608SOL     OW35508   6.937   3.921   2.728 -0.0275  0.1095 -0.0707
11608SOL    HW135509   6.888   3.920   2.646 -1.1695  1.6396  0.5516
11608SOL    HW235510   7.018   3.967   2.707 -0.4480  0.7603 -0.2761
11609SOL     OW35511   5.394   5.687   1.644 -0.4593  0.0680  0.2893
11609SOL    HW135512   5.354   5.602   1.626 -0.3274  0.2324 -0.8077
11609SOL    HW235513   5.480   5.665   1.679 -0.2737 -0.2513 -0.3534
11610SOL     OW35514   0.444   4.518   1.951  0.2798  0.0894 -0.3708
11610SOL    HW135515   0.427   4.450   2.017  0.4962  0.5660  0.1843
11610SOL    HW235516   0.442   4.471   1.868 -1.1149 -0.3423 -0.1312
11611SOL     OW35517   2.696   7.408   0.427  0.1226 -0.2270 -0.0317
11611SOL    HW135518   2.791   7.421   0.424  0.3579 -1.0828  1.9366
11611SOL    HW235519   2.665   7.436   0.341  1.9493  1.6721 -0.1485
11612SOL     OW35520   1.537   2.324   2.544  0.2021 -0.3039 -0.3154
11612SOL    HW135521   1.524   2.234   2.513 -0.0396 -0.5805  0.5759
11612SOL    HW235522   1.529   2.318   2.639  2.3653  0.2915 -0.0471
11613SOL     OW35523   2.043   1.921   0.295  0.1122  0.0111  0.2586
11613SOL    HW135524   2.109   1.877   0.347 -1.0589 -1.3530  0.6416
11613SOL    HW235525   2.082   1.929   0.208  0.5460 -1.3149  0.3211
11614SOL     OW35526   6.172   7.231   5.089  0.0502  0.1152  0.1867
11614SOL    HW135527   6.158   7.228   5.184 -3.6088  2.5967 -0.0728
11614SOL    HW235528   6.190   7.323   5.071  1.1141 -0.3909 -1.5375
11615SOL     OW35529   3.022   2.636   0.661  0.7067  0.0144 -0.3545
11615SOL    HW135530   2.984   2.576   0.725  1.8256 -1.8564 -1.3406
11615SOL    HW235531   2.984   2.609   0.578  0.3886  1.4456 -0.6977
11616SOL     OW35532   0.982   7.497   2.589 -0.4212 -0.3635  0.3468
11616SOL    HW135533   0.906   7.517   2.645 -1.7135  1.4634 -1.8540
11616SOL    HW235534   0.946   7.444   2.518  0.5825 -0.3698 -0.1770
11617SOL     OW35535   4.311   0.868   5.126  0.3447 -0.3518 -0.1513
11617SOL    HW135536   4.336   0.835   5.213  1.3579 -0.5474 -0.4990
11617SOL    HW235537   4.355   0.953   5.119  1.1177 -0.7925 -0.8572
11618SOL     OW35538   3.188   3.307   1.236 -1.0976  0.1745  0.2245
11618SOL    HW135539   3.193   3.285   1.329  2.3853  0.1871  0.2026
11618SOL    HW235540   3.229   3.233   1.192  2.8022  2.4965 -0.6080
11619SOL     OW35541   2.419   5.623   7.646 -0.5084  0.1436 -0.2056
11619SOL    HW135542   2.393   5.569   7.721  1.4806  0.0548  0.4947
11619SOL    HW235543   2.422   5.561   7.573  2.5585 -1.0274  0.7564
11620SOL     OW35544   3.437   6.823   2.626  0.1768  0.2391 -0.4535
11620SOL    HW135545   3.390   6.747   2.591 -0.1185  0.5814 -0.8082
11620SOL    HW235546   3.519   6.786   2.660  0.0880 -0.2256 -0.7273
11621SOL     OW35547   4.399   0.517   3.220  0.6063  0.0046  0.1651
11621SOL    HW135548   4.359   0.552   3.299  1.5858 -0.7270  1.0020
11621SOL    HW235549   4.344   0.442   3.196  0.1166  0.4240 -0.0608
11622SOL     OW35550   7.125   6.155   3.193 -0.4232 -0.4015 -0.0448
11622SOL    HW135551   7.154   6.201   3.272  0.2397 -0.2993 -0.3407
11622SOL    HW235552   7.092   6.224   3.136  0.5091 -0.2856 -0.4615
11623SOL     OW35553   3.824   4.773   4.893 -0.1966  0.7437 -0.1608
11623SOL    HW135554   3.861   4.722   4.820 -0.6718  2.1881 -1.4614
11623SOL    HW235555   3.863   4.859   4.883  1.4240  0.4312  2.6380
11624SOL     OW35556   2.838   1.602   3.202  0.1512 -0.5254 -0.0279
11624SOL    HW135557   2.811   1.512   3.181  2.5047 -1.2609 -0.1769
11624SOL    HW235558   2.903   1.592   3.272 -0.1554  1.1466  0.5406
11625SOL     OW35559   5.301   2.207   4.956 -0.3116 -0.0772 -0.1120
11625SOL    HW135560   5.212   2.215   4.990  0.1380 -0.5398  1.2815
11625SOL    HW235561   5.356   2.248   5.023  0.5127  0.4463 -1.0781
11626SOL     OW35562   4.023   7.563   2.315 -0.2505  0.2230 -0.2568
11626SOL    HW135563   4.113   7.532   2.329 -0.7272 -1.0171  0.1851
11626SOL    HW235564   4.005   7.618   2.392  0.2465  0.7611 -0.5223
11627SOL     OW35565   5.078   2.883   4.140  0.0012 -0.0073  0.1222
11627SOL    HW135566   5.043   2.814   4.196 -0.1531 -0.7345 -0.8501
11627SOL    HW235567   5.173   2.880   4.154 -0.0864  0.2744  0.8433
11628SOL     OW35568   3.051   5.266   6.475 -0.4322 -0.2915  0.7038
11628SOL    HW135569   3.129   5.276   6.530  0.2977 -0.3304 -0.2912
11628SOL    HW235570   3.080   5.209   6.403 -1.1641  0.3153 -0.0879
11629SOL     OW35571   6.720   7.365   5.225 -0.1746 -0.9960 -0.3736
11629SOL    HW135572   6.675   7.281   5.221 -0.1525 -0.9973 -0.6074
11629SOL    HW235573   6.763   7.366   5.311  0.3189 -1.4763 -0.6102
11630SOL     OW35574   0.942   2.655   0.652 -0.2072 -0.3963 -0.0704
11630SOL    HW135575   0.929   2.749   0.666 -1.2437 -0.2497 -1.7155
11630SOL    HW235576   1.017   2.632   0.707  0.9724  1.6873 -0.7272
11631SOL     OW35577   6.906   0.341   4.698 -0.2409  0.0270  0.7406
11631SOL    HW135578   6.872   0.397   4.768 -0.6340  1.9445 -0.8752
11631SOL    HW235579   6.972   0.394   4.654  0.1390 -1.1909 -0.2322
11632SOL     OW35580   4.609   6.009   6.359  0.2633  0.2130 -0.2207
11632SOL    HW135581   4.692   6.006   6.405  0.9970 -2.6556 -1.5161
11632SOL    HW235582   4.630   6.047   6.274 -0.1315  1.0402  0.0354
11633SOL     OW35583   4.366   2.471   0.950  0.5446 -0.3061  0.1589
11633SOL    HW135584   4.321   2.533   0.891 -1.1908  1.0689  2.7076
11633SOL    HW235585   4.295   2.431   1.000  1.9347 -1.2447  1.4588
11634SOL     OW35586   4.838   1.689   6.445 -0.2710  0.2931 -0.1091
11634SOL    HW135587   4.794   1.757   6.496 -0.1966 -0.1995  0.6231
11634SOL    HW235588   4.930   1.715   6.445 -0.2952  0.3801 -0.1281
11635SOL     OW35589   2.340   4.150   5.033  0.3203  0.0230  0.3862
11635SOL    HW135590   2.433   4.166   5.019  0.4588 -1.6576 -0.9481
11635SOL    HW235591   2.308   4.229   5.077  2.5514  0.1892  1.8388
11636SOL     OW35592   0.157   5.281   0.340  0.4060 -0.5356 -0.2697
11636SOL    HW135593   0.129   5.230   0.416 -0.8389  0.4658 -0.0308
11636SOL    HW235594   0.173   5.215   0.273 -2.0923 -1.2782 -0.2582
11637SOL     OW35595   6.906   6.438   4.412  0.1525  0.5341  0.0587
11637SOL    HW135596   6.840   6.399   4.470  1.6160 -0.3464  1.1959
11637SOL    HW235597   6.872   6.423   4.324 -0.5489 -1.1126  0.5605
11638SOL     OW35598   3.997   7.061   3.962 -0.4441 -0.0847 -0.4427
11638SOL    HW135599   3.951   7.009   3.896 -0.7794 -0.5870  0.1695
11638SOL    HW235600   4.076   7.010   3.982 -0.5800 -0.1798 -0.1246
11639SOL     OW35601   4.096   6.691   4.836 -0.0366  0.0690  0.7211
11639SOL    HW135602   4.096   6.681   4.741  0.1277 -0.8946  0.8069
11639SOL    HW235603   4.035   6.762   4.853  0.6373  0.8790 -0.1598
11640SOL     OW35604   5.686   0.859   4.943  0.4191  0.0478 -0.0437
11640SOL    HW135605   5.700   0.778   4.993  0.5875  0.6199  0.8754
11640SOL    HW235606   5.699   0.929   5.008 -0.0790  0.7986 -0.7337
11641SOL     OW35607   3.727   7.229   5.469  0.2880 -0.2908 -0.7475
11641SOL    HW135608   3.782   7.256   5.396  1.1159  0.9915  0.3199
11641SOL    HW235609   3.768   7.266   5.546 -0.7613 -1.3261  0.3620
11642SOL     OW35610   1.678   5.047   2.408  0.0230  0.0330 -0.1688
11642SOL    HW135611   1.741   5.031   2.338 -0.9764 -0.4116 -0.9855
11642SOL    HW235612   1.620   5.115   2.374 -0.3565 -0.0479  0.2965
11643SOL     OW35613   7.178   4.418   3.054  0.4977  0.2487  0.0119
11643SOL    HW135614   7.126   4.387   3.128 -0.2374  0.1506 -0.5418
11643SOL    HW235615   7.116   4.466   2.999  1.3126  1.4838  0.1260
11644SOL     OW35616   4.100   2.054   0.972 -0.2672  0.2579 -0.1550
11644SOL    HW135617   4.137   2.142   0.964 -0.5759  0.4481  0.4672
11644SOL    HW235618   4.105   2.018   0.883 -0.6923  1.1241 -0.5481
11645SOL     OW35619   5.208   3.014   6.155 -0.5105 -0.2879  0.3390
11645SOL    HW135620   5.126   3.040   6.114 -0.4067 -0.4928 -0.0043
11645SOL    HW235621   5.222   2.924   6.126 -0.4369 -0.4407  0.8325
11646SOL     OW35622   1.088   1.681   4.075 -0.2567 -0.7103  0.6015
11646SOL    HW135623   1.017   1.674   4.011  0.6151 -3.0258 -0.2279
11646SOL    HW235624   1.162   1.715   4.026  0.0195 -1.1285  0.7214
11647SOL     OW35625   2.186   4.380   2.780  0.7890  0.4290 -0.2979
11647SOL    HW135626   2.259   4.439   2.760 -0.1613  1.1315 -1.8677
11647SOL    HW235627   2.108   4.430   2.759 -0.2855  0.1632  2.5513
11648SOL     OW35628   2.979   5.896   3.280  0.7335  0.0340 -0.3961
11648SOL    HW135629   3.062   5.879   3.325  1.1716  1.5322 -0.5816
11648SOL    HW235630   2.912   5.884   3.348  1.0874 -1.1421 -0.2359
11649SOL     OW35631   5.924   1.530   1.470 -0.0142 -0.2890 -0.2551
11649SOL    HW135632   5.942   1.469   1.398 -2.2034 -1.5592  0.1889
11649SOL    HW235633   5.942   1.479   1.549 -0.3135  0.1805  0.1159
11650SOL     OW35634   4.770   0.988   3.282  0.2200  0.1853  0.3243
11650SOL    HW135635   4.792   1.024   3.196  0.0056 -1.2858 -0.3758
11650SOL    HW235636   4.692   1.035   3.309  0.3322  0.7099 -0.2516
11651SOL     OW35637   1.340   7.543   4.163 -0.2027  0.4155  0.4549
11651SOL    HW135638   1.398   7.480   4.205 -1.6673 -1.3471 -0.0638
11651SOL    HW235639   1.292   7.584   4.235 -2.3160 -2.2114  0.6911
11652SOL     OW35640   4.663   4.832   2.905  0.0713 -0.1613  0.3004
11652SOL    HW135641   4.691   4.764   2.966 -0.9894 -0.9571 -0.0661
11652SOL    HW235642   4.641   4.785   2.824 -2.4346  0.3268  0.6062
11653SOL     OW35643   5.261   0.928   5.773  0.4808 -0.1230 -0.0095
11653SOL    HW135644   5.240   0.943   5.681  3.1371 -0.2642 -0.7334
11653SOL    HW235645   5.185   0.960   5.821 -1.1198 -0.3446 -2.2405
11654SOL     OW35646   6.117   3.218   1.729 -0.1803 -0.4033 -0.2119
11654SOL    HW135647   6.204   3.254   1.745 -0.4604  0.5883 -0.8360
11654SOL    HW235648   6.069   3.232   1.811 -0.5311  1.4243 -0.6838
11655SOL     OW35649   4.288   7.673   4.632 -0.2856 -0.3807  0.2390
11655SOL    HW135650   4.320   7.664   4.543 -0.4454  0.9122  0.0321
11655SOL    HW235651   4.194   7.658   4.626 -0.5845  1.4031 -0.1393
11656SOL     OW35652   4.998   1.452   5.854 -0.4374  0.0019  0.6685
11656SOL    HW135653   5.079   1.445   5.803 -0.5099  0.5512  0.4790
11656SOL    HW235654   5.024   1.424   5.942 -0.2577 -0.7166  0.3978
11657SOL     OW35655   3.508   5.930   3.427  0.0373 -0.0978  0.2822
11657SOL    HW135656   3.491   6.023   3.443  1.8766  0.0340  1.6729
11657SOL    HW235657   3.519   5.925   3.332 -1.8741  0.7549 -0.0374
11658SOL     OW35658   6.573   1.029   7.195 -0.8196  0.1759 -0.2933
11658SOL    HW135659   6.570   0.934   7.184 -0.2904  0.2548 -1.2104
11658SOL    HW235660   6.651   1.056   7.148 -1.2397  1.1275 -0.4687
11659SOL     OW35661   0.654   2.006   4.943 -0.3225  0.1019 -0.2232
11659SOL    HW135662   0.721   1.993   5.010 -0.9376 -0.9310  0.2240
11659SOL    HW235663   0.702   2.025   4.863  0.4102  2.6306  0.7295
11660SOL     OW35664   1.253   4.057   6.055 -0.5588 -0.0144 -0.1032
11660SOL    HW135665   1.339   4.035   6.020 -0.3405  0.6356  0.0050
11660SOL    HW235666   1.270   4.078   6.147 -0.5727  1.6065 -0.4454
11661SOL     OW35667   7.521   3.701   2.978  0.2338  0.4710 -0.5003
11661SOL    HW135668   7.486   3.724   3.064  0.4333  1.0443 -0.5705
11661SOL    HW235669   7.455   3.733   2.916 -0.6060 -1.1914 -0.5267
11662SOL     OW35670   7.704   2.019   5.563  0.2441  0.0765  0.1475
11662SOL    HW135671   7.782   1.966   5.575 -0.0834 -0.5484 -0.4185
11662SOL    HW235672   7.704   2.041   5.469  0.2428  0.8730  0.3234
11663SOL     OW35673   3.364   1.343   1.747  0.7114  0.7099  0.4430
11663SOL    HW135674   3.298   1.279   1.720  1.6641  0.7331 -2.2889
11663SOL    HW235675   3.427   1.292   1.798  1.7310 -0.8102 -2.1211
11664SOL     OW35676   7.653   6.822   6.051 -0.1377  0.3869  0.7287
11664SOL    HW135677   7.720   6.888   6.035  0.8548 -0.7117  0.1601
11664SOL    HW235678   7.657   6.765   5.974 -1.3105 -0.0416  0.9738
11665SOL     OW35679   2.579   2.232   6.363  0.0924 -0.1584  0.1985
11665SOL    HW135680   2.599   2.246   6.270 -2.0690  0.3293 -0.2548
11665SOL    HW235681   2.547   2.142   6.368  1.3569 -0.5976  0.7182
11666SOL     OW35682   6.447   3.457   6.148 -0.3173  0.2377 -0.6534
11666SOL    HW135683   6.450   3.437   6.054 -2.6624 -0.7550 -0.5651
11666SOL    HW235684   6.536   3.486   6.168  0.3764  0.0377 -3.0749
11667SOL     OW35685   1.184   3.234   1.066  0.4085 -0.3548  0.1409
11667SOL    HW135686   1.255   3.192   1.017 -0.9264 -1.8272 -0.6482
11667SOL    HW235687   1.140   3.162   1.112 -1.5592  0.2213 -0.7032
11668SOL     OW35688   7.347   6.926   3.332 -0.3612 -0.2133 -0.5901
11668SOL    HW135689   7.325   7.013   3.366 -0.8235  0.8294 -3.3081
11668SOL    HW235690   7.302   6.865   3.391 -1.0975  1.4197  0.6203
11669SOL     OW35691   6.607   0.792   2.339  0.1858  0.6669  0.1675
11669SOL    HW135692   6.618   0.867   2.281 -0.3489  0.6366  0.0239
11669SOL    HW235693   6.637   0.717   2.289 -0.1282  0.6624 -0.0141
11670SOL     OW35694   6.256   4.837   2.494 -0.0948 -0.3459  0.2819
11670SOL    HW135695   6.194   4.825   2.422  0.9177  1.2351 -0.9120
11670SOL    HW235696   6.201   4.865   2.568 -0.8395  1.2098 -0.8050
11671SOL     OW35697   1.995   5.139   2.666  0.2382  0.0019 -0.2934
11671SOL    HW135698   1.966   5.202   2.732  0.3191  0.3342 -0.5705
11671SOL    HW235699   1.915   5.093   2.641  0.1288  0.1858 -0.2878
11672SOL     OW35700   2.475   2.712   0.552 -0.7162 -0.1163 -0.1375
11672SOL    HW135701   2.459   2.619   0.565 -1.9696  0.3096  1.8863
11672SOL    HW235702   2.540   2.734   0.618 -2.6368  0.9585  1.5162
11673SOL     OW35703   1.354   0.890   7.554  0.0353 -0.0943 -0.1187
11673SOL    HW135704   1.269   0.849   7.541 -0.7112  0.7013  1.9163
11673SOL    HW235705   1.365   0.947   7.478 -1.0568 -0.5212 -0.6162
11674SOL     OW35706   6.064   3.565   2.240  0.3058 -0.1077 -0.5457
11674SOL    HW135707   6.003   3.617   2.188  1.2166  0.3848 -1.1526
11674SOL    HW235708   6.132   3.628   2.267  0.1529 -0.4815  0.7539
11675SOL     OW35709   0.312   6.242   1.222  0.4781 -0.5149  0.0650
11675SOL    HW135710   0.365   6.255   1.143 -0.3055  0.3115 -0.3394
11675SOL    HW235711   0.240   6.304   1.213 -1.0743 -2.2135  0.1638
11676SOL     OW35712   7.022   4.558   2.898  0.2370 -0.0082 -0.2505
11676SOL    HW135713   7.065   4.625   2.844 -1.2804  1.7075  0.5442
11676SOL    HW235714   6.929   4.581   2.894 -0.0403 -0.4984  2.1609
11677SOL     OW35715   3.685   4.902   4.598 -0.0790 -0.0011  0.4033
11677SOL    HW135716   3.642   4.827   4.639 -1.4887  0.7086  0.3048
11677SOL    HW235717   3.692   4.879   4.506 -0.3876 -0.0784  0.3984
11678SOL     OW35718   4.030   1.569   3.425 -0.1856 -0.4968 -0.0201
11678SOL    HW135719   4.082   1.490   3.413  1.4266  0.7221 -1.5714
11678SOL    HW235720   4.012   1.599   3.335  0.1651  1.4515  0.5119
11679SOL     OW35721   6.164   3.124   6.529 -0.4160 -0.0079 -0.5651
11679SOL    HW135722   6.192   3.124   6.438 -0.5572 -0.1456 -0.6093
11679SOL    HW235723   6.068   3.133   6.525 -0.7332 -2.5323 -0.5421
11680SOL     OW35724   7.145   5.014   0.440  0.4446  0.2307  0.0377
11680SOL    HW135725   7.163   5.106   0.421  0.2116  0.4772  0.9563
11680SOL    HW235726   7.051   5.005   0.428  0.7164 -0.3803 -1.9772
11681SOL     OW35727   4.737   6.399   1.739  0.2767 -0.3017  0.0404
11681SOL    HW135728   4.813   6.387   1.681  0.5070  0.6539  0.1236
11681SOL    HW235729   4.723   6.494   1.740 -0.5051 -0.4158  0.5652
11682SOL     OW35730   0.274   3.806   7.558  0.5449  0.2829 -0.2115
11682SOL    HW135731   0.330   3.861   7.502  1.0944  0.2727  0.3227
11682SOL    HW235732   0.251   3.862   7.631  2.5581 -0.6884  1.2584
11683SOL     OW35733   0.554   5.851   6.543  0.2109  0.5970 -0.4053
11683SOL    HW135734   0.591   5.924   6.592 -0.8671  0.0275  1.3515
11683SOL    HW235735   0.588   5.862   6.454  0.5616  2.8619 -0.0484
11684SOL     OW35736   3.668   5.905   4.316 -0.3880 -0.2206  0.8675
11684SOL    HW135737   3.697   5.966   4.384 -0.1366  0.3379  0.2688
11684SOL    HW235738   3.590   5.863   4.354 -1.5456  1.6256  0.7085
11685SOL     OW35739   0.204   2.625   7.045 -0.5939 -0.1526 -0.4278
11685SOL    HW135740   0.215   2.682   7.121  0.6006 -1.4687  0.4511
11685SOL    HW235741   0.143   2.672   6.988 -1.0204  1.1706  1.0380
11686SOL     OW35742   4.149   6.150   1.844  0.1159 -0.4716  0.9173
11686SOL    HW135743   4.084   6.181   1.781  1.3899 -0.6295 -0.5122
11686SOL    HW235744   4.107   6.163   1.930 -1.3231  0.5113  0.1010
11687SOL     OW35745   1.920   7.420   2.281 -0.3328  0.1479  0.0724
11687SOL    HW135746   1.831   7.419   2.317 -0.5383 -1.4528 -0.3827
11687SOL    HW235747   1.976   7.437   2.356 -0.8131 -2.2127  1.0655
11688SOL     OW35748   4.546   5.751   0.938 -0.4287  0.4922  0.2792
11688SOL    HW135749   4.504   5.821   0.988  1.7499  1.4349  0.9194
11688SOL    HW235750   4.568   5.791   0.855  0.4037  0.4232  0.4632
11689SOL     OW35751   3.968   3.857   0.891 -0.3228 -0.3135  0.1122
11689SOL    HW135752   3.998   3.940   0.853  1.0940  0.5133  2.7404
11689SOL    HW235753   4.048   3.809   0.909 -0.8914 -0.7045  1.7927
11690SOL     OW35754   0.652   3.743   4.206 -1.0175 -0.9447 -0.5832
11690SOL    HW135755   0.673   3.724   4.297  3.5660  4.0142 -0.0523
11690SOL    HW235756   0.718   3.696   4.156 -0.9503 -0.4829 -0.9305
11691SOL     OW35757   3.656   3.026   2.496  0.2594 -0.3225  0.7844
11691SOL    HW135758   3.682   2.949   2.446  0.2461  1.4533 -2.2320
11691SOL    HW235759   3.687   3.100   2.444  0.1271  1.7594  3.4305
11692SOL     OW35760   4.791   2.386   7.375 -0.1763 -0.1669 -0.3936
11692SOL    HW135761   4.785   2.429   7.460 -0.0920 -1.7668  0.4585
11692SOL    HW235762   4.702   2.389   7.340 -0.1540  0.7583 -0.3986
11693SOL     OW35763   6.259   6.266   0.856  0.1704  0.3311  0.7463
11693SOL    HW135764   6.322   6.223   0.914 -0.4126  0.4479  1.4976
11693SOL    HW235765   6.311   6.324   0.801  1.0415 -1.6173 -0.5910
11694SOL     OW35766   5.682   2.331   5.330  0.2098 -0.6731 -0.0371
11694SOL    HW135767   5.643   2.412   5.363  1.2876  0.2152 -0.8428
11694SOL    HW235768   5.774   2.337   5.356  0.5616 -1.0576 -1.1486
11695SOL     OW35769   3.792   0.846   4.315  0.4118  0.4438  0.0151
11695SOL    HW135770   3.805   0.853   4.410  2.3546 -0.1384 -0.1788
11695SOL    HW235771   3.703   0.810   4.306  0.8046 -1.0996  1.6783
11696SOL     OW35772   1.074   1.901   1.326  0.2250 -0.7008 -0.2851
11696SOL    HW135773   1.089   1.829   1.387 -0.1511 -0.9212 -0.4478
11696SOL    HW235774   0.991   1.940   1.355  0.0720 -0.7732 -0.6199
11697SOL     OW35775   4.061   3.092   0.777 -0.2219  0.0058  0.0451
11697SOL    HW135776   4.001   3.123   0.845  1.1620  0.0451  1.2823
11697SOL    HW235777   4.029   3.005   0.755 -2.6364  1.2064 -1.6610
11698SOL     OW35778   1.053   5.681   3.862 -0.6360 -0.0818  0.0038
11698SOL    HW135779   1.078   5.602   3.910  2.0790  0.4146 -0.4556
11698SOL    HW235780   1.020   5.649   3.778  1.5431 -0.7679 -0.6561
11699SOL     OW35781   5.925   0.029   6.933  0.4574  0.2228  0.0508
11699SOL    HW135782   5.837   0.008   6.901  1.3708 -1.4995 -1.5603
11699SOL    HW235783   5.974   0.053   6.854  2.0628 -1.3962  0.4673
11700SOL     OW35784   2.719   0.404   6.386  0.6146  0.5883 -0.2793
11700SOL    HW135785   2.629   0.373   6.399  0.8125 -0.9262 -2.1066
11700SOL    HW235786   2.774   0.338   6.429  0.9005  2.0236  1.7139
11701SOL     OW35787   4.548   4.984   5.972  0.5807  0.0905  0.4871
11701SOL    HW135788   4.533   4.984   6.067  0.3421 -0.8606  0.4569
11701SOL    HW235789   4.590   5.069   5.954 -0.0700  0.6064  1.3279
11702SOL     OW35790   0.743   4.525   0.979  0.6448  0.0672 -0.1317
11702SOL    HW135791   0.739   4.447   1.036 -0.7813  0.8547  0.9312
11702SOL    HW235792   0.671   4.580   1.010  1.7973  1.9582 -0.6607
11703SOL     OW35793   5.468   0.745   1.019 -0.5835  0.2370  0.0383
11703SOL    HW135794   5.402   0.756   0.951  2.5706  0.2364 -3.3205
11703SOL    HW235795   5.517   0.827   1.019 -0.0476 -0.0309  1.9047
11704SOL     OW35796   2.183   6.683   6.268  0.3425  0.2730 -0.6371
11704SOL    HW135797   2.272   6.658   6.295  0.3680  0.1844 -0.7995
11704SOL    HW235798   2.129   6.608   6.294  0.1635  0.7087  0.2926
11705SOL     OW35799   2.672   4.899   3.312 -0.4740 -0.3347 -0.5949
11705SOL    HW135800   2.616   4.946   3.250 -1.3334  0.0088  0.4190
11705SOL    HW235801   2.738   4.963   3.339  1.1555 -1.0436 -2.6165
11706SOL     OW35802   5.316   1.599   2.237  0.6151 -0.0689 -0.1052
11706SOL    HW135803   5.323   1.666   2.169  0.9232  1.2178  1.1536
11706SOL    HW235804   5.230   1.615   2.277  0.6240 -0.5236  0.1009
11707SOL     OW35805   7.004   4.525   5.346  0.0604 -0.3523 -0.2544
11707SOL    HW135806   7.081   4.575   5.376 -0.2231  0.1674 -0.3699
11707SOL    HW235807   6.959   4.501   5.427 -0.3533  0.4817 -0.2259
11708SOL     OW35808   3.404   5.040   6.817 -0.0402  0.2712 -0.0333
11708SOL    HW135809   3.333   5.049   6.754  0.3313 -0.0685 -0.5080
11708SOL    HW235810   3.437   5.129   6.828 -1.9571  0.8293  1.9099
11709SOL     OW35811   6.437   2.014   1.901 -0.0863  0.4784  0.3940
11709SOL    HW135812   6.349   2.003   1.865 -0.3103  2.2074  0.3294
11709SOL    HW235813   6.481   2.073   1.840  0.6329  0.8003  1.1999
11710SOL     OW35814   2.890   5.207   0.791 -0.2576 -0.0882 -0.4096
11710SOL    HW135815   2.839   5.128   0.774 -1.4125  0.3914  0.6547
11710SOL    HW235816   2.956   5.180   0.854  0.1814 -0.4864 -1.0313
11711SOL     OW35817   6.104   6.349   1.919  0.3315  0.5132  0.7209
11711SOL    HW135818   6.046   6.301   1.861  0.6766 -0.5127  1.2024
11711SOL    HW235819   6.113   6.435   1.879 -0.3191  0.1855 -0.1442
11712SOL     OW35820   5.556   2.667   3.732 -0.0260  0.3323  0.1151
11712SOL    HW135821   5.538   2.701   3.644  0.9558 -1.9819 -1.0828
11712SOL    HW235822   5.510   2.583   3.736  1.1322 -0.2967  1.2281
11713SOL     OW35823   5.366   0.361   4.201  0.0127 -0.1939 -0.1041
11713SOL    HW135824   5.430   0.373   4.131 -1.4675 -1.5117 -1.7888
11713SOL    HW235825   5.371   0.441   4.252  1.7266  0.4859 -1.2351
11714SOL     OW35826   4.498   2.008   0.260 -0.2320  0.4776 -0.0435
11714SOL    HW135827   4.481   1.923   0.218  3.3947 -0.7058  0.5473
11714SOL    HW235828   4.551   2.055   0.196  0.0581  1.1800  0.7028
11715SOL     OW35829   0.534   5.987   0.574 -0.0928  0.3036 -0.2620
11715SOL    HW135830   0.483   6.024   0.502 -0.0550  0.3805 -0.2484
11715SOL    HW235831   0.620   6.027   0.566  0.1583 -0.3017 -0.6688
11716SOL     OW35832   3.712   0.372   0.205  0.1644  0.2977 -0.3554
11716SOL    HW135833   3.731   0.329   0.288 -1.4652 -0.0801 -0.1332
11716SOL    HW235834   3.633   0.424   0.223 -0.6632 -0.3682 -1.8238
11717SOL     OW35835   6.806   3.698   1.084  0.0908 -0.4770  0.1073
11717SOL    HW135836   6.778   3.727   0.998 -0.1384 -0.8100  0.0688
11717SOL    HW235837   6.736   3.727   1.143  0.6876  0.5840  0.3267
11718SOL     OW35838   7.571   3.580   6.867  0.2314 -0.4384  0.1138
11718SOL    HW135839   7.667   3.574   6.870  0.2246 -1.5665 -1.0599
11718SOL    HW235840   7.544   3.504   6.815 -1.5077 -1.8220  2.8180
11719SOL     OW35841   0.284   6.785   3.098  0.2430 -0.0947 -0.3457
11719SOL    HW135842   0.279   6.880   3.110  0.5666  0.0452 -1.2247
11719SOL    HW235843   0.269   6.772   3.004  1.9541 -0.7687 -0.5652
11720SOL     OW35844   6.155   2.529   2.065  0.4399 -0.0168 -0.4447
11720SOL    HW135845   6.175   2.562   2.153 -2.6827  1.9233 -0.3211
11720SOL    HW235846   6.212   2.580   2.007  0.7903  0.4302  0.2703
11721SOL     OW35847   6.813   3.750   3.539 -0.0386 -0.4492  0.0052
11721SOL    HW135848   6.806   3.664   3.496  1.3055 -1.0366  0.8665
11721SOL    HW235849   6.877   3.798   3.485 -1.3839  0.3423 -0.9370
11722SOL     OW35850   1.553   2.412   5.116  0.4048  0.2624 -0.1050
11722SOL    HW135851   1.545   2.348   5.187  0.5618  0.7849  0.3858
11722SOL    HW235852   1.628   2.465   5.140  0.4840  0.4165 -0.6888
11723SOL     OW35853   7.759   6.476   2.396  0.1805 -0.5917  0.3056
11723SOL    HW135854   7.831   6.454   2.337  0.7230 -0.0925  0.7619
11723SOL    HW235855   7.707   6.396   2.401  0.5495 -0.8747 -0.2480
11724SOL     OW35856   1.034   4.998   5.230 -0.2111  0.0015  0.4631
11724SOL    HW135857   1.075   4.934   5.172 -1.5505  0.8210 -1.4865
11724SOL    HW235858   1.006   4.948   5.306 -1.1724 -1.7317 -0.9741
11725SOL     OW35859   4.030   2.106   2.501 -0.3640  0.4448  0.7667
11725SOL    HW135860   3.996   2.147   2.421  0.3024  0.6137  0.5619
11725SOL    HW235861   4.126   2.114   2.493 -0.1493 -1.8806  0.3119
11726SOL     OW35862   5.408   5.033   3.600 -0.4712 -0.1831  0.6209
11726SOL    HW135863   5.451   4.949   3.617  0.1483 -0.0700 -0.2875
11726SOL    HW235864   5.423   5.049   3.506 -1.4412  0.4638  0.5635
11727SOL     OW35865   3.784   1.915   3.628  0.1934 -0.1890  0.2392
11727SOL    HW135866   3.853   1.848   3.621  1.2984  0.6033  2.4941
11727SOL    HW235867   3.830   1.998   3.614 -0.7217  0.2419 -0.2970
11728SOL     OW35868   5.450   7.570   6.263 -0.4658 -0.1762 -0.0094
11728SOL    HW135869   5.537   7.533   6.249 -0.7153 -0.7352 -0.1263
11728SOL    HW235870   5.464   7.664   6.270  0.4255 -0.4192  2.0611
11729SOL     OW35871   7.559   3.917   2.135 -0.3498  0.0183 -0.0660
11729SOL    HW135872   7.623   3.949   2.071  1.0917 -0.4346  1.0836
11729SOL    HW235873   7.510   3.994   2.161 -1.4969  0.0943 -2.2340
11730SOL     OW35874   0.756   2.998   1.822 -0.4773 -0.2065  0.1400
11730SOL    HW135875   0.677   2.995   1.876 -0.5854  0.6881  0.0593
11730SOL    HW235876   0.819   3.047   1.875 -1.3401  2.8314 -1.4125
11731SOL     OW35877   4.862   1.483   5.174  0.0751  0.2295  0.1751
11731SOL    HW135878   4.891   1.451   5.089  0.0059 -0.3186  0.3541
11731SOL    HW235879   4.782   1.434   5.193  0.1702  0.2416  0.6233
11732SOL     OW35880   6.680   6.206   3.239 -0.2698  0.0427 -0.3717
11732SOL    HW135881   6.710   6.171   3.323  1.1156 -0.9502 -1.2506
11732SOL    HW235882   6.686   6.133   3.178 -0.2551  1.0027 -1.5740
11733SOL     OW35883   3.518   1.391   5.513  0.0856  0.5195  0.1268
11733SOL    HW135884   3.557   1.329   5.575 -1.0136  0.8657  1.2134
11733SOL    HW235885   3.445   1.342   5.473  1.2041  0.0679 -1.4507
11734SOL     OW35886   6.931   3.929   3.707  0.4067  0.2030  0.0778
11734SOL    HW135887   6.882   4.009   3.689 -0.3540  0.2032  1.9516
11734SOL    HW235888   6.870   3.859   3.684  0.0282  0.2010  1.0270
11735SOL     OW35889   7.753   0.512   3.487  0.1041  0.5386  0.5423
11735SOL    HW135890   7.732   0.468   3.569 -2.3723 -1.3828 -0.9388
11735SOL    HW235891   7.848   0.503   3.478  0.1456 -1.2969  2.1234
11736SOL     OW35892   5.250   0.157   0.478 -0.0415 -0.7231  0.3033
11736SOL    HW135893   5.202   0.161   0.395 -2.3203  1.2936  1.5829
11736SOL    HW235894   5.291   0.071   0.478 -1.7432 -1.6254 -1.9774
11737SOL     OW35895   2.870   5.687   7.145  0.0420 -0.2397 -0.0191
11737SOL    HW135896   2.920   5.685   7.064  1.4260  0.0316  0.7904
11737SOL    HW235897   2.780   5.708   7.118  0.4739 -0.1627 -1.4607
11738SOL     OW35898   1.216   0.156   2.386  0.2031 -0.6533  0.1599
11738SOL    HW135899   1.232   0.241   2.346  2.2458 -0.4018  1.3753
11738SOL    HW235900   1.268   0.095   2.334  1.5041 -0.5837  1.3312
11739SOL     OW35901   5.166   1.044   5.501  0.3058 -0.3478  0.0449
11739SOL    HW135902   5.235   1.035   5.435  1.2859 -0.8086  1.1154
11739SOL    HW235903   5.160   1.138   5.517  0.8793 -0.3310  0.1542
11740SOL     OW35904   5.605   5.563   2.732 -0.6111  0.0387  0.3918
11740SOL    HW135905   5.543   5.584   2.662 -0.7240 -0.7913  0.2274
11740SOL    HW235906   5.624   5.647   2.773  0.1504  0.7007 -1.1955
11741SOL     OW35907   0.571   4.035   5.304  0.9712  0.1834 -0.3589
11741SOL    HW135908   0.505   3.967   5.289 -0.3463  1.2965  0.1081
11741SOL    HW235909   0.631   3.997   5.368  1.1024 -1.0465 -1.1801
11742SOL     OW35910   6.857   5.654   1.500 -0.2714 -0.5957 -0.5446
11742SOL    HW135911   6.842   5.576   1.554 -0.5799 -0.1715 -0.0165
11742SOL    HW235912   6.770   5.691   1.486 -0.0960 -0.1838 -0.5511
11743SOL     OW35913   1.538   4.729   6.408 -0.0451 -0.3023 -0.0918
11743SOL    HW135914   1.578   4.668   6.346  1.8143 -0.2233  0.9760
11743SOL    HW235915   1.534   4.679   6.490 -2.1280 -0.2778 -0.1184
11744SOL     OW35916   5.967   7.579   2.577 -0.2003 -0.2517  0.0292
11744SOL    HW135917   6.030   7.508   2.563  2.8800  1.8540  1.8875
11744SOL    HW235918   5.962   7.623   2.492 -0.2342 -1.2329 -0.4939
11745SOL     OW35919   4.357   3.176   5.562 -0.2224 -0.4525  0.1766
11745SOL    HW135920   4.382   3.166   5.653 -2.2522  0.1586  0.8581
11745SOL    HW235921   4.268   3.211   5.565  0.1770  0.9923 -2.0387
11746SOL     OW35922   5.126   0.743   6.105 -0.0824 -0.6435 -0.1953
11746SOL    HW135923   5.070   0.795   6.163  2.0122  0.4143  1.0040
11746SOL    HW235924   5.099   0.768   6.017 -0.4128  1.0516  0.3583
11747SOL     OW35925   5.989   6.176   5.575 -0.3076  0.3923  0.5929
11747SOL    HW135926   5.959   6.138   5.657 -1.4067 -1.8741 -0.7774
11747SOL    HW235927   6.082   6.152   5.570 -1.2773 -3.9370 -0.9859
11748SOL     OW35928   4.081   4.054   3.025  0.3502 -0.3206 -0.4562
11748SOL    HW135929   4.060   4.111   2.952 -0.0463 -0.0729 -0.1519
11748SOL    HW235930   4.037   3.971   3.004 -0.8185  0.1364  0.0894
11749SOL     OW35931   6.042   1.892   4.329  0.3288  0.3626  0.1440
11749SOL    HW135932   6.046   1.846   4.413  1.2666  1.2308  0.5906
11749SOL    HW235933   6.008   1.979   4.352 -0.5140  0.2308 -0.5541
11750SOL     OW35934   5.164   6.915   3.320  0.2618 -0.1299 -0.3268
11750SOL    HW135935   5.123   6.934   3.405  0.5137  1.3258 -0.5122
11750SOL    HW235936   5.164   6.819   3.315 -0.3350 -0.2289  1.0319
11751SOL     OW35937   0.886   6.198   3.638 -0.2561  0.0801 -0.8234
11751SOL    HW135938   0.822   6.245   3.584  0.5581  0.5389 -1.3932
11751SOL    HW235939   0.866   6.226   3.727 -0.0998  1.1380 -1.1110
11752SOL     OW35940   2.673   2.017   6.753 -0.1509 -0.1602  0.4599
11752SOL    HW135941   2.726   2.069   6.812  1.5116 -0.8861 -0.3194
11752SOL    HW235942   2.590   2.064   6.746  0.2491  0.8285  1.9848
11753SOL     OW35943   1.946   7.576   2.523  0.5176 -0.2005 -0.0323
11753SOL    HW135944   2.031   7.546   2.492  0.7061 -0.5934  0.8350
11753SOL    HW235945   1.966   7.630   2.600 -0.0522 -0.8737  0.6034
11754SOL     OW35946   6.963   7.515   7.737 -0.3195  0.2238 -0.4932
11754SOL    HW135947   7.056   7.514   7.715 -0.5531 -1.7814 -1.6099
11754SOL    HW235948   6.919   7.536   7.654 -0.9250 -0.6022 -0.3966
11755SOL     OW35949   2.014   4.256   3.366 -0.9461 -0.1619 -0.4101
11755SOL    HW135950   2.013   4.210   3.450 -4.1379 -0.1000 -0.3021
11755SOL    HW235951   1.990   4.189   3.302 -0.8366  0.2917 -0.9347
11756SOL     OW35952   3.443   7.160   5.817  0.7610  0.3926  0.3248
11756SOL    HW135953   3.407   7.149   5.729  2.2413 -0.2090 -0.2356
11756SOL    HW235954   3.403   7.089   5.868 -1.1534  1.5554  0.5244
11757SOL     OW35955   5.427   0.566   3.757 -0.1107  0.1097  0.1214
11757SOL    HW135956   5.363   0.570   3.828  1.5953  0.5084  1.7048
11757SOL    HW235957   5.412   0.646   3.706 -1.6829 -0.4265 -0.3205
11758SOL     OW35958   4.937   0.556   2.235  0.1633 -0.3867 -0.2383
11758SOL    HW135959   4.939   0.645   2.269 -0.9251  0.2331 -1.6862
11758SOL    HW235960   5.020   0.518   2.263  1.3975  1.6164 -0.9451
11759SOL     OW35961   2.016   0.412   6.419 -0.4438 -0.0216 -0.1051
11759SOL    HW135962   2.039   0.330   6.375 -0.6443  0.3101 -0.8282
11759SOL    HW235963   2.043   0.398   6.510 -0.6359 -0.9542 -0.1819
11760SOL     OW35964   4.868   4.086   1.113 -0.4425 -0.1743 -0.3651
11760SOL    HW135965   4.946   4.094   1.168 -0.1868 -1.5860 -0.4957
11760SOL    HW235966   4.795   4.109   1.171 -0.0178  0.2780  0.0006
11761SOL     OW35967   7.161   4.629   4.735  0.1772 -0.1068 -0.5229
11761SOL    HW135968   7.159   4.622   4.640 -1.3705 -0.1521 -0.5064
11761SOL    HW235969   7.167   4.724   4.752 -1.8824  0.1083 -0.7008
11762SOL     OW35970   7.042   7.085   7.689  0.5656 -0.1369  0.4484
11762SOL    HW135971   7.000   7.153   7.742 -0.1529  0.2617 -0.6059
11762SOL    HW235972   7.035   7.116   7.599  0.8202 -1.3013  0.0052
11763SOL     OW35973   1.838   0.264   4.459 -0.4492  0.1764 -0.3508
11763SOL    HW135974   1.827   0.262   4.554  1.3786  1.9861 -0.0276
11763SOL    HW235975   1.847   0.172   4.434 -4.0782 -0.6406  0.7013
11764SOL     OW35976   6.204   2.861   4.288  0.4530  0.1028 -0.4497
11764SOL    HW135977   6.289   2.834   4.254  2.0250  1.9464  1.6922
11764SOL    HW235978   6.224   2.900   4.373 -2.6935 -0.3266  0.6044
11765SOL     OW35979   0.089   0.678   0.776  0.0161 -0.0470  0.0073
11765SOL    HW135980   0.142   0.604   0.804 -1.3568 -2.6037 -3.4500
11765SOL    HW235981   0.145   0.727   0.716  0.4771  0.9931  1.2546
11766SOL     OW35982   6.644   4.807   0.620 -0.0193  0.1553 -0.2969
11766SOL    HW135983   6.578   4.788   0.687  1.7771  2.5203  2.3115
11766SOL    HW235984   6.675   4.720   0.593  0.2218 -0.9359  3.0350
11767SOL     OW35985   0.530   5.167   7.315  0.3458  0.1258 -0.2826
11767SOL    HW135986   0.519   5.224   7.239  0.9031  1.0723  0.3156
11767SOL    HW235987   0.588   5.217   7.373 -0.1716 -0.5225  0.8162
11768SOL     OW35988   0.567   3.366   0.947 -0.7223  0.1947  0.0303
11768SOL    HW135989   0.641   3.425   0.931 -0.3284  0.1201  1.4502
11768SOL    HW235990   0.608   3.285   0.978 -1.3588 -0.0945  0.1220
11769SOL     OW35991   7.288   5.326   1.683  0.4842  0.4012  0.1769
11769SOL    HW135992   7.295   5.268   1.759  0.6954  0.3067  0.0886
11769SOL    HW235993   7.289   5.414   1.720  2.5107  0.4304  0.1983
11770SOL     OW35994   3.742   2.952   1.256  0.6875 -0.3533  0.3750
11770SOL    HW135995   3.694   2.875   1.224  0.3038 -0.6641  1.6228
11770SOL    HW235996   3.674   3.011   1.288  1.0635 -0.3017  1.1093
11771SOL     OW35997   4.231   2.802   6.345 -0.4780 -0.5416 -0.2259
11771SOL    HW135998   4.233   2.789   6.440 -0.5050  1.2318  0.0552
11771SOL    HW235999   4.321   2.829   6.324 -1.2319  2.3065 -0.1352
11772SOL     OW36000   1.434   3.629   1.830 -0.3074 -0.2371 -0.1770
11772SOL    HW136001   1.417   3.633   1.924 -1.2896 -1.7124 -0.2647
11772SOL    HW236002   1.351   3.655   1.789  0.4955  1.7501 -0.6889
11773SOL     OW36003   2.497   0.962   6.417  0.0476 -0.7538  0.3687
11773SOL    HW136004   2.461   0.927   6.336  0.5062  0.0944 -0.2186
11773SOL    HW236005   2.421   0.977   6.473 -0.3698 -0.3825 -0.2928
11774SOL     OW36006   1.851   1.096   0.426 -0.4258  0.2746  0.0776
11774SOL    HW136007   1.781   1.031   0.430  0.0344 -0.2213  0.1853
11774SOL    HW236008   1.872   1.115   0.517  0.0499 -0.0963  0.0481
11775SOL     OW36009   4.480   7.476   7.326 -0.5624  0.3497  0.2270
11775SOL    HW136010   4.507   7.551   7.273  0.9424 -0.4213 -0.1661
11775SOL    HW236011   4.438   7.514   7.403 -1.2581  1.5321 -0.6927
11776SOL     OW36012   7.231   5.034   4.345  0.1988  0.0630  0.6846
11776SOL    HW136013   7.280   4.989   4.277 -1.1371  1.3700 -1.2558
11776SOL    HW236014   7.261   5.125   4.341 -2.2600  0.9248 -0.6140
11777SOL     OW36015   4.531   5.116   6.987  0.6149  0.0658  0.0922
11777SOL    HW136016   4.500   5.169   6.913 -2.1790 -0.5979  0.6762
11777SOL    HW236017   4.590   5.174   7.034  1.6140  0.8860 -2.0152
11778SOL     OW36018   4.026   2.817   7.075 -0.2665  0.2296 -0.2967
11778SOL    HW136019   3.961   2.829   7.144 -1.3382  2.2465 -1.5433
11778SOL    HW236020   4.104   2.862   7.106 -0.0318 -0.6791  0.4608
11779SOL     OW36021   7.622   0.043   2.177  0.0399  0.4598 -0.5539
11779SOL    HW136022   7.674   0.032   2.097 -0.1204 -0.2075 -0.5745
11779SOL    HW236023   7.639  -0.037   2.227 -2.5747 -0.7955 -1.4925
11780SOL     OW36024   1.679   3.972   1.712 -0.4774 -0.2020 -0.0352
11780SOL    HW136025   1.649   3.885   1.737  1.6006 -0.1740  3.2293
11780SOL    HW236026   1.677   4.022   1.794 -0.0551  2.3184 -1.4830
11781SOL     OW36027   4.833   5.010   1.192 -0.2005  0.3400  0.6257
11781SOL    HW136028   4.861   5.101   1.197 -0.7003  0.5143  0.3672
11781SOL    HW236029   4.738   5.015   1.183 -0.0104 -0.0475 -2.9463
11782SOL     OW36030   6.785   3.064   2.444  0.3240  0.2083  0.4417
11782SOL    HW136031   6.764   3.149   2.483  0.1874  1.2713 -1.7804
11782SOL    HW236032   6.703   3.037   2.401  0.1693 -1.4031  1.6616
11783SOL     OW36033   5.967   5.544   6.699  0.5318 -0.1761  0.6521
11783SOL    HW136034   5.873   5.548   6.715  0.4299  0.8355 -0.1184
11783SOL    HW236035   6.006   5.565   6.784  0.0142  2.5287  0.3147
11784SOL     OW36036   1.831   0.800   2.384 -0.1145 -0.5050 -0.2077
11784SOL    HW136037   1.840   0.832   2.474 -1.4692  0.2812 -0.3222
11784SOL    HW236038   1.882   0.862   2.332  0.8042 -1.0541  0.0207
11785SOL     OW36039   7.427   6.713   7.104 -0.2358  0.2072 -0.2344
11785SOL    HW136040   7.430   6.807   7.086  0.3646  0.3629  0.5809
11785SOL    HW236041   7.342   6.699   7.145 -0.6358  0.2577 -1.0365
11786SOL     OW36042   5.581   2.570   2.528  0.3882  0.5246 -0.3630
11786SOL    HW136043   5.538   2.548   2.611  0.8234 -0.7950 -0.4634
11786SOL    HW236044   5.659   2.515   2.526  2.1821  2.9278 -0.1500
11787SOL     OW36045   4.204   4.971   2.372  0.2211  0.0343  0.3215
11787SOL    HW136046   4.148   5.036   2.330 -2.0687 -1.7603  0.3815
11787SOL    HW236047   4.268   5.022   2.422 -0.9155  2.2089 -0.3369
11788SOL     OW36048   3.278   3.433   5.963  0.4879 -0.2035  0.4820
11788SOL    HW136049   3.326   3.360   5.924  0.3053 -1.2211  2.0784
11788SOL    HW236050   3.190   3.397   5.979  0.6395  0.0691  2.0527
11789SOL     OW36051   4.408   1.418   3.398  0.6140 -0.5328 -0.2121
11789SOL    HW136052   4.438   1.377   3.479  0.0009  0.0842  0.3465
11789SOL    HW236053   4.387   1.345   3.340 -0.6129 -1.0419  0.8208
11790SOL     OW36054   7.566   3.535   3.557  0.1646 -0.2521 -0.1677
11790SOL    HW136055   7.588   3.505   3.469 -0.6127  0.3837 -0.5970
11790SOL    HW236056   7.474   3.508   3.568  0.3308 -0.5435  0.5502
11791SOL     OW36057   0.655   1.934   4.645 -0.3194  0.7833 -0.1835
11791SOL    HW136058   0.623   1.845   4.661 -2.0127  1.4669  0.4737
11791SOL    HW236059   0.671   1.937   4.551 -1.5037  0.1424 -0.4338
11792SOL     OW36060   1.706   7.420   7.366  0.5442 -0.6970 -0.5934
11792SOL    HW136061   1.801   7.432   7.358  0.4119  0.7124 -0.3197
11792SOL    HW236062   1.668   7.472   7.296 -0.0277 -1.7723 -1.1094
11793SOL     OW36063   6.566   4.845   5.459  0.4544 -0.7910  0.4276
11793SOL    HW136064   6.497   4.870   5.398  1.2980 -0.3543 -0.3677
11793SOL    HW236065   6.527   4.856   5.546 -0.4959 -0.6412 -0.0156
11794SOL     OW36066   5.458   5.100   3.957  0.2132  0.2159 -0.1889
11794SOL    HW136067   5.442   5.007   3.972  0.5651  0.0977 -0.5289
11794SOL    HW236068   5.371   5.140   3.956 -0.0429 -0.3135 -1.3927
11795SOL     OW36069   0.224   3.835   6.845 -0.1166 -0.1863 -0.2788
11795SOL    HW136070   0.303   3.888   6.855 -1.3388  1.5869  0.5017
11795SOL    HW236071   0.197   3.850   6.754  0.2404 -0.5365 -0.4479
11796SOL     OW36072   6.275   1.567   6.746 -0.2053  0.1035 -0.5925
11796SOL    HW136073   6.304   1.479   6.723  1.5413  0.2918  0.7264
11796SOL    HW236074   6.200   1.553   6.804  1.3484 -0.6288  1.3384
11797SOL     OW36075   7.062   4.540   1.854 -0.2290  0.4342 -0.4401
11797SOL    HW136076   7.088   4.448   1.857 -0.9558  0.0469 -3.1911
11797SOL    HW236077   7.143   4.587   1.837 -0.1760  0.0416 -1.3226
11798SOL     OW36078   0.332   1.046   2.016  0.6492  0.5796 -0.1707
11798SOL    HW136079   0.248   1.087   2.038  0.7200  0.6236  0.0179
11798SOL    HW236080   0.336   1.051   1.921  0.6218  0.9465 -0.1540
11799SOL     OW36081   1.155   3.676   3.158  0.3334 -0.1812 -0.0669
11799SOL    HW136082   1.219   3.605   3.162  0.2291 -0.2323  2.8087
11799SOL    HW236083   1.181   3.735   3.230 -1.3920  1.0780 -0.4293
11800SOL     OW36084   1.303   3.902   3.960  0.0717 -0.1782  0.3314
11800SOL    HW136085   1.384   3.862   3.929  0.9873  0.7768  1.3843
11800SOL    HW236086   1.243   3.829   3.972  1.9163 -1.4488  2.9132
11801SOL     OW36087   6.588   3.931   1.449 -0.2836  0.0274  0.3132
11801SOL    HW136088   6.659   3.876   1.481  0.6990  1.6347  1.0544
11801SOL    HW236089   6.526   3.934   1.521 -0.7226 -0.7199 -0.0252
11802SOL     OW36090   1.589   1.613   0.988 -0.4516 -0.3728 -0.2570
11802SOL    HW136091   1.653   1.592   1.056  1.1675  2.2272 -0.8687
11802SOL    HW236092   1.604   1.547   0.920  0.3735 -0.8323  0.3492
11803SOL     OW36093   4.659   6.693   1.082  0.0217 -0.2938  0.5347
11803SOL    HW136094   4.720   6.738   1.141  2.0778 -0.2023 -1.5163
11803SOL    HW236095   4.695   6.606   1.071  1.7752  0.6795 -3.1294
11804SOL     OW36096   4.619   4.946   5.040 -0.6333 -0.2277 -0.0310
11804SOL    HW136097   4.533   4.988   5.037  0.0635  1.3744  1.1167
11804SOL    HW236098   4.667   4.985   4.966 -0.1520  0.6764  0.7343
11805SOL     OW36099   6.905   6.176   5.000 -0.4527 -0.1301  0.3456
11805SOL    HW136100   6.880   6.112   4.934  0.7427  0.6145 -0.8761
11805SOL    HW236101   6.988   6.211   4.970  0.0759  0.3402  2.1926
11806SOL     OW36102   5.909   5.424   0.499  0.0573  1.0596 -0.6308
11806SOL    HW136103   5.963   5.435   0.577  0.3558  0.5700 -0.7648
11806SOL    HW236104   5.972   5.402   0.430 -0.3376  0.1894 -0.7244
11807SOL     OW36105   2.319   3.409   4.636  0.4573  0.2754 -0.5115
11807SOL    HW136106   2.259   3.391   4.564 -0.3808  1.7512 -0.2314
11807SOL    HW236107   2.394   3.451   4.594  0.9119 -0.7432 -0.7503
11808SOL     OW36108   7.070   6.201   1.000  0.2184  0.4699 -0.4202
11808SOL    HW136109   7.108   6.190   1.087 -0.8837  0.6440  0.0961
11808SOL    HW236110   6.977   6.185   1.012  0.4130 -2.7219 -2.1858
11809SOL     OW36111   5.373   1.376   0.899 -0.0133  0.5003  0.5191
11809SOL    HW136112   5.381   1.300   0.957  1.1713  1.6478  1.9320
11809SOL    HW236113   5.434   1.357   0.827  1.3342  0.6817  1.5646
11810SOL     OW36114   6.798   7.072   1.269 -0.0433 -0.3526  0.5353
11810SOL    HW136115   6.875   7.063   1.213 -1.2183 -1.7338 -0.9263
11810SOL    HW236116   6.791   6.988   1.314 -1.7099 -0.9486 -0.7437
11811SOL     OW36117   5.505   4.060   2.312 -0.1148  0.0763 -0.3470
11811SOL    HW136118   5.565   4.059   2.238 -1.2953 -1.2967 -1.3378
11811SOL    HW236119   5.467   4.148   2.312 -1.1461 -0.3229 -2.2793
11812SOL     OW36120   7.744   0.243   6.323  0.1865 -0.0344  0.1482
11812SOL    HW136121   7.691   0.226   6.401 -2.5447  0.7032 -1.4206
11812SOL    HW236122   7.777   0.157   6.297 -2.0874 -0.9481  0.0017
11813SOL     OW36123   3.154   3.305   0.549  0.7110 -0.4979  0.1412
11813SOL    HW136124   3.198   3.390   0.545  1.1612 -0.7773 -1.9259
11813SOL    HW236125   3.068   3.324   0.587  1.0169  0.7821  0.2332
11814SOL     OW36126   7.644   0.811   1.571 -0.3869 -0.1854 -0.0417
11814SOL    HW136127   7.676   0.790   1.483  1.8904  0.5178  0.5522
11814SOL    HW236128   7.700   0.761   1.630 -0.1520  1.3064  1.0742
11815SOL     OW36129   0.734   7.271   1.823 -0.4861  0.1924  0.0624
11815SOL    HW136130   0.811   7.320   1.795 -0.3866 -0.2789 -0.5133
11815SOL    HW236131   0.731   7.281   1.918 -0.4961  1.3583 -0.0431
11816SOL     OW36132   6.905   7.278   1.575  0.1788  0.0042  0.0757
11816SOL    HW136133   6.850   7.340   1.527  0.2757 -0.9806 -1.3701
11816SOL    HW236134   6.844   7.214   1.610  0.2748 -0.2932 -0.2998
11817SOL     OW36135   5.289   1.423   6.614 -0.2097 -0.4232 -0.6076
11817SOL    HW136136   5.240   1.417   6.532  0.8277 -1.2390 -1.1985
11817SOL    HW236137   5.381   1.415   6.587  0.2209  0.5819  0.5150
11818SOL     OW36138   0.959   4.167   1.826  0.2346  0.1949 -0.4196
11818SOL    HW136139   1.005   4.201   1.903  0.6989 -2.0359  0.3921
11818SOL    HW236140   1.024   4.167   1.757  0.0892  1.3436 -0.5652
11819SOL     OW36141   4.454   0.749   0.146  0.2688  0.3183 -0.0897
11819SOL    HW136142   4.483   0.811   0.078 -0.2728  0.3984 -0.2535
11819SOL    HW236143   4.362   0.769   0.158  0.0367 -0.5860 -0.2854
11820SOL     OW36144   2.553   2.769   7.449 -0.5016  0.5906 -0.3846
11820SOL    HW136145   2.625   2.786   7.388 -0.2443  2.5706  0.4274
11820SOL    HW236146   2.479   2.748   7.392  0.1429  0.7847 -1.3198
11821SOL     OW36147   5.522   7.593   0.836  0.5813  0.1926 -0.0603
11821SOL    HW136148   5.560   7.661   0.781  0.0850 -0.1481 -0.8411
11821SOL    HW236149   5.531   7.513   0.785  2.1421 -0.5592  1.2884
11822SOL     OW36150   2.530   2.627   1.279 -0.7211  0.0409 -0.3514
11822SOL    HW136151   2.593   2.648   1.210  0.4390 -4.1843 -0.8620
11822SOL    HW236152   2.456   2.587   1.233 -1.4109  0.1534  0.6230
11823SOL     OW36153   4.641   6.396   2.329 -0.8513  0.6873 -0.1094
11823SOL    HW136154   4.628   6.460   2.399 -1.3986  0.5979 -0.1218
11823SOL    HW236155   4.557   6.351   2.322 -1.6372  2.3565 -2.5071
11824SOL     OW36156   5.801   6.492   2.866  0.4831  0.0563 -0.4477
11824SOL    HW136157   5.834   6.411   2.906 -0.1080 -0.2277 -0.5232
11824SOL    HW236158   5.837   6.562   2.920  0.9893 -0.2573 -0.3737
11825SOL     OW36159   4.297   7.738   4.196 -0.3040 -0.6243 -0.0742
11825SOL    HW136160   4.368   7.711   4.137  0.1793 -1.3893  0.8168
11825SOL    HW236161   4.217   7.724   4.145  0.0619 -1.8796 -0.3415
11826SOL     OW36162   6.327   6.634   7.666 -0.3761 -0.3384  0.3581
11826SOL    HW136163   6.311   6.566   7.732  1.9508 -2.2771 -0.8944
11826SOL    HW236164   6.392   6.691   7.707  0.0807 -0.7743  0.2530
11827SOL     OW36165   0.685   2.257   1.549 -0.1756 -0.0974  0.3785
11827SOL    HW136166   0.659   2.348   1.565  0.4728  0.1564  0.0662
11827SOL    HW236167   0.671   2.213   1.633 -1.6746 -0.0165  0.2006
11828SOL     OW36168   1.448   3.041   1.951  0.5496  0.1111 -0.0625
11828SOL    HW136169   1.500   2.961   1.942 -0.1919 -0.2909 -0.8699
11828SOL    HW236170   1.408   3.053   1.865 -3.6745 -1.6299  1.3995
11829SOL     OW36171   0.974   7.003   5.282  0.0261  0.0656  0.1389
11829SOL    HW136172   1.041   6.974   5.220  0.9078 -1.1708  1.5955
11829SOL    HW236173   1.014   7.077   5.328  0.1330 -0.2199  0.5144
11830SOL     OW36174   3.426   5.057   0.663 -0.4405  0.3187 -0.2006
11830SOL    HW136175   3.331   5.056   0.660 -0.4813  0.7876  0.7378
11830SOL    HW236176   3.453   5.050   0.571 -1.3336 -2.5018 -0.3670
11831SOL     OW36177   4.375   4.381   6.283 -0.0296  0.3774 -0.2321
11831SOL    HW136178   4.345   4.471   6.278  0.8831  0.6891 -0.3797
11831SOL    HW236179   4.420   4.375   6.367  0.5164  0.2667 -0.5215
11832SOL     OW36180   3.703   4.148   4.184 -0.0316  0.2819 -0.1444
11832SOL    HW136181   3.632   4.168   4.124 -0.9249 -0.7431  0.5119
11832SOL    HW236182   3.779   4.130   4.128 -0.7322 -0.2477 -0.9453
11833SOL     OW36183   2.144   2.882   2.247  0.1702  0.2656 -0.4615
11833SOL    HW136184   2.069   2.937   2.226 -1.4310 -1.6430 -0.0222
11833SOL    HW236185   2.212   2.911   2.186 -0.6887  2.4405 -0.4831
11834SOL     OW36186   1.549   0.981   2.014  0.3821 -0.9565 -0.8328
11834SOL    HW136187   1.501   0.957   1.934 -0.1293 -0.1480 -0.7842
11834SOL    HW236188   1.497   0.944   2.085 -0.3126  0.0785 -0.7685
11835SOL     OW36189   4.648   0.155   1.569  0.4759  0.3136  0.1093
11835SOL    HW136190   4.643   0.232   1.513  2.6157  1.3402  1.1980
11835SOL    HW236191   4.620   0.186   1.655 -1.6604 -0.9502 -0.0573
11836SOL     OW36192   1.505   1.822   0.030 -0.2030  0.2490 -0.0636
11836SOL    HW136193   1.570   1.877  -0.014 -2.0396  0.8867 -2.1914
11836SOL    HW236194   1.506   1.852   0.121  0.9726  1.7158 -0.5160
11837SOL     OW36195   0.016   6.759   3.577 -0.6523  0.0249  0.1059
11837SOL    HW136196   0.066   6.787   3.654 -1.0572  2.6773 -0.4917
11837SOL    HW236197  -0.070   6.798   3.589 -0.5353  1.0292 -1.9352
11838SOL     OW36198   6.206   5.517   1.251  0.5673 -0.0299 -0.4118
11838SOL    HW136199   6.169   5.569   1.322 -0.8282 -0.8957 -0.4789
11838SOL    HW236200   6.140   5.450   1.232  0.9734  0.0591 -2.3936
11839SOL     OW36201   4.154   7.555   7.432 -0.5217  0.3118 -0.0969
11839SOL    HW136202   4.108   7.554   7.516 -1.5855  1.3000 -0.6342
11839SOL    HW236203   4.180   7.464   7.418  0.8123  0.3213  1.8843
11840SOL     OW36204   1.468   6.788   0.212 -0.0087 -0.0085 -1.2086
11840SOL    HW136205   1.544   6.815   0.160  0.5571 -1.4113 -1.1466
11840SOL    HW236206   1.403   6.762   0.147 -0.3199  0.8524 -1.2536
11841SOL     OW36207   3.975   3.642   6.414  0.0972 -1.3678  0.5229
11841SOL    HW136208   4.057   3.682   6.444 -1.6544  2.6527  0.5455
11841SOL    HW236209   3.991   3.619   6.323  1.3102 -0.8603  0.5961
11842SOL     OW36210   5.714   5.954   6.417 -0.1318 -0.4260 -0.0886
11842SOL    HW136211   5.673   5.869   6.428 -0.4651 -0.5195 -1.7713
11842SOL    HW236212   5.679   6.007   6.489 -0.7303 -1.3922  0.3585
11843SOL     OW36213   4.770   3.499   4.122 -0.5559 -0.7789 -0.5202
11843SOL    HW136214   4.677   3.477   4.114 -0.7555 -1.7070  2.8477
11843SOL    HW236215   4.793   3.474   4.212  2.9551 -0.5039 -1.2045
11844SOL     OW36216   1.412   3.320   3.353 -0.5601 -0.1950  0.4854
11844SOL    HW136217   1.455   3.254   3.298  0.2578  1.1517 -0.5702
11844SOL    HW236218   1.464   3.322   3.433  0.4406  0.2844 -0.1399
11845SOL     OW36219   0.435   0.367   7.651  0.1214  0.2734  0.9678
11845SOL    HW136220   0.485   0.297   7.694  0.2378 -0.8318 -0.8623
11845SOL    HW236221   0.470   0.370   7.562 -0.9971  1.5730  0.5456
11846SOL     OW36222   3.123   4.199   1.945 -0.0530 -0.2060  0.5162
11846SOL    HW136223   3.093   4.109   1.928  1.3554 -0.7126  0.5558
11846SOL    HW236224   3.139   4.201   2.039 -0.2261  0.1376  0.5382
11847SOL     OW36225   6.338   3.046   5.229  0.3828  0.3873  0.3228
11847SOL    HW136226   6.308   3.045   5.320  1.5112 -0.0458  0.7053
11847SOL    HW236227   6.344   2.954   5.205 -1.7442  0.4801 -0.8567
11848SOL     OW36228   1.878   5.234   2.025  0.2046  0.1524 -0.5049
11848SOL    HW136229   1.833   5.309   2.064  0.2546 -0.1744  0.1857
11848SOL    HW236230   1.876   5.166   2.093  2.1473  0.2886 -0.2732
11849SOL     OW36231   5.809   3.760   5.475 -0.7656  0.0095  0.7059
11849SOL    HW136232   5.771   3.719   5.397  0.5547  3.8929 -2.3284
11849SOL    HW236233   5.902   3.739   5.469 -0.6992  0.1141  1.3737
11850SOL     OW36234   5.469   2.506   3.441 -0.0444  0.4818 -0.6189
11850SOL    HW136235   5.549   2.558   3.431  0.4458 -0.2846 -0.7290
11850SOL    HW236236   5.482   2.459   3.523 -1.2089  1.7705  0.3499
11851SOL     OW36237   0.756   3.930   3.349 -0.3655 -0.3191  0.2459
11851SOL    HW136238   0.779   4.021   3.328  0.6754 -0.6864 -0.3003
11851SOL    HW236239   0.680   3.911   3.294 -1.3374  0.5687  1.2274
11852SOL     OW36240   2.548   4.527   5.038 -0.2542 -0.1771 -0.3151
11852SOL    HW136241   2.524   4.518   5.131 -0.8870  1.7850 -0.2436
11852SOL    HW236242   2.504   4.607   5.010  2.6902  1.2073 -1.3705
11853SOL     OW36243   3.069   1.847   3.431 -0.0042  0.4782  0.0968
11853SOL    HW136244   3.127   1.911   3.471 -0.6209  1.1348 -0.0316
11853SOL    HW236245   3.009   1.899   3.378  0.3202 -0.3116 -1.0908
11854SOL     OW36246   0.537   3.395   2.360  0.4529 -0.0114 -0.2412
11854SOL    HW136247   0.445   3.419   2.375  0.8436  2.1902 -0.9474
11854SOL    HW236248   0.535   3.335   2.286 -0.4474 -0.3800  0.0705
11855SOL     OW36249   0.901   6.127   4.587  0.1450  0.2814 -0.1953
11855SOL    HW136250   0.927   6.168   4.669  2.9122 -1.3075 -0.1725
11855SOL    HW236251   0.863   6.043   4.613  0.6038 -0.0288 -0.5218
11856SOL     OW36252   7.743   3.504   2.905 -0.1349 -0.2440 -0.4266
11856SOL    HW136253   7.826   3.522   2.861  0.0995 -0.6048 -0.1394
11856SOL    HW236254   7.693   3.584   2.895  0.7425  0.4453  0.4957
11857SOL     OW36255   6.350   4.948   5.315  0.4118 -0.4006 -0.4516
11857SOL    HW136256   6.286   4.882   5.345 -0.1508  0.0131 -0.7246
11857SOL    HW236257   6.322   5.029   5.358 -0.3377  0.1811 -1.9762
11858SOL     OW36258   2.299   4.578   7.144 -0.4485 -0.6873  0.1009
11858SOL    HW136259   2.361   4.540   7.082 -0.4005  0.5613 -0.6416
11858SOL    HW236260   2.251   4.503   7.179 -0.5677 -1.4174 -1.5370
11859SOL     OW36261   5.510   3.675   2.699  0.4357  0.4222 -0.1800
11859SOL    HW136262   5.597   3.640   2.681  0.3314  0.5869 -1.0802
11859SOL    HW236263   5.478   3.704   2.613 -1.3121 -1.4548 -0.2329
11860SOL     OW36264   0.921   2.871   6.369  0.5771 -0.4514 -0.6108
11860SOL    HW136265   0.982   2.879   6.296  1.2935 -3.2626 -0.4394
11860SOL    HW236266   0.861   2.801   6.342  1.5257 -2.3689  1.8288
11861SOL     OW36267   4.470   0.058   4.427 -0.2053 -0.3093 -0.3024
11861SOL    HW136268   4.409   0.059   4.354 -2.4185  0.3025  1.4457
11861SOL    HW236269   4.472   0.148   4.458 -0.4425 -0.7969  1.2273
11862SOL     OW36270   0.797   1.778   0.019 -0.0201  0.3826  0.2169
11862SOL    HW136271   0.749   1.833   0.080 -0.5223  0.2096 -0.0121
11862SOL    HW236272   0.859   1.729   0.073  0.8966  1.6383  0.3453
11863SOL     OW36273   6.624   2.465   3.237 -0.0706 -0.5022 -0.2344
11863SOL    HW136274   6.549   2.406   3.231 -1.0629  0.8077 -1.1429
11863SOL    HW236275   6.622   2.515   3.155  1.4358 -0.0079 -0.0003
11864SOL     OW36276   1.978   1.757   4.032 -0.2996 -0.4794  0.1452
11864SOL    HW136277   1.987   1.677   3.980  0.0145 -0.7953  0.6868
11864SOL    HW236278   1.968   1.826   3.966  1.1877 -0.7317 -0.3800
11865SOL     OW36279   4.834   2.744   0.538 -0.2396  0.0298  0.0723
11865SOL    HW136280   4.891   2.806   0.493  0.0182  0.2316  0.6737
11865SOL    HW236281   4.871   2.735   0.625 -1.2879  0.4023  0.5779
11866SOL     OW36282   2.445   1.401   5.691 -0.8488 -0.2314 -0.9845
11866SOL    HW136283   2.407   1.406   5.778  1.2886  1.1787 -0.0346
11866SOL    HW236284   2.433   1.309   5.664 -0.6312 -0.9665  1.2485
11867SOL     OW36285   3.015   7.733   3.467  0.0266  0.5438 -0.1050
11867SOL    HW136286   3.005   7.665   3.401  0.4155 -0.6192  0.9898
11867SOL    HW236287   2.936   7.727   3.521  0.8248 -0.2554  1.0360
11868SOL     OW36288   2.348   4.555   6.721 -0.0216  0.3567  0.2631
11868SOL    HW136289   2.361   4.634   6.774  1.9273  0.9925 -1.0465
11868SOL    HW236290   2.321   4.488   6.783  2.1257  1.0805  2.0745
11869SOL     OW36291   5.966   7.287   2.361  0.5347 -0.0198 -0.3090
11869SOL    HW136292   6.035   7.318   2.420  0.6062  1.0517 -0.9332
11869SOL    HW236293   5.890   7.273   2.419  0.7495  0.5346  0.1167
11870SOL     OW36294   5.903   6.009   7.585 -0.5804  0.2422  0.3330
11870SOL    HW136295   5.844   5.985   7.513  1.2309 -0.8966 -0.8276
11870SOL    HW236296   5.990   5.987   7.554  0.2863 -0.2528  2.8749
11871SOL     OW36297   1.103   7.374   0.378  0.3562 -0.4211  0.0258
11871SOL    HW136298   1.179   7.387   0.435  1.6510 -0.8759 -1.5059
11871SOL    HW236299   1.040   7.326   0.431  1.0483  0.1603  1.4100
11872SOL     OW36300   7.448   7.277   1.047 -0.2774  0.4737  0.4836
11872SOL    HW136301   7.388   7.318   0.984  1.3074  1.5932 -0.3756
11872SOL    HW236302   7.430   7.184   1.040 -0.4790  0.6148 -1.2926
11873SOL     OW36303   3.206   4.519   5.166  0.0192 -0.0845  0.2673
11873SOL    HW136304   3.218   4.570   5.246  1.9416 -0.9423  0.5791
11873SOL    HW236305   3.208   4.583   5.096 -2.7231  0.8138  0.8830
11874SOL     OW36306   0.584   6.237   5.810 -0.0227 -0.6476 -0.8273
11874SOL    HW136307   0.507   6.287   5.836  0.2424 -0.2363 -0.8217
11874SOL    HW236308   0.550   6.153   5.780 -0.4177 -0.7143 -0.1971
11875SOL     OW36309   3.945   0.590   1.449 -0.1514 -0.4311 -0.4972
11875SOL    HW136310   4.010   0.583   1.520 -0.0986 -0.7736 -0.5793
11875SOL    HW236311   3.877   0.647   1.485 -0.3155 -0.9079 -0.0227
11876SOL     OW36312   6.568   2.885   6.636  0.0422 -0.3611 -0.5421
11876SOL    HW136313   6.486   2.865   6.683  0.7620  0.1094  0.9720
11876SOL    HW236314   6.578   2.980   6.645  0.5729 -0.3650 -1.0491
11877SOL     OW36315   7.408   2.292   6.507 -0.2571  0.5179 -0.4006
11877SOL    HW136316   7.313   2.289   6.511 -0.2150 -0.5487  1.5899
11877SOL    HW236317   7.429   2.379   6.474 -1.9485  2.2658  2.6944
11878SOL     OW36318   0.488   6.729   4.222  0.1339 -0.7418 -0.7075
11878SOL    HW136319   0.528   6.643   4.237 -0.1339 -0.7512  0.0061
11878SOL    HW236320   0.483   6.768   4.310 -0.6835 -0.4135 -0.8944
11879SOL     OW36321   6.343   2.041   3.939 -0.4202  0.1971 -0.3499
11879SOL    HW136322   6.356   2.086   4.022  2.0279  2.2772 -1.7195
11879SOL    HW236323   6.289   1.965   3.961 -1.0376  1.4058  2.8529
11880SOL     OW36324   1.551   5.776   4.335  0.3354  0.1645  0.0416
11880SOL    HW136325   1.517   5.699   4.379 -0.6435  1.1619  1.0936
11880SOL    HW236326   1.599   5.824   4.403  1.6764  0.0939 -0.8002
11881SOL     OW36327   6.235   2.770   5.413 -0.3513  0.4406  0.1035
11881SOL    HW136328   6.264   2.838   5.474 -1.5119  1.1426 -0.0857
11881SOL    HW236329   6.278   2.690   5.443  2.9916  1.6130 -1.0485
11882SOL     OW36330   5.734   7.242   3.482  0.4479  0.2597  0.1760
11882SOL    HW136331   5.655   7.190   3.473  0.1723  0.6069  0.5711
11882SOL    HW236332   5.800   7.195   3.430  0.3589 -0.7991  0.9812
11883SOL     OW36333   1.581   3.086   4.434  0.0664  1.0376  0.3358
11883SOL    HW136334   1.644   3.103   4.504 -0.6262  2.3674  0.6685
11883SOL    HW236335   1.497   3.114   4.470 -0.4378  0.9068 -0.7138
11884SOL     OW36336   4.172   3.995   6.619  0.4110  0.0287 -0.4378
11884SOL    HW136337   4.219   4.060   6.566  0.9244 -0.6036 -0.7749
11884SOL    HW236338   4.094   3.974   6.568 -0.7090  1.6849  0.4973
11885SOL     OW36339   1.923   0.392   2.078 -0.6722 -0.0312 -0.3183
11885SOL    HW136340   1.858   0.332   2.040 -1.2632  0.7089 -0.5105
11885SOL    HW236341   1.871   0.459   2.121 -0.0383  0.7673 -0.7705
11886SOL     OW36342   1.042   0.279   2.145  0.2491  0.1271  0.0333
11886SOL    HW136343   1.027   0.336   2.220 -2.1449  0.2774 -0.4928
11886SOL    HW236344   0.998   0.197   2.167  0.5994 -0.2686 -0.6887
11887SOL     OW36345   2.181   2.755   6.473 -0.1287  0.2191  0.1190
11887SOL    HW136346   2.128   2.810   6.416 -0.2349 -0.9756 -0.9740
11887SOL    HW236347   2.126   2.680   6.492  1.0571 -0.9693 -0.9097
11888SOL     OW36348   0.492   6.036   2.495  0.3697  0.1133  0.6337
11888SOL    HW136349   0.572   5.990   2.471 -0.5770 -1.2969  0.0315
11888SOL    HW236350   0.520   6.101   2.560  2.0510 -0.0442  0.1106
11889SOL     OW36351   6.287   1.674   3.820  0.0700 -0.6654 -0.2730
11889SOL    HW136352   6.281   1.579   3.819  1.3719 -0.7656 -0.5494
11889SOL    HW236353   6.200   1.704   3.847 -0.1955 -1.9450  0.3488
11890SOL     OW36354   5.976   2.010   5.857 -0.3039  0.1626  0.2274
11890SOL    HW136355   5.981   1.916   5.840  0.4621 -0.0196  1.3160
11890SOL    HW236356   5.956   2.016   5.950 -0.1212  1.0775  0.2120
11891SOL     OW36357   4.930   7.211   0.473  0.9029 -0.6552  0.3894
11891SOL    HW136358   4.842   7.199   0.507  0.5267 -2.7766 -1.1055
11891SOL    HW236359   4.921   7.277   0.404  0.6381 -0.3327  0.7327
11892SOL     OW36360   5.827   1.826   4.703  0.5620  0.3141  0.5104
11892SOL    HW136361   5.907   1.792   4.662 -0.0266  0.9162 -1.2537
11892SOL    HW236362   5.848   1.833   4.796  2.2680 -0.3430  0.2091
11893SOL     OW36363   2.801   1.264   5.635 -0.4119  0.5347  0.0447
11893SOL    HW136364   2.893   1.286   5.617 -0.9718  1.5846 -1.7731
11893SOL    HW236365   2.786   1.294   5.724  1.3796 -0.9521  0.9181
11894SOL     OW36366   3.450   2.340   2.017 -0.0951 -0.4599 -0.0119
11894SOL    HW136367   3.394   2.262   2.018 -1.0964  0.2261  1.3198
11894SOL    HW236368   3.389   2.413   2.017  0.8023  0.3173  0.5376
11895SOL     OW36369   0.321   1.578   1.830  0.4400  0.1782 -0.2745
11895SOL    HW136370   0.403   1.528   1.826 -0.6153 -1.6754 -0.2004
11895SOL    HW236371   0.323   1.633   1.751  1.0402 -1.0557 -1.1628
11896SOL     OW36372   0.360   1.175   0.624 -0.0078  1.0254  0.1460
11896SOL    HW136373   0.324   1.213   0.543  1.0310  0.0697 -0.8058
11896SOL    HW236374   0.284   1.166   0.682 -0.6259  2.5648 -0.3656
11897SOL     OW36375   7.764   2.311   4.258  0.4276  0.3364 -0.2365
11897SOL    HW136376   7.735   2.400   4.274  0.3514  0.1402  0.8373
11897SOL    HW236377   7.711   2.281   4.184 -1.1718  0.4484  0.7973
11898SOL     OW36378   2.384   4.879   6.361 -0.1513  0.3912  0.5089
11898SOL    HW136379   2.359   4.805   6.417  1.4652 -1.4232 -1.0391
11898SOL    HW236380   2.453   4.924   6.410 -0.2056  0.0823  0.8699
11899SOL     OW36381   0.964   0.702   4.903 -0.1225  0.2977  0.0121
11899SOL    HW136382   1.049   0.727   4.867  0.3580 -0.3573  0.6780
11899SOL    HW236383   0.984   0.655   4.983 -1.0178 -1.4997 -0.7506
11900SOL     OW36384   3.255   7.650   4.262  0.2289 -0.0778  0.3653
11900SOL    HW136385   3.197   7.692   4.198 -0.7294 -1.9454 -0.0532
11900SOL    HW236386   3.338   7.639   4.215 -0.6612 -2.0323 -0.8567
11901SOL     OW36387   0.701   4.389   4.047 -0.0627 -0.3841  0.0150
11901SOL    HW136388   0.720   4.365   4.138  1.6108 -4.3114 -1.1247
11901SOL    HW236389   0.787   4.406   4.008 -0.4240 -1.5717 -1.4026
11902SOL     OW36390   6.306   5.347   2.853  0.2069  0.0438  0.6781
11902SOL    HW136391   6.282   5.431   2.814 -0.7899 -0.6222 -0.2011
11902SOL    HW236392   6.223   5.304   2.871  0.5189  0.6401  4.4499
11903SOL     OW36393   2.527   0.291   7.251  0.5764 -0.2847  0.1067
11903SOL    HW136394   2.550   0.383   7.239  0.1331  0.2522  2.7173
11903SOL    HW236395   2.595   0.257   7.311 -1.7085 -0.3312  2.8865
11904SOL     OW36396   2.865   3.434   2.097 -0.0756 -0.0438  0.4165
11904SOL    HW136397   2.772   3.420   2.117  0.3558 -2.7631  0.9119
11904SOL    HW236398   2.906   3.448   2.182  0.1344 -0.0529  0.3180
11905SOL     OW36399   4.971   0.968   7.322 -0.1044  0.2065 -0.3692
11905SOL    HW136400   5.030   1.026   7.370  0.5096  0.5665 -1.5165
11905SOL    HW236401   4.887   1.014   7.321 -0.0048  0.3987 -0.0510
11906SOL     OW36402   0.190   4.502   3.173  0.3511 -0.1187  0.5352
11906SOL    HW136403   0.261   4.550   3.216  1.4704  0.4837 -1.8164
11906SOL    HW236404   0.110   4.540   3.210  1.2403  0.9921  1.3928
11907SOL     OW36405   7.707   4.549   5.030  0.2837 -0.1747  0.5161
11907SOL    HW136406   7.638   4.616   5.030 -0.0440 -0.4878  1.6122
11907SOL    HW236407   7.661   4.467   5.015  0.3853 -0.3980  1.3441
11908SOL     OW36408   0.476   4.762   5.061  0.1840  0.4417 -0.4058
11908SOL    HW136409   0.557   4.813   5.052  1.5578 -1.5327  0.2093
11908SOL    HW236410   0.482   4.695   4.994 -0.2803 -0.5779  0.5419
11909SOL     OW36411   1.773   6.653   1.922  0.5323  0.3917 -0.2256
11909SOL    HW136412   1.780   6.566   1.960  1.0277 -0.2246 -1.6706
11909SOL    HW236413   1.852   6.699   1.952  0.8734 -0.0521 -0.4309
11910SOL     OW36414   6.400   2.523   5.114 -0.0525 -0.5697 -0.6708
11910SOL    HW136415   6.378   2.616   5.101  0.8617 -0.1886  0.2737
11910SOL    HW236416   6.496   2.523   5.121  0.1372 -1.8840 -2.6993
11911SOL     OW36417   5.714   6.054   7.355  0.4828 -0.1471 -0.1421
11911SOL    HW136418   5.779   5.997   7.313  1.1632 -0.1857  0.9260
11911SOL    HW236419   5.747   6.143   7.342 -0.8946  0.1170 -2.3524
11912SOL     OW36420   5.067   0.416   6.774  0.9434  0.2606  0.3569
11912SOL    HW136421   5.149   0.459   6.796  0.8307  0.7838 -0.2152
11912SOL    HW236422   5.051   0.355   6.847  2.9254 -1.4494 -0.5318
11913SOL     OW36423   3.272   3.287   4.680 -0.1647 -0.2773  0.2477
11913SOL    HW136424   3.214   3.360   4.702 -1.0376 -0.5876 -0.9005
11913SOL    HW236425   3.321   3.317   4.604 -2.3044 -1.6899 -1.8272
11914SOL     OW36426   1.212   4.884   4.802 -0.1197 -0.1807 -0.4707
11914SOL    HW136427   1.187   4.951   4.738  0.3237 -0.6264 -1.1194
11914SOL    HW236428   1.290   4.920   4.845 -0.4879  0.1726 -0.0823
11915SOL     OW36429   3.128   4.623   7.479 -0.8647  0.1113 -0.8189
11915SOL    HW136430   3.056   4.681   7.453  0.6107  1.9181 -1.1160
11915SOL    HW236431   3.146   4.647   7.570 -1.2098 -0.9731 -0.4579
11916SOL     OW36432   4.660   7.017   6.927  0.3069  0.2279  0.2850
11916SOL    HW136433   4.642   7.108   6.950 -0.8043 -0.2283  1.2501
11916SOL    HW236434   4.691   7.022   6.836  1.8076  1.7187  0.8273
11917SOL     OW36435   7.224   0.365   2.033  0.0252 -0.1478 -0.6923
11917SOL    HW136436   7.233   0.418   2.112 -1.6650  0.5959 -0.9601
11917SOL    HW236437   7.314   0.355   2.000  0.4933  1.5712 -0.0139
11918SOL     OW36438   6.092   1.468   5.605  0.1114  0.2293  0.2442
11918SOL    HW136439   6.050   1.486   5.520  0.9691 -0.9856 -0.4557
11918SOL    HW236440   6.032   1.408   5.649  0.4033 -0.3485 -0.1438
11919SOL     OW36441   3.378   1.700   1.801 -0.1439 -0.0111 -0.2428
11919SOL    HW136442   3.284   1.689   1.813 -0.3194 -0.5108 -1.7924
11919SOL    HW236443   3.417   1.640   1.864 -0.9012 -0.7399 -0.4436
11920SOL     OW36444   4.351   5.336   0.664  0.1417 -0.3883  0.1438
11920SOL    HW136445   4.419   5.403   0.663 -1.0131  0.8340 -1.2216
11920SOL    HW236446   4.275   5.379   0.703 -0.4638 -1.0676 -0.2602
11921SOL     OW36447   0.954   1.425   1.856 -0.0536 -0.3314  0.7638
11921SOL    HW136448   0.936   1.450   1.765 -0.2401 -0.2647  0.8174
11921SOL    HW236449   1.014   1.493   1.888  0.8733 -0.9580  0.3643
11922SOL     OW36450   1.756   5.708   5.464  0.6547  0.3456 -0.0986
11922SOL    HW136451   1.841   5.687   5.425  0.7802  0.0890  0.3072
11922SOL    HW236452   1.765   5.799   5.493  0.9468  0.1792  0.3439
11923SOL     OW36453   6.388   1.081   1.410  1.4665  0.1134  0.8014
11923SOL    HW136454   6.354   1.035   1.333  0.6541  2.1077 -0.0993
11923SOL    HW236455   6.476   1.046   1.422  0.8217 -1.8077  0.3280
11924SOL     OW36456   6.312   6.655   2.796  0.4255  0.1723  0.4285
11924SOL    HW136457   6.275   6.619   2.876 -0.0725  0.2263  0.2236
11924SOL    HW236458   6.387   6.707   2.826  0.2592  0.1702  0.8570
11925SOL     OW36459   7.765   0.596   7.124  0.0999 -0.2763 -0.6356
11925SOL    HW136460   7.801   0.565   7.041  0.5811 -0.8985 -0.2058
11925SOL    HW236461   7.698   0.660   7.100  0.8650  0.2254 -1.4877
11926SOL     OW36462   2.315   2.642   4.307  0.2233  0.3715  0.0160
11926SOL    HW136463   2.289   2.731   4.329  0.5589  0.2359  1.0467
11926SOL    HW236464   2.337   2.602   4.391 -0.1476 -0.7601 -0.3983
11927SOL     OW36465   4.017   0.646   0.681  0.0762 -0.3075 -0.1455
11927SOL    HW136466   3.984   0.556   0.675  1.4343 -0.8022 -0.4506
11927SOL    HW236467   3.985   0.688   0.601 -1.0495 -0.3325  0.2724
11928SOL     OW36468   5.535   5.911   5.836  0.1945 -0.9052 -0.0019
11928SOL    HW136469   5.625   5.925   5.807  0.3606  0.8791  1.2215
11928SOL    HW236470   5.482   5.919   5.757  0.8431  1.2256 -0.2693
11929SOL     OW36471   4.497   0.783   2.686  0.0374  0.2302  0.1906
11929SOL    HW136472   4.425   0.813   2.740 -1.0950 -2.9902  0.7218
11929SOL    HW236473   4.575   0.821   2.726 -1.1250  1.5166  1.3151
11930SOL     OW36474   3.862   5.030   4.784  0.4696  0.6384  0.3916
11930SOL    HW136475   3.899   5.096   4.726  0.5413  0.6850  0.4918
11930SOL    HW236476   3.781   5.002   4.740  0.6789  0.4584  0.1217
11931SOL     OW36477   6.011   5.980   0.583  0.1372 -0.2315  0.1377
11931SOL    HW136478   5.962   6.013   0.508  1.8212 -1.7679 -1.7559
11931SOL    HW236479   5.989   5.887   0.587  1.1021 -0.4477  0.6907
11932SOL     OW36480   4.518   3.218   7.433  0.6423  0.0314 -0.1419
11932SOL    HW136481   4.597   3.270   7.422  0.2260  0.7347  0.0945
11932SOL    HW236482   4.535   3.137   7.386  1.6815 -0.0216  0.3168
11933SOL     OW36483   7.444   6.378   1.796  0.1970  0.0145  0.0668
11933SOL    HW136484   7.423   6.410   1.708 -1.5099 -0.4220  0.2823
11933SOL    HW236485   7.535   6.404   1.810  0.7294 -0.4897 -2.0804
11934SOL     OW36486   1.421   6.817   2.326 -0.8572  0.1520  0.3396
11934SOL    HW136487   1.383   6.738   2.364 -0.5747  0.1816  0.6843
11934SOL    HW236488   1.485   6.847   2.390  0.5968 -0.5448 -0.7190
11935SOL     OW36489   7.443   4.473   5.988 -0.0168 -0.3194  0.7776
11935SOL    HW136490   7.378   4.487   5.920  1.1436 -1.9710 -0.7622
11935SOL    HW236491   7.398   4.496   6.069 -2.1179 -0.2690 -0.3401
11936SOL     OW36492   0.389   0.096   3.013  0.4778  0.4304 -0.0849
11936SOL    HW136493   0.328   0.139   2.953  0.1975 -1.0534 -0.8967
11936SOL    HW236494   0.428   0.169   3.062 -0.0919  1.5993 -1.2856
11937SOL     OW36495   2.569   7.528   5.826  0.0755 -0.2560 -0.0410
11937SOL    HW136496   2.639   7.508   5.888  0.2036  1.9979  0.5982
11937SOL    HW236497   2.530   7.442   5.807  4.2204 -1.9884 -2.0202
11938SOL     OW36498   1.011   3.091   1.535  0.2891  0.2174 -0.5313
11938SOL    HW136499   1.030   3.075   1.627  0.9655 -2.8034 -1.0894
11938SOL    HW236500   1.066   3.165   1.511 -0.6197  1.7101  1.6549
11939SOL     OW36501   1.111   0.096   5.009 -0.3800 -0.0875 -0.1541
11939SOL    HW136502   1.064   0.175   5.035 -1.9879 -0.7289 -0.9567
11939SOL    HW236503   1.075   0.028   5.066  0.6980 -0.3462  0.2489
11940SOL     OW36504   0.882   0.133   1.781 -0.2904  0.1388 -0.1128
11940SOL    HW136505   0.926   0.054   1.812 -2.5400 -0.3522  2.1236
11940SOL    HW236506   0.810   0.101   1.727  0.5632  0.8445 -1.7496
11941SOL     OW36507   2.190   0.256   0.042 -0.4155  0.1379  0.4084
11941SOL    HW136508   2.258   0.198   0.074 -0.1840 -0.5005 -1.1548
11941SOL    HW236509   2.118   0.245   0.104 -0.8085 -2.7027 -0.4146
11942SOL     OW36510   0.005   1.484   6.711 -0.2960  0.1922  0.1707
11942SOL    HW136511  -0.070   1.533   6.747 -0.6688 -0.0123 -0.3180
11942SOL    HW236512  -0.015   1.475   6.618  0.0914 -0.3191  0.1329
11943SOL     OW36513   6.454   3.112   3.416  0.4485  0.2498 -0.1752
11943SOL    HW136514   6.528   3.055   3.393  0.7013  0.9298 -1.1239
11943SOL    HW236515   6.441   3.098   3.509  1.9679  0.3215  0.0802
11944SOL     OW36516   2.149   2.059   2.734 -0.4372 -0.1801  0.0600
11944SOL    HW136517   2.080   2.087   2.674  0.3903 -0.0140 -0.8622
11944SOL    HW236518   2.147   2.123   2.805 -1.0065  0.0113 -0.1243
11945SOL     OW36519   3.775   3.994   5.702 -0.3308 -0.9193  0.0945
11945SOL    HW136520   3.781   3.986   5.607 -1.5255 -0.0924 -0.0629
11945SOL    HW236521   3.784   4.088   5.719  1.3359 -1.1914  0.9339
11946SOL     OW36522   5.752   2.166   5.754 -0.1619  0.0672 -0.2188
11946SOL    HW136523   5.838   2.137   5.786 -0.2388  0.1621  0.0669
11946SOL    HW236524   5.743   2.123   5.669  0.4703  0.6072 -0.5643
11947SOL     OW36525   6.584   2.631   2.353  0.1269 -0.6075 -0.3031
11947SOL    HW136526   6.506   2.581   2.329 -0.9202  0.8324 -0.0011
11947SOL    HW236527   6.550   2.710   2.394  1.7448  0.2303 -0.5141
11948SOL     OW36528   4.124   5.112   2.719 -0.6010  0.3771  0.1914
11948SOL    HW136529   4.215   5.082   2.725 -0.8487 -0.2225  1.0980
11948SOL    HW236530   4.079   5.045   2.668 -0.4889  0.8187 -0.5087
11949SOL     OW36531   2.746   5.261   4.970  0.5758 -0.7273 -0.4008
11949SOL    HW136532   2.699   5.226   4.895  1.9622  0.7959 -2.0918
11949SOL    HW236533   2.779   5.185   5.017 -0.9609 -1.7231 -0.8946
11950SOL     OW36534   4.623   1.825   4.526  0.0314  0.0168 -0.0890
11950SOL    HW136535   4.630   1.876   4.607 -1.3038 -0.9756  0.6924
11950SOL    HW236536   4.532   1.798   4.523  0.2401 -0.6004 -1.5552
11951SOL     OW36537   1.978   4.475   5.398 -0.3112 -0.5306  0.2231
11951SOL    HW136538   1.962   4.557   5.446 -1.9519 -0.6566 -0.0628
11951SOL    HW236539   2.054   4.437   5.442 -0.1248  0.6569  1.0000
11952SOL     OW36540   1.253   7.708   5.588 -0.0562  0.3739 -0.5166
11952SOL    HW136541   1.345   7.733   5.580  0.0230  0.4851  0.5215
11952SOL    HW236542   1.204   7.786   5.559  0.1935  1.1268  0.9826
11953SOL     OW36543   2.673   6.592   3.716  0.1085 -0.0495 -0.4324
11953SOL    HW136544   2.731   6.668   3.709 -2.9053  2.7861  1.8283
11953SOL    HW236545   2.654   6.569   3.626  2.0748  1.0636 -1.2093
11954SOL     OW36546   0.480   5.029   1.774  0.5237 -0.9028 -0.0431
11954SOL    HW136547   0.439   4.945   1.752  2.2706 -1.8681  0.2620
11954SOL    HW236548   0.562   5.006   1.816  1.4245  0.9701 -0.6583
11955SOL     OW36549   7.131   4.815   7.124 -0.2362 -0.4969  0.3286
11955SOL    HW136550   7.187   4.789   7.198 -0.5870 -0.2655  0.6775
11955SOL    HW236551   7.155   4.755   7.054 -0.7701 -1.5229  1.0090
11956SOL     OW36552   4.807   0.532   0.616 -0.3556  0.3286  0.1376
11956SOL    HW136553   4.787   0.443   0.645  0.4097  0.2352  0.4153
11956SOL    HW236554   4.860   0.519   0.537 -2.3558  0.5742 -1.3072
11957SOL     OW36555   7.245   0.035   5.014  0.3084  0.3319 -0.0943
11957SOL    HW136556   7.235   0.068   4.924  0.8303  1.0966  0.1202
11957SOL    HW236557   7.296  -0.046   5.004  1.5896  1.1436 -0.3825
11958SOL     OW36558   3.417   1.670   6.907  0.4255 -0.0016  0.1022
11958SOL    HW136559   3.376   1.753   6.886  2.5573  1.2652  0.6213
11958SOL    HW236560   3.348   1.605   6.896 -1.1576  1.7594 -0.8390
11959SOL     OW36561   6.844   4.363   0.950 -0.2444 -0.2820 -0.0060
11959SOL    HW136562   6.888   4.366   1.035  0.4078  1.1298 -0.3639
11959SOL    HW236563   6.872   4.280   0.911  0.3986 -0.3882  0.6614
11960SOL     OW36564   7.423   7.536   5.172  1.0743  0.1817  0.4085
11960SOL    HW136565   7.340   7.553   5.216  1.0938 -0.3410  0.6523
11960SOL    HW236566   7.479   7.496   5.239  1.2153 -0.3107  0.0107
11961SOL     OW36567   5.558   6.602   2.820  0.4086 -0.1011  0.1134
11961SOL    HW136568   5.642   6.558   2.837 -0.7436 -1.7522  1.9280
11961SOL    HW236569   5.539   6.649   2.901 -1.3300 -1.3747  0.4929
11962SOL     OW36570   7.658   4.970   0.182 -0.2255  0.3391  0.0438
11962SOL    HW136571   7.616   4.884   0.186 -0.2382  0.3456  0.0555
11962SOL    HW236572   7.608   5.024   0.244  0.5230  0.0253  0.9498
11963SOL     OW36573   3.699   1.197   7.222  0.2024 -0.4648 -0.2610
11963SOL    HW136574   3.735   1.109   7.232  1.3577 -0.2775 -2.0733
11963SOL    HW236575   3.651   1.194   7.139  0.2093  0.5622 -0.3197
11964SOL     OW36576   2.722   2.538   5.533  0.0594  0.1571  0.1072
11964SOL    HW136577   2.630   2.533   5.507 -0.1021 -0.0004  0.6826
11964SOL    HW236578   2.729   2.623   5.577  0.9232  1.6184 -2.6097
11965SOL     OW36579   0.302   0.833   0.335 -0.5196 -0.3018 -0.0012
11965SOL    HW136580   0.356   0.776   0.281 -0.9462 -1.4356  0.7251
11965SOL    HW236581   0.300   0.917   0.288  1.6118 -0.2987 -0.2015
11966SOL     OW36582   2.599   0.782   7.670  0.1654 -0.1344  0.2115
11966SOL    HW136583   2.541   0.853   7.643  1.2338  0.8463  0.4141
11966SOL    HW236584   2.546   0.729   7.728 -1.1582 -0.4427 -1.2324
11967SOL     OW36585   6.423   1.556   4.619  0.0565  0.0422  0.4836
11967SOL    HW136586   6.362   1.496   4.576 -1.6937  1.6053  0.6398
11967SOL    HW236587   6.431   1.522   4.708  0.1457 -0.6981  0.1993
11968SOL     OW36588   3.843   6.848   4.884 -0.2273 -0.8047  0.4155
11968SOL    HW136589   3.801   6.915   4.830  0.3367 -0.5376  0.3048
11968SOL    HW236590   3.773   6.818   4.943 -1.1496 -1.8840 -1.1557
11969SOL     OW36591   7.615   4.314   6.737  0.3195 -0.3412  0.2319
11969SOL    HW136592   7.600   4.338   6.829  0.2509  0.2316  0.0715
11969SOL    HW236593   7.534   4.338   6.692  0.8920  0.7377 -0.2392
11970SOL     OW36594   3.462   5.764   1.344  0.5073 -0.3182  0.3393
11970SOL    HW136595   3.402   5.691   1.357  0.8157 -0.7450 -0.5693
11970SOL    HW236596   3.471   5.803   1.431  2.1093 -2.7604  1.3890
11971SOL     OW36597   4.856   2.640   3.810  0.0493 -0.5244  0.0520
11971SOL    HW136598   4.827   2.633   3.719 -0.5506  1.6286  0.0206
11971SOL    HW236599   4.924   2.573   3.818 -0.7376 -1.6072 -1.6022
11972SOL     OW36600   2.528   5.803   6.085  0.1238 -0.3450 -0.5877
11972SOL    HW136601   2.487   5.747   6.152  0.1468  0.9706  0.5754
11972SOL    HW236602   2.615   5.822   6.121  1.3023 -1.9788 -2.3873
11973SOL     OW36603   3.023   2.147   5.979 -0.0124 -0.4738  0.4766
11973SOL    HW136604   2.978   2.097   5.912  0.9495 -2.0682  0.9572
11973SOL    HW236605   3.012   2.239   5.953  0.1862 -1.0351 -1.7273
11974SOL     OW36606   4.680   5.574   2.057 -0.0759 -0.1727  0.1330
11974SOL    HW136607   4.670   5.492   2.008 -1.0472 -0.8722  1.4364
11974SOL    HW236608   4.774   5.589   2.060  0.0804 -0.8943 -0.6815
11975SOL     OW36609   0.474   2.117   5.550  0.1643  0.1483  0.3465
11975SOL    HW136610   0.504   2.188   5.607 -1.6762  0.2903  1.2281
11975SOL    HW236611   0.379   2.117   5.560  0.1187 -2.7090  0.6948
11976SOL     OW36612   7.705   5.137   0.754 -0.2651 -0.4190  0.3949
11976SOL    HW136613   7.750   5.214   0.787  0.1499 -0.4424 -0.0842
11976SOL    HW236614   7.636   5.171   0.697  2.1213 -0.3366 -2.7192
11977SOL     OW36615   7.451   7.382   7.619 -0.2662  0.2519  0.1888
11977SOL    HW136616   7.439   7.302   7.670  0.0038  0.3125  0.3456
11977SOL    HW236617   7.502   7.354   7.543  0.6904  0.4600  0.7384
11978SOL     OW36618   4.141   1.760   3.975 -0.2833 -0.1305 -0.0089
11978SOL    HW136619   4.079   1.698   3.937  0.8548 -0.7478 -0.9424
11978SOL    HW236620   4.185   1.799   3.899  1.3910 -0.6894  0.6156
11979SOL     OW36621   0.602   2.501   0.051 -0.5444  0.4661 -0.0053
11979SOL    HW136622   0.582   2.408   0.037 -0.1825  0.3958 -0.0714
11979SOL    HW236623   0.690   2.512   0.015  0.5404  0.2269  2.3976
11980SOL     OW36624   7.447   7.013   1.149  0.2484  0.0505  0.3188
11980SOL    HW136625   7.497   6.986   1.072 -0.9375  0.3374 -0.5854
11980SOL    HW236626   7.503   6.991   1.223  1.0435 -1.0673 -0.5801
11981SOL     OW36627   7.627   3.507   3.275  0.4024  0.0481  0.0089
11981SOL    HW136628   7.717   3.536   3.266  1.0814 -1.5985  1.0637
11981SOL    HW236629   7.575   3.588   3.277  1.8923  1.0294 -0.0538
11982SOL     OW36630   4.544   3.937   0.342  0.5134 -0.4950 -0.0639
11982SOL    HW136631   4.465   3.936   0.288 -0.6960  0.1929  1.6465
11982SOL    HW236632   4.613   3.904   0.283 -0.6539  0.5642 -2.1303
11983SOL     OW36633   6.021   4.469   6.669  0.1944 -0.2106 -0.1741
11983SOL    HW136634   5.976   4.392   6.702 -1.6467  0.8168 -0.0982
11983SOL    HW236635   5.960   4.506   6.604  0.8505  1.3368  0.0346
11984SOL     OW36636   1.425   5.729   7.039  0.4655 -0.1292 -0.3879
11984SOL    HW136637   1.511   5.690   7.057  0.5689 -0.6841 -1.9153
11984SOL    HW236638   1.445   5.804   6.983  0.1130  1.1036  1.0763
11985SOL     OW36639   6.880   4.772   5.026 -0.0980  0.0698  0.5110
11985SOL    HW136640   6.879   4.771   4.930 -0.0357  0.5399  0.5025
11985SOL    HW236641   6.971   4.753   5.049 -0.3937 -1.4479  0.5096
11986SOL     OW36642   6.608   2.633   6.507  0.5000  0.3960  0.3788
11986SOL    HW136643   6.611   2.573   6.582  1.5311 -0.0694 -0.0161
11986SOL    HW236644   6.630   2.719   6.544 -0.6917  0.4977  0.8954
11987SOL     OW36645   7.464   4.893   5.303  0.1451  0.0146  0.0999
11987SOL    HW136646   7.502   4.969   5.347  1.3397  0.4923 -1.6096
11987SOL    HW236647   7.411   4.849   5.369  2.7490 -0.0011  2.3414
11988SOL     OW36648   4.920   3.670   4.566 -0.6876  0.4632  0.2267
11988SOL    HW136649   4.942   3.581   4.595 -3.1423 -0.8052 -1.4175
11988SOL    HW236650   4.999   3.700   4.520  0.3832 -0.6270  1.2755
11989SOL     OW36651   1.917   6.039   0.039  0.5591  0.0303  0.5070
11989SOL    HW136652   1.834   6.072   0.005  0.9569 -0.2044 -0.7650
11989SOL    HW236653   1.936   5.962  -0.014  1.9766  0.5376  0.2124
11990SOL     OW36654   2.912   7.553   1.754  0.1592  0.2564  0.0438
11990SOL    HW136655   2.934   7.526   1.843  0.9311  0.4624 -0.0760
11990SOL    HW236656   2.992   7.536   1.704  1.1185  3.6826  0.1498
11991SOL     OW36657   2.681   0.619   3.397  0.1553  0.3282 -0.1793
11991SOL    HW136658   2.665   0.529   3.424 -0.5637  0.4021 -0.3324
11991SOL    HW236659   2.606   0.641   3.341 -0.6919  1.6320  1.3624
11992SOL     OW36660   1.465   3.659   6.190  0.4014 -0.1239 -0.3845
11992SOL    HW136661   1.438   3.674   6.099 -0.0124  0.7639 -0.1292
11992SOL    HW236662   1.450   3.743   6.234  1.4138 -0.2868  0.3139
11993SOL     OW36663   2.859   1.353   4.272 -0.0060  0.4654  0.4198
11993SOL    HW136664   2.850   1.272   4.322  0.1092 -0.3583 -0.8465
11993SOL    HW236665   2.951   1.355   4.246 -0.3656  0.1349 -0.9489
11994SOL     OW36666   4.477   2.564   3.660  0.9096  0.3287  0.0611
11994SOL    HW136667   4.567   2.551   3.633  1.0554  0.2025  0.6067
11994SOL    HW236668   4.425   2.523   3.591  1.2922 -0.7290  0.3868
11995SOL     OW36669   6.932   0.459   6.213  0.4521  0.1190 -0.5790
11995SOL    HW136670   6.958   0.405   6.139  0.9426  0.4947 -0.6851
11995SOL    HW236671   6.837   0.457   6.212  0.4616 -0.7644 -0.5651
11996SOL     OW36672   6.279   6.087   0.482  0.0027 -0.1696  0.7274
11996SOL    HW136673   6.220   6.161   0.495 -0.3380 -0.1289 -0.7776
11996SOL    HW236674   6.222   6.011   0.475 -0.0043 -0.0457 -1.4039
11997SOL     OW36675   6.577   5.400   4.945  0.5680 -0.2231 -0.1146
11997SOL    HW136676   6.610   5.356   4.866 -0.0053  1.0564 -1.1237
11997SOL    HW236677   6.542   5.330   4.999  0.0982 -1.0567 -1.4505
11998SOL     OW36678   4.207   4.927   1.252 -0.5232 -0.4836  0.4854
11998SOL    HW136679   4.206   4.992   1.182 -2.4937 -0.5826  0.3780
11998SOL    HW236680   4.143   4.861   1.225 -0.9648 -0.7812  2.1585
11999SOL     OW36681   0.292   5.452   3.740  0.1182  0.1378 -0.0082
11999SOL    HW136682   0.345   5.504   3.680  0.8606  0.4982  0.9363
11999SOL    HW236683   0.319   5.480   3.827 -0.3881 -0.9202  0.5108
12000SOL     OW36684   6.499   6.264   6.145 -0.4095  0.4848  0.0828
12000SOL    HW136685   6.559   6.318   6.197 -0.7171  1.5295 -0.6155
12000SOL    HW236686   6.480   6.189   6.201  1.3214  0.2700  0.4443
12001SOL     OW36687   3.317   2.037   1.672 -0.5386  0.0190 -0.4139
12001SOL    HW136688   3.322   2.116   1.618 -2.5238  0.3004 -0.2879
12001SOL    HW236689   3.228   2.039   1.707 -0.3661 -1.8904  0.2140
12002SOL     OW36690   2.385   2.696   0.297  0.1185  0.2776  0.3488
12002SOL    HW136691   2.421   2.767   0.244  2.9523 -0.3078  1.3141
12002SOL    HW236692   2.401   2.723   0.388  0.3678 -1.1268  0.7484
12003SOL     OW36693   0.606   0.568   2.490 -0.3393 -0.3865 -0.6784
12003SOL    HW136694   0.593   0.605   2.403 -1.2985  0.9765 -0.0049
12003SOL    HW236695   0.518   0.558   2.525  0.0556 -0.1319  0.4343
12004SOL     OW36696   7.598   0.401   6.134  0.4305  0.5085 -0.5618
12004SOL    HW136697   7.639   0.411   6.048  1.3478  2.3118  0.0312
12004SOL    HW236698   7.670   0.374   6.191  0.3356  1.4787  0.0456
12005SOL     OW36699   2.600   0.500   1.809  0.6734 -0.7326 -0.2012
12005SOL    HW136700   2.532   0.524   1.872  1.6102  0.2338  0.5000
12005SOL    HW236701   2.555   0.449   1.743 -0.9246  0.6333 -0.2420
12006SOL     OW36702   7.776   1.062   6.806  0.1609 -0.0899  0.0601
12006SOL    HW136703   7.859   1.026   6.837  0.7259  1.6677  0.7626
12006SOL    HW236704   7.787   1.070   6.712 -0.0016 -1.7230 -0.1204
12007SOL     OW36705   4.759   3.560   1.075 -0.4430  0.4972  0.3054
12007SOL    HW136706   4.757   3.497   1.002  1.0562  1.3990 -0.5528
12007SOL    HW236707   4.672   3.553   1.113 -0.2896 -2.2830  0.4057
12008SOL     OW36708   3.419   0.698   7.552  0.5395  0.1437 -0.8862
12008SOL    HW136709   3.347   0.756   7.575 -1.1885 -1.9157 -0.7847
12008SOL    HW236710   3.489   0.756   7.524  0.2710  2.4959  2.7061
12009SOL     OW36711   6.733   4.837   1.919 -0.2883 -0.1877  0.1154
12009SOL    HW136712   6.828   4.842   1.920 -0.2927  1.0678 -1.4329
12009SOL    HW236713   6.713   4.766   1.857 -0.3405  0.5530 -0.7375
12010SOL     OW36714   0.494   4.782   0.125  0.6672 -0.4473  0.4251
12010SOL    HW136715   0.528   4.870   0.142  1.4304 -0.3079 -1.5948
12010SOL    HW236716   0.416   4.776   0.180 -1.0938  2.6329 -1.3927
12011SOL     OW36717   5.465   1.628   4.446  0.5353  0.3304 -0.6903
12011SOL    HW136718   5.372   1.650   4.456  0.6301  0.3160  0.2871
12011SOL    HW236719   5.505   1.657   4.528  1.5793  1.2677 -1.5102
12012SOL     OW36720   1.639   0.923   4.009 -0.5218 -1.2160  0.1563
12012SOL    HW136721   1.557   0.874   3.997  0.7561 -3.4213 -0.0783
12012SOL    HW236722   1.687   0.874   4.074  1.4179 -1.0581 -1.0797
12013SOL     OW36723   6.666   5.104   1.859 -0.2713 -0.5838  0.9490
12013SOL    HW136724   6.591   5.133   1.910  0.7072 -2.5271  3.7022
12013SOL    HW236725   6.672   5.010   1.875  1.9081 -0.7515 -0.3439
12014SOL     OW36726   6.401   5.655   5.788  0.2067 -0.2151  0.3761
12014SOL    HW136727   6.496   5.670   5.792 -0.0505  1.5953  0.4744
12014SOL    HW236728   6.367   5.697   5.866 -0.5335 -2.4941  1.3529
12015SOL     OW36729   4.273   1.322   0.869 -0.1642 -0.4454  0.2622
12015SOL    HW136730   4.278   1.414   0.892 -0.6582 -0.5094  0.6488
12015SOL    HW236731   4.355   1.304   0.823 -0.6521  0.5226 -1.0627
12016SOL     OW36732   6.593   6.602   2.167  0.0953  0.2691 -0.2823
12016SOL    HW136733   6.547   6.657   2.103  1.8954  0.6934 -1.2933
12016SOL    HW236734   6.619   6.663   2.236  2.1432  0.8041 -1.4319
12017SOL     OW36735   7.279   1.147   3.908  0.0432 -0.4678  0.3734
12017SOL    HW136736   7.339   1.090   3.957 -0.6700  0.9325  3.0497
12017SOL    HW236737   7.196   1.139   3.953 -0.6357  1.0636 -0.5168
12018SOL     OW36738   4.337   0.639   6.347  0.1786  0.2402  0.2057
12018SOL    HW136739   4.260   0.589   6.374  1.4759 -2.1642 -0.2837
12018SOL    HW236740   4.301   0.717   6.303 -1.9257 -0.0720  1.2555
12019SOL     OW36741   0.731   5.912   4.001  0.0987 -0.0863  0.1469
12019SOL    HW136742   0.664   5.968   3.962  0.4009  0.7691  0.8223
12019SOL    HW236743   0.808   5.968   4.007  0.7612 -0.9369 -0.2326
12020SOL     OW36744   5.435   7.419   3.968 -0.0894  0.3922 -0.2884
12020SOL    HW136745   5.519   7.416   4.014 -0.6481  0.7039  0.7916
12020SOL    HW236746   5.372   7.386   4.031 -0.8572  0.6356 -0.9099
12021SOL     OW36747   6.658   6.723   1.280 -0.4151 -0.2748  0.3394
12021SOL    HW136748   6.584   6.783   1.267  0.0201  0.3008  0.4518
12021SOL    HW236749   6.691   6.745   1.367  1.1981  0.9712 -0.5349
12022SOL     OW36750   7.507   1.312   1.307  0.3949 -0.0952  0.0716
12022SOL    HW136751   7.488   1.231   1.259 -0.5177 -2.3645  3.7996
12022SOL    HW236752   7.594   1.298   1.344 -0.2093  0.1072  1.6339
12023SOL     OW36753   3.503   6.515   4.151 -0.0597 -0.0950 -0.2788
12023SOL    HW136754   3.496   6.464   4.232  1.7617  0.7268  0.4501
12023SOL    HW236755   3.440   6.586   4.161  0.1938  0.0318  0.4342
12024SOL     OW36756   0.949   2.282   2.618  0.6018  0.1283  0.1345
12024SOL    HW136757   1.015   2.338   2.657  0.2307 -0.6193  1.9295
12024SOL    HW236758   0.865   2.315   2.652  0.0935  0.5281 -1.4201
12025SOL     OW36759   7.329   4.068   3.270  0.2932  0.1737 -0.4232
12025SOL    HW136760   7.274   3.989   3.265 -0.4419  0.7280 -1.4525
12025SOL    HW236761   7.376   4.070   3.187  0.6134  0.6193 -0.2369
12026SOL     OW36762   4.668   0.659   5.878 -0.1591  0.5726 -0.8911
12026SOL    HW136763   4.597   0.699   5.927  0.0622 -0.5619  0.4110
12026SOL    HW236764   4.650   0.565   5.881  0.9114  0.3341 -1.3235
12027SOL     OW36765   2.955   1.966   6.212 -0.8115 -0.6337 -0.3323
12027SOL    HW136766   2.942   2.055   6.246 -1.4023 -0.6565 -0.4791
12027SOL    HW236767   2.942   1.975   6.117 -2.3009 -1.1162 -0.1983
12028SOL     OW36768   4.388   7.576   6.195 -0.0026  0.4846 -0.0168
12028SOL    HW136769   4.448   7.503   6.184  0.4992  1.0370 -1.2322
12028SOL    HW236770   4.301   7.537   6.191  0.2518 -0.0044 -1.1394
12029SOL     OW36771   2.115   0.979   7.428 -0.1737  0.3636  0.1964
12029SOL    HW136772   2.090   1.058   7.476 -1.4899 -0.2980  0.6390
12029SOL    HW236773   2.104   0.907   7.490  1.7763 -0.1279  0.0526
12030SOL     OW36774   2.361   7.623   2.994 -0.3650  0.1304  0.3425
12030SOL    HW136775   2.316   7.600   2.913  1.6688 -1.8552 -0.2938
12030SOL    HW236776   2.316   7.572   3.062  0.6394 -1.6152 -0.2454
12031SOL     OW36777   6.483   5.730   2.902  0.4894  0.2400  0.1184
12031SOL    HW136778   6.444   5.778   2.975 -0.6648  0.2719 -0.4935
12031SOL    HW236779   6.442   5.768   2.824  1.0225 -0.4139 -0.4918
12032SOL     OW36780   6.413   4.907   5.690 -0.1277 -0.4462 -0.2446
12032SOL    HW136781   6.322   4.905   5.718  0.2101 -0.9695  0.8805
12032SOL    HW236782   6.463   4.901   5.771  0.9075 -0.4387 -0.8665
12033SOL     OW36783   4.006   1.361   6.996  0.1702 -0.2843 -0.7204
12033SOL    HW136784   3.966   1.366   6.909 -0.8466  1.0468 -0.2181
12033SOL    HW236785   4.051   1.445   7.007  1.0705 -0.8131 -0.3212
12034SOL     OW36786   7.644   6.386   2.830  0.7450  0.4901  0.1200
12034SOL    HW136787   7.704   6.422   2.764 -1.4789  0.5254 -2.0314
12034SOL    HW236788   7.581   6.457   2.845  1.1727  0.4575  2.3117
12035SOL     OW36789   3.454   1.205   4.646  0.1197 -0.5324 -0.0141
12035SOL    HW136790   3.391   1.139   4.674 -0.4306  0.1055  0.2571
12035SOL    HW236791   3.400   1.279   4.617  0.7023 -0.5351 -1.1742
12036SOL     OW36792   4.046   3.551   6.170 -0.6479  0.2930  0.1027
12036SOL    HW136793   4.103   3.605   6.115 -1.4270  1.4985  0.4369
12036SOL    HW236794   3.966   3.542   6.119 -0.0028 -1.9457 -0.6550
12037SOL     OW36795   5.357   5.508   0.221  0.0612 -0.6869 -0.0990
12037SOL    HW136796   5.295   5.508   0.294  0.5523 -0.0312  0.3225
12037SOL    HW236797   5.443   5.502   0.262  0.2942 -1.7314 -0.6884
12038SOL     OW36798   0.113   6.432   1.201 -0.0164  0.2486 -0.4186
12038SOL    HW136799   0.111   6.485   1.281 -1.9329 -0.1700 -0.1443
12038SOL    HW236800   0.029   6.450   1.159  0.5276 -0.3615 -1.8170
12039SOL     OW36801   0.200   4.689   0.251 -0.0509  0.5688  0.0931
12039SOL    HW136802   0.185   4.768   0.199 -0.0449  1.1024  0.8836
12039SOL    HW236803   0.124   4.684   0.310 -0.4368 -0.4450 -0.4571
12040SOL     OW36804   6.226   5.370   2.248 -0.3992  0.0572  0.3100
12040SOL    HW136805   6.223   5.321   2.330 -0.8252 -0.2133  0.1361
12040SOL    HW236806   6.319   5.385   2.232 -0.3672  2.2813  2.1140
12041SOL     OW36807   2.881   0.693   3.786  0.2724 -0.2196 -0.8538
12041SOL    HW136808   2.936   0.758   3.743 -2.1869  0.7944 -2.6895
12041SOL    HW236809   2.810   0.744   3.825  0.5608 -1.4692  1.4910
12042SOL     OW36810   1.797   0.511   3.142  0.1056 -0.5302  0.5321
12042SOL    HW136811   1.761   0.515   3.230  1.1737  1.0861  0.9452
12042SOL    HW236812   1.739   0.452   3.095 -0.9396 -0.8171  2.1048
12043SOL     OW36813   0.437   1.422   3.924  0.9352 -0.1340  0.0260
12043SOL    HW136814   0.467   1.356   3.987  1.3128 -0.2603 -0.2821
12043SOL    HW236815   0.447   1.379   3.839 -1.9451 -0.9320 -0.0177
12044SOL     OW36816   0.208   7.739   0.618 -0.4833 -0.4167  0.3278
12044SOL    HW136817   0.211   7.738   0.522 -0.6578  1.4020  0.2544
12044SOL    HW236818   0.216   7.648   0.644 -1.7861 -1.1018 -1.4686
12045SOL     OW36819   3.761   0.077   7.142  0.0396 -0.4258 -0.1441
12045SOL    HW136820   3.849   0.072   7.181 -0.3425 -1.0487  0.6613
12045SOL    HW236821   3.751   0.170   7.121  0.6551 -0.2370  0.3264
12046SOL     OW36822   6.586   4.455   4.327 -0.7949  0.2755  0.0209
12046SOL    HW136823   6.530   4.425   4.399 -1.1767  0.0545 -0.3593
12046SOL    HW236824   6.548   4.415   4.249 -0.1424  0.1818 -0.2575
12047SOL     OW36825   6.494   1.879   0.878 -0.5148 -0.4950  0.1649
12047SOL    HW136826   6.471   1.926   0.798  2.5631 -0.0580 -0.5892
12047SOL    HW236827   6.436   1.803   0.879 -1.3031  0.0139 -1.9248
12048SOL     OW36828   0.639   5.840   4.363 -0.4713  0.2029 -0.1331
12048SOL    HW136829   0.601   5.913   4.314  1.1822  1.0831 -0.1606
12048SOL    HW236830   0.590   5.839   4.446 -1.3460  0.5388 -0.6334
12049SOL     OW36831   7.709   1.355   4.192 -0.7840  0.2544  0.3159
12049SOL    HW136832   7.614   1.362   4.204 -0.8006  0.6657 -0.0294
12049SOL    HW236833   7.719   1.328   4.100 -0.5827 -0.3765  0.5146
12050SOL     OW36834   4.179   0.567   4.278 -0.8321  0.2647  0.2957
12050SOL    HW136835   4.258   0.564   4.332  0.0090 -0.4944 -0.9165
12050SOL    HW236836   4.212   0.588   4.190 -1.9928  0.0042 -0.2131
12051SOL     OW36837   6.757   7.503   3.154 -0.1403 -0.5235 -0.1181
12051SOL    HW136838   6.761   7.596   3.174  0.4414 -0.8065  1.1800
12051SOL    HW236839   6.848   7.474   3.154 -0.2889 -1.0206 -0.9141
12052SOL     OW36840   4.022   2.713   4.982 -0.5960 -0.2389  0.4536
12052SOL    HW136841   3.986   2.788   5.029 -0.4982 -0.0123  0.1701
12052SOL    HW236842   3.998   2.729   4.890 -0.8151 -0.6908  0.4301
12053SOL     OW36843   2.305   2.473   2.195 -0.0881  0.2053  0.2414
12053SOL    HW136844   2.379   2.414   2.177  1.2014  1.6146  0.6785
12053SOL    HW236845   2.332   2.522   2.273 -1.4045  0.9073  0.2788
12054SOL     OW36846   5.490   4.693   6.697  0.4994  0.0512 -0.1726
12054SOL    HW136847   5.413   4.708   6.751  1.5125 -1.3511  1.7769
12054SOL    HW236848   5.551   4.763   6.722  0.6357 -0.0775 -0.1387
12055SOL     OW36849   4.532   2.637   3.090 -0.1005  0.0944 -0.7335
12055SOL    HW136850   4.482   2.582   3.030  0.2638 -0.2578 -0.7150
12055SOL    HW236851   4.475   2.645   3.167 -1.6311  2.4925 -1.9902
12056SOL     OW36852   1.827   2.334   5.450 -0.4509 -0.5163 -0.1072
12056SOL    HW136853   1.761   2.283   5.497  0.1381  0.1111  1.4940
12056SOL    HW236854   1.908   2.319   5.499 -0.1476  1.4392  0.0831
12057SOL     OW36855   3.269   6.430   3.151 -0.2871 -0.5175  0.2747
12057SOL    HW136856   3.275   6.500   3.215  0.1311  1.7339 -2.0411
12057SOL    HW236857   3.359   6.399   3.141 -0.0777  0.2633 -0.3528
12058SOL     OW36858   7.012   1.502   4.384  0.2028 -0.0138  0.0560
12058SOL    HW136859   7.042   1.415   4.358 -1.8745 -1.2614  1.4652
12058SOL    HW236860   6.987   1.545   4.303 -1.2190 -1.7741 -0.4899
12059SOL     OW36861   2.049   3.148   2.757  0.4418  0.2999  0.7935
12059SOL    HW136862   2.060   3.216   2.822  0.0965  1.6951 -0.5476
12059SOL    HW236863   1.956   3.150   2.735  0.3249 -0.9600  1.0903
12060SOL     OW36864   5.576   6.064   4.454  0.2684  0.4280 -0.4733
12060SOL    HW136865   5.645   6.011   4.414 -0.5309 -1.5935  0.6901
12060SOL    HW236866   5.616   6.102   4.532 -0.1522 -1.5713  0.7668
12061SOL     OW36867   4.907   6.174   5.048  0.6848 -0.1926 -0.0742
12061SOL    HW136868   4.891   6.090   5.093  1.7857  0.0235  0.7699
12061SOL    HW236869   4.833   6.229   5.074  0.9064 -0.3221  0.8944
12062SOL     OW36870   6.785   3.740   1.532 -0.2344 -0.1039  0.5065
12062SOL    HW136871   6.813   3.707   1.617  2.5532  2.4498  0.7182
12062SOL    HW236872   6.847   3.700   1.470 -0.1645  0.5830  0.1248
12063SOL     OW36873   2.938   4.695   1.796  0.5656 -1.0293  0.0398
12063SOL    HW136874   2.878   4.621   1.785 -0.9361  0.3170 -1.3474
12063SOL    HW236875   2.963   4.719   1.707  1.0067  0.1465  0.4633
12064SOL     OW36876   4.983   3.486   3.319  0.2824 -0.1774 -0.6137
12064SOL    HW136877   4.922   3.557   3.337 -0.0957 -0.3454 -1.2200
12064SOL    HW236878   4.975   3.428   3.395 -0.2103 -0.1303 -0.6266
12065SOL     OW36879   4.240   5.546   2.961  0.3335  0.4245  0.1899
12065SOL    HW136880   4.310   5.486   2.936 -0.9929 -1.3373  0.4616
12065SOL    HW236881   4.233   5.607   2.887  2.2990  0.8422  0.2921
12066SOL     OW36882   6.102   1.749   6.534 -0.1580  0.2985 -0.0854
12066SOL    HW136883   6.019   1.756   6.582  0.4347 -0.4169  1.0794
12066SOL    HW236884   6.094   1.812   6.463 -1.4770  0.6433  0.3448
12067SOL     OW36885   2.410   7.540   1.471  0.0759  0.2249  0.2093
12067SOL    HW136886   2.472   7.468   1.460  0.2214  0.5042 -0.9017
12067SOL    HW236887   2.432   7.578   1.556  0.2737 -0.7658  0.6160
12068SOL     OW36888   7.160   3.938   1.539  0.4820  0.2470 -0.0973
12068SOL    HW136889   7.078   3.985   1.524  0.5662  0.3961 -0.0951
12068SOL    HW236890   7.181   3.956   1.631  0.4660  0.1284 -0.0704
12069SOL     OW36891   0.331   0.434   7.342 -0.6106  0.4377  0.7057
12069SOL    HW136892   0.393   0.505   7.329 -0.1798  0.4135  2.3167
12069SOL    HW236893   0.247   0.478   7.358 -0.5865  0.5452  0.5349
12070SOL     OW36894   4.678   3.275   1.396 -0.3540  0.0436 -0.4301
12070SOL    HW136895   4.654   3.252   1.306  0.3851 -0.5319 -0.4865
12070SOL    HW236896   4.761   3.230   1.411 -1.0694 -0.8985  0.9609
12071SOL     OW36897   0.663   1.040   1.653 -0.3729  0.1359 -0.1794
12071SOL    HW136898   0.743   1.007   1.695  0.1773  1.3900 -0.1835
12071SOL    HW236899   0.661   0.996   1.568 -0.1442 -0.5353  0.1547
12072SOL     OW36900   1.480   0.672   4.081 -0.3230  0.1826  0.0256
12072SOL    HW136901   1.532   0.684   4.160 -0.8595  1.5310  0.1986
12072SOL    HW236902   1.428   0.593   4.098 -0.0417  0.1592  0.7884
12073SOL     OW36903   0.171   6.769   6.196  0.3132  0.3695  0.0554
12073SOL    HW136904   0.094   6.723   6.162 -1.0946  2.1067  0.7548
12073SOL    HW236905   0.156   6.776   6.290  1.1969  0.9637  0.1683
12074SOL     OW36906   3.251   6.097   0.111 -0.1755 -0.0814  0.2404
12074SOL    HW136907   3.334   6.139   0.135  0.8119 -1.8769  0.1033
12074SOL    HW236908   3.189   6.170   0.105  1.7027  1.5231 -1.1280
12075SOL     OW36909   3.383   0.605   3.030  0.1871 -0.1199 -0.4115
12075SOL    HW136910   3.317   0.670   3.005  0.9631  2.0680  2.6701
12075SOL    HW236911   3.466   0.651   3.022  0.9104 -1.2521  0.3612
12076SOL     OW36912   0.316   7.594   5.353  0.2637 -0.1733 -0.0267
12076SOL    HW136913   0.340   7.667   5.411  0.3281  0.2672 -0.6070
12076SOL    HW236914   0.289   7.525   5.413 -1.6965  0.9698  0.4907
12077SOL     OW36915   0.684   3.526   5.951  0.1813  0.0678 -0.0481
12077SOL    HW136916   0.743   3.559   6.018  1.2963 -1.3074 -0.2973
12077SOL    HW236917   0.742   3.502   5.878 -0.7759 -0.4731 -0.6579
12078SOL     OW36918   0.854   5.041   6.847  0.0518 -0.1084  0.5550
12078SOL    HW136919   0.873   4.980   6.776 -0.3046  0.3204  0.0818
12078SOL    HW236920   0.886   4.997   6.926  1.5590 -0.0788 -0.0116
12079SOL     OW36921   6.450   4.739   6.373  0.3577 -0.5210 -0.0682
12079SOL    HW136922   6.481   4.660   6.328  1.7566  0.4162 -0.8215
12079SOL    HW236923   6.355   4.729   6.376  0.3347 -1.2956 -1.9635
12080SOL     OW36924   0.711   7.021   4.571  0.2079  0.4119  0.4842
12080SOL    HW136925   0.798   6.981   4.574 -0.3336 -0.7993  2.4626
12080SOL    HW236926   0.706   7.074   4.651 -1.2900 -0.6065  1.1282
12081SOL     OW36927   0.163   0.254   0.357  0.1984 -0.2108 -0.4118
12081SOL    HW136928   0.181   0.271   0.265  1.7579 -0.2354 -0.1339
12081SOL    HW236929   0.186   0.163   0.370 -2.8171 -1.1206 -0.6086
12082SOL     OW36930   2.720   1.831   5.040  0.4922 -0.3410  0.1526
12082SOL    HW136931   2.705   1.917   5.002 -1.5245  0.1566  1.8647
12082SOL    HW236932   2.633   1.791   5.046  1.1474 -1.7436  1.0635
12083SOL     OW36933   7.539   3.333   7.663  0.4323 -0.1349 -0.3570
12083SOL    HW136934   7.527   3.340   7.568 -0.4565  0.6891 -0.1958
12083SOL    HW236935   7.627   3.367   7.678  0.4566  0.0245 -0.8503
12084SOL     OW36936   7.479   4.412   0.938 -0.2686  0.1988 -0.2037
12084SOL    HW136937   7.491   4.317   0.938 -0.6636  0.1490 -0.7469
12084SOL    HW236938   7.396   4.426   0.892 -0.3984  0.7842  0.1979
12085SOL     OW36939   4.323   1.277   2.701  0.1522  0.1747 -0.7613
12085SOL    HW136940   4.312   1.185   2.679 -0.4149 -0.6091  2.3175
12085SOL    HW236941   4.234   1.311   2.712  0.3479  1.1782 -2.0624
12086SOL     OW36942   1.972   4.175   1.961 -0.6551 -0.2634 -0.6645
12086SOL    HW136943   1.985   4.092   2.007 -1.1476 -1.5317 -2.6804
12086SOL    HW236944   1.901   4.219   2.008  1.6385  0.5675  2.3540
12087SOL     OW36945   0.320   2.159   6.086 -0.3430  0.1068 -0.1411
12087SOL    HW136946   0.378   2.092   6.052 -1.9475 -1.2966 -0.2319
12087SOL    HW236947   0.250   2.111   6.130 -0.6972  1.7612  1.2387
12088SOL     OW36948   2.931   2.510   0.402 -0.2565  0.3429  0.2794
12088SOL    HW136949   2.870   2.529   0.331 -0.0171 -1.0151 -0.3254
12088SOL    HW236950   2.987   2.440   0.367  0.9499  0.8127  1.2002
12089SOL     OW36951   1.605   7.748   0.452 -0.3508 -0.0251  0.2595
12089SOL    HW136952   1.522   7.712   0.420 -0.6273  0.1993  0.7118
12089SOL    HW236953   1.653   7.672   0.484  0.6559 -0.5121 -2.1931
12090SOL     OW36954   5.181   0.500   4.887  0.9029 -0.1080 -0.2604
12090SOL    HW136955   5.253   0.564   4.887  1.1464 -0.3177 -2.3438
12090SOL    HW236956   5.142   0.508   4.974  2.6660  0.8967  0.4980
12091SOL     OW36957   3.000   2.666   7.069  0.1201  0.5612  0.0886
12091SOL    HW136958   2.933   2.719   7.024  0.1102  1.3419  0.9902
12091SOL    HW236959   2.959   2.581   7.083 -0.3427  0.7371 -0.1883
12092SOL     OW36960   5.566   0.905   0.737  0.1873 -0.2616  0.3162
12092SOL    HW136961   5.496   0.848   0.768 -1.6672  2.1374  0.8186
12092SOL    HW236962   5.530   0.948   0.660  0.9122  1.3338  0.8259
12093SOL     OW36963   2.643   1.244   6.578 -0.3328 -0.0708  0.0982
12093SOL    HW136964   2.680   1.198   6.502  1.2176 -1.5861  1.7009
12093SOL    HW236965   2.681   1.332   6.574  1.9219 -0.9539  0.5482
12094SOL     OW36966   5.104   6.978   4.630  0.7585 -0.3251  0.3909
12094SOL    HW136967   5.095   6.951   4.721 -1.0538  1.8270  0.9397
12094SOL    HW236968   5.020   6.955   4.590 -0.1644  2.6223  0.4474
12095SOL     OW36969   1.005   4.468   0.072  0.0339 -0.5295  0.3705
12095SOL    HW136970   1.098   4.471   0.096 -0.7333 -0.1041  3.8480
12095SOL    HW236971   0.968   4.547   0.111 -1.7609 -0.4610 -1.3475
12096SOL     OW36972   1.917   1.808   6.955  0.1654  0.1311 -0.4667
12096SOL    HW136973   1.890   1.732   6.902  0.0556 -1.3307  1.5536
12096SOL    HW236974   1.869   1.882   6.917 -0.7698 -1.0482 -1.6904
12097SOL     OW36975   0.726   0.066   4.629 -0.0307 -0.2679 -0.3304
12097SOL    HW136976   0.746   0.108   4.546  0.5130  0.0083 -0.0642
12097SOL    HW236977   0.694   0.136   4.685 -0.2112 -0.4195 -0.2393
12098SOL     OW36978   7.467   4.620   7.511 -0.3060 -0.1606 -0.2206
12098SOL    HW136979   7.556   4.638   7.481 -0.4062  1.9192  0.5786
12098SOL    HW236980   7.440   4.544   7.459  1.8421 -0.7417 -0.6150
12099SOL     OW36981   5.562   3.743   0.783 -0.4041  0.0170  0.3410
12099SOL    HW136982   5.477   3.786   0.774 -0.1078  0.9318  1.6891
12099SOL    HW236983   5.624   3.815   0.797  0.2305 -0.7720  1.7536
12100SOL     OW36984   4.153   0.947   5.522  0.5028 -0.1495  0.4920
12100SOL    HW136985   4.196   1.028   5.495  0.2088  0.2595  1.2424
12100SOL    HW236986   4.225   0.886   5.539  0.7422  0.1085  0.4025
12101SOL     OW36987   5.654   5.315   2.803  0.6134 -0.3541 -0.2186
12101SOL    HW136988   5.630   5.403   2.776 -0.8537 -0.5425  0.3671
12101SOL    HW236989   5.607   5.257   2.743 -1.8051 -0.7554  1.9108
12102SOL     OW36990   0.546   0.369   1.477  0.5037  0.2215 -0.4729
12102SOL    HW136991   0.590   0.284   1.468 -0.8089 -0.4508 -0.6961
12102SOL    HW236992   0.455   0.348   1.495  0.1137  1.5929 -0.6972
12103SOL     OW36993   5.301   6.124   6.026 -0.2599  0.0662  0.6647
12103SOL    HW136994   5.215   6.082   6.026 -0.0772 -0.3181  0.0904
12103SOL    HW236995   5.351   6.077   6.092  0.4213 -1.6612 -0.9939
12104SOL     OW36996   5.599   6.272   2.964 -0.4002 -0.0223 -0.4164
12104SOL    HW136997   5.585   6.365   2.982 -1.0878  0.0898 -1.4215
12104SOL    HW236998   5.534   6.251   2.897 -0.4099 -1.2916 -0.0330
12105SOL     OW36999   4.335   6.601   3.028 -0.0802 -0.0477  0.3064
12105SOL    HW137000   4.425   6.610   2.997 -0.2777 -2.1198 -1.0219
12105SOL    HW237001   4.317   6.507   3.025 -2.0799  0.2433  1.1992
12106SOL     OW37002   2.125   4.705   2.901  0.1247 -0.6877  0.3295
12106SOL    HW137003   2.043   4.690   2.854  0.0387  1.3472 -0.2764
12106SOL    HW237004   2.098   4.744   2.985  0.4465  0.2834 -0.0005
12107SOL     OW37005   0.268   1.344   3.101 -0.5285 -0.0807  0.0434
12107SOL    HW137006   0.312   1.261   3.081 -1.3254 -0.5985  0.3845
12107SOL    HW237007   0.334   1.411   3.082 -0.1789 -0.7257 -1.1499
12108SOL     OW37008   3.905   7.439   3.914  0.4656 -0.3462 -0.2328
12108SOL    HW137009   3.896   7.505   3.846 -1.1503 -1.3954 -1.1098
12108SOL    HW237010   3.996   7.409   3.907  0.1190 -1.0735 -2.5994
12109SOL     OW37011   1.698   3.591   0.554  0.0097 -0.0817  0.0442
12109SOL    HW137012   1.684   3.509   0.507 -2.9570 -1.3878  2.8530
12109SOL    HW237013   1.612   3.614   0.588  0.9104  3.7814  0.1969
12110SOL     OW37014   7.155   4.227   6.241 -0.2097 -0.4825 -0.5376
12110SOL    HW137015   7.191   4.261   6.322  0.4432 -0.4147 -0.8523
12110SOL    HW237016   7.071   4.188   6.267 -0.5062  0.4664 -0.0145
12111SOL     OW37017   6.091   2.982   6.736  0.0662 -0.7496 -0.1258
12111SOL    HW137018   6.152   3.039   6.690 -1.0799 -0.8720 -1.8858
12111SOL    HW237019   6.076   2.909   6.676 -1.9436 -0.6314  0.1771
12112SOL     OW37020   3.911   3.663   4.785  0.0323  0.8715 -0.3392
12112SOL    HW137021   3.975   3.727   4.815  0.9966 -0.4462  0.5605
12112SOL    HW237022   3.922   3.589   4.845 -1.3450  0.0418 -1.0618
12113SOL     OW37023   3.322   3.971   7.380  0.3028  0.1813  0.0808
12113SOL    HW137024   3.258   4.042   7.370  2.2959  1.8969 -1.3913
12113SOL    HW237025   3.335   3.938   7.291  0.1306 -1.4205  0.6207
12114SOL     OW37026   4.200   7.303   4.672 -0.5593 -0.5827  0.1520
12114SOL    HW137027   4.219   7.215   4.638 -0.6932 -1.5559  2.4517
12114SOL    HW237028   4.120   7.329   4.626  0.7523 -0.5703 -2.3334
12115SOL     OW37029   7.652   3.051   0.182 -0.0351  0.0663 -0.0551
12115SOL    HW137030   7.606   3.010   0.109 -0.8060 -0.8145  0.9002
12115SOL    HW237031   7.588   3.112   0.220 -0.0852 -0.4057  0.6434
12116SOL     OW37032   7.282   4.307   1.143  0.4465 -0.2764 -0.5865
12116SOL    HW137033   7.365   4.272   1.111 -0.0798 -1.1448 -1.0162
12116SOL    HW237034   7.216   4.242   1.118 -0.4666  0.7172 -0.8423
12117SOL     OW37035   2.713   1.686   2.456 -0.2916  0.5971 -0.5435
12117SOL    HW137036   2.762   1.692   2.538  1.1707  0.4762 -1.3638
12117SOL    HW237037   2.781   1.680   2.388 -1.4292  1.4661 -1.8295
12118SOL     OW37038   0.211   4.013   5.457  0.3422  0.3157  0.0124
12118SOL    HW137039   0.259   4.093   5.434  0.9662 -0.2152 -0.5410
12118SOL    HW237040   0.123   4.044   5.479 -0.1986  0.9344 -2.6348
12119SOL     OW37041   6.837   3.579   0.418  0.7948  0.3075 -0.0471
12119SOL    HW137042   6.791   3.495   0.427 -0.4067  1.0557  1.4232
12119SOL    HW237043   6.922   3.557   0.381  0.1406 -1.4352 -0.5930
12120SOL     OW37044   4.013   7.138   4.241 -0.2702 -0.3951 -0.4016
12120SOL    HW137045   4.108   7.148   4.236 -0.2212  0.3573  1.5064
12120SOL    HW237046   3.986   7.121   4.150  1.9005 -2.8218 -0.7183
12121SOL     OW37047   1.779   5.923   6.155  0.0166  0.7579  0.1617
12121SOL    HW137048   1.760   5.841   6.201 -0.8356 -1.3512 -3.4877
12121SOL    HW237049   1.875   5.931   6.160  0.2025 -0.8951  0.1031
12122SOL     OW37050   1.839   3.479   3.663  0.0647 -0.1132 -1.4487
12122SOL    HW137051   1.900   3.523   3.722 -1.6855 -2.9092  3.0041
12122SOL    HW237052   1.885   3.399   3.636 -0.6716 -1.0425 -0.0537
12123SOL     OW37053   7.434   1.233   7.013  0.0570  0.0139 -0.2704
12123SOL    HW137054   7.346   1.197   7.004  0.7510 -2.3969  1.6999
12123SOL    HW237055   7.485   1.191   6.944 -0.2774  1.4782 -1.4706
12124SOL     OW37056   0.336   7.127   2.042 -0.0797  0.0709  0.1506
12124SOL    HW137057   0.251   7.123   2.087  0.4394  1.3770  1.3291
12124SOL    HW237058   0.399   7.100   2.108  0.6787  1.8057  0.1956
12125SOL     OW37059   5.981   0.261   7.151  0.1285  0.7454 -0.7307
12125SOL    HW137060   5.900   0.219   7.180  0.8212  0.4009  0.8035
12125SOL    HW237061   5.993   0.335   7.211  1.6616 -0.0519  0.0210
12126SOL     OW37062   6.674   3.821   6.051  0.1279 -0.0628  0.3552
12126SOL    HW137063   6.649   3.907   6.086 -0.3809  0.0421 -0.2562
12126SOL    HW237064   6.756   3.800   6.096  1.6253  1.8601 -1.2985
12127SOL     OW37065   6.655   0.814   6.982  0.1591 -0.2309  0.0214
12127SOL    HW137066   6.574   0.768   6.959  0.8524 -1.3995 -0.1552
12127SOL    HW237067   6.703   0.753   7.037  1.2723  0.1310 -0.5083
12128SOL     OW37068   7.610   5.286   5.815 -0.1984  0.4128 -0.2693
12128SOL    HW137069   7.515   5.295   5.823  0.0528  2.6508  0.7904
12128SOL    HW237070   7.624   5.192   5.803 -2.5420  0.0545 -0.6700
12129SOL     OW37071   2.846   5.969   2.413 -0.7393 -0.7890 -0.1255
12129SOL    HW137072   2.924   6.023   2.421 -1.9725  1.2562 -1.1488
12129SOL    HW237073   2.789   5.999   2.484 -2.2690  0.8033 -1.9406
12130SOL     OW37074   0.758   3.638   0.309  0.1222 -0.2581  0.0699
12130SOL    HW137075   0.700   3.567   0.283 -0.3106 -0.1476  0.7229
12130SOL    HW237076   0.735   3.710   0.252 -0.0805 -0.3523  0.0329
12131SOL     OW37077   7.484   3.758   4.997  0.4565 -0.2260 -0.0227
12131SOL    HW137078   7.491   3.687   5.061  1.4689 -2.8915 -2.8108
12131SOL    HW237079   7.421   3.726   4.932 -0.1789  2.1138 -0.6658
12132SOL     OW37080   7.351   0.158   0.616 -0.6885 -0.0000  0.2936
12132SOL    HW137081   7.432   0.109   0.605 -0.8723 -0.5330  1.1569
12132SOL    HW237082   7.380   0.248   0.634 -0.2590 -0.2603  0.9831
12133SOL     OW37083   0.945   2.754   5.214  0.1705 -0.2383  0.3032
12133SOL    HW137084   0.952   2.767   5.120 -0.1781 -0.1458  0.2905
12133SOL    HW237085   0.872   2.810   5.241 -0.5290 -1.1910  0.4479
12134SOL     OW37086   6.521   5.549   7.217 -0.3098  0.5686  0.4307
12134SOL    HW137087   6.559   5.463   7.197 -0.3215  0.2478  1.7196
12134SOL    HW237088   6.429   5.530   7.236 -0.7247  1.1059 -0.9142
12135SOL     OW37089   0.815   1.092   4.040 -0.2517 -0.1051  0.0729
12135SOL    HW137090   0.751   1.130   3.981  0.2630  0.4431 -0.1316
12135SOL    HW237091   0.834   1.161   4.103  0.9083  0.0980 -0.4754
12136SOL     OW37092   3.764   4.291   2.608 -0.1160  0.5700  0.5174
12136SOL    HW137093   3.689   4.282   2.550 -0.9342 -0.3558  1.6602
12136SOL    HW237094   3.796   4.202   2.621  0.6046  0.8574  0.7718
12137SOL     OW37095   6.847   7.431   2.808  0.1051  0.2301 -0.1021
12137SOL    HW137096   6.846   7.396   2.719  2.0991 -0.2812  0.0232
12137SOL    HW237097   6.780   7.500   2.808 -2.1631 -1.8559 -1.0626
12138SOL     OW37098   5.530   0.015   6.017  0.0105  0.3876 -0.0971
12138SOL    HW137099   5.483   0.052   5.942  1.1043 -0.0181 -1.0215
12138SOL    HW237100   5.501   0.066   6.092 -0.1571  1.6555 -1.0045
12139SOL     OW37101   1.203   7.490   5.127  0.4266  0.0949  0.1209
12139SOL    HW137102   1.270   7.480   5.058  1.5098 -0.1549  1.1757
12139SOL    HW237103   1.202   7.406   5.172 -2.6582 -0.9101 -1.5956
12140SOL     OW37104   4.550   3.792   0.571 -0.4177 -0.2405  0.0990
12140SOL    HW137105   4.458   3.819   0.582 -0.1522  0.3142  1.0164
12140SOL    HW237106   4.577   3.833   0.489 -0.4836  1.0488  0.7050
12141SOL     OW37107   7.425   2.754   4.272  0.1639  0.0351  0.0461
12141SOL    HW137108   7.459   2.827   4.322  2.6470 -0.2684 -1.0474
12141SOL    HW237109   7.481   2.749   4.195 -0.8435 -2.1229 -0.6471
12142SOL     OW37110   1.568   3.651   4.235  0.0571 -0.2054 -0.2286
12142SOL    HW137111   1.521   3.656   4.152  0.1078 -0.6097 -0.2830
12142SOL    HW237112   1.658   3.628   4.210  0.4445  1.1506 -0.1737
12143SOL     OW37113   6.619   4.014   2.385  0.5556  0.8061  0.3662
12143SOL    HW137114   6.551   3.982   2.444 -0.4243 -0.6829 -1.4352
12143SOL    HW237115   6.697   3.963   2.407 -0.3385 -1.1905 -0.8593
12144SOL     OW37116   6.865   3.362   0.697 -0.3016 -0.0531  0.2905
12144SOL    HW137117   6.796   3.424   0.676 -0.6677 -0.0566  1.4272
12144SOL    HW237118   6.916   3.405   0.766  0.6259 -0.1958 -0.2919
12145SOL     OW37119   5.792   5.943   4.303 -0.0050  0.1601 -0.1703
12145SOL    HW137120   5.835   5.891   4.235 -1.0361 -2.5227  1.0641
12145SOL    HW237121   5.861   6.002   4.335  2.4475 -2.8951  0.6938
12146SOL     OW37122   2.746   0.704   5.076  0.7255 -0.2822  0.0720
12146SOL    HW137123   2.687   0.766   5.119 -1.6025 -2.2708 -0.0029
12146SOL    HW237124   2.828   0.712   5.124 -0.1999  1.1937  1.5402
12147SOL     OW37125   2.417   6.528   4.775  0.2638  0.1453 -0.1521
12147SOL    HW137126   2.392   6.545   4.684  0.7449 -0.8242 -0.4717
12147SOL    HW237127   2.341   6.556   4.826 -0.9088 -1.3658 -0.9966
12148SOL     OW37128   4.064   7.085   7.321 -0.1732 -0.0199 -0.5315
12148SOL    HW137129   4.056   7.052   7.231  0.0882  0.2156 -0.6416
12148SOL    HW237130   3.983   7.134   7.336 -0.6790 -0.9141 -0.2800
12149SOL     OW37131   4.577   2.385   0.283 -0.0052  0.2045  0.3226
12149SOL    HW137132   4.616   2.317   0.228  0.1923  1.2209 -0.8476
12149SOL    HW237133   4.506   2.421   0.229  2.2147  3.4234 -0.7123
12150SOL     OW37134   2.597   6.576   0.169  0.2973 -0.0373  0.0874
12150SOL    HW137135   2.641   6.491   0.176  0.3518 -0.0241 -0.1011
12150SOL    HW237136   2.645   6.633   0.230  0.0375 -0.2345  0.4825
12151SOL     OW37137   0.382   4.496   0.282  0.2154 -0.2816 -0.2883
12151SOL    HW137138   0.326   4.572   0.268  1.2349  0.4454 -0.5586
12151SOL    HW237139   0.402   4.464   0.194 -1.1906 -1.6428 -0.1599
12152SOL     OW37140   6.859   0.671   7.598  0.2402 -0.0903  0.1158
12152SOL    HW137141   6.883   0.685   7.690  0.0053 -2.8698  0.6901
12152SOL    HW237142   6.771   0.634   7.602 -0.4287  1.2354 -1.3800
12153SOL     OW37143   5.158   7.141   5.535  0.0589 -0.0576 -0.6265
12153SOL    HW137144   5.218   7.208   5.503 -1.0232  1.2195 -0.0931
12153SOL    HW237145   5.076   7.158   5.488 -0.4109 -0.6118 -0.0378
12154SOL     OW37146   4.758   0.519   6.148 -0.3899  0.1296  0.1705
12154SOL    HW137147   4.786   0.600   6.189  1.5477 -0.9300  1.0609
12154SOL    HW237148   4.836   0.486   6.102 -0.9219 -1.5528  0.3890
12155SOL     OW37149   3.632   1.857   6.293 -0.7874  0.0792  0.1096
12155SOL    HW137150   3.566   1.926   6.280  0.0721  0.9311  0.1936
12155SOL    HW237151   3.696   1.872   6.223 -0.1895 -0.1575  0.6015
12156SOL     OW37152   5.428   4.018   6.483  0.1378 -0.1452  0.1011
12156SOL    HW137153   5.385   3.936   6.460  1.3623 -0.8796  0.3355
12156SOL    HW237154   5.457   4.054   6.400  0.7382 -0.6058  0.1105
12157SOL     OW37155   3.557   7.275   5.215  0.2584  0.6137 -0.6790
12157SOL    HW137156   3.634   7.272   5.159  0.1002  0.2725 -0.8817
12157SOL    HW237157   3.591   7.258   5.303  0.4226  0.5420 -0.7558
12158SOL     OW37158   3.412   2.394   1.590 -0.7615 -0.2321 -0.1892
12158SOL    HW137159   3.383   2.455   1.659 -0.4674  2.3949 -2.2490
12158SOL    HW237160   3.331   2.356   1.557 -0.9155 -1.4649  1.4821
12159SOL     OW37161   1.293   5.373   3.861  0.6121  0.6209  0.7847
12159SOL    HW137162   1.377   5.333   3.882  0.2575 -0.2736  0.5665
12159SOL    HW237163   1.280   5.440   3.928  0.5506 -0.6273  2.0659
12160SOL     OW37164   7.355   5.073   2.764  0.0586  0.1918  0.2492
12160SOL    HW137165   7.404   5.131   2.823  0.9787  0.2294 -0.5255
12160SOL    HW237166   7.421   5.036   2.706 -0.8558  0.4078 -0.9770
12161SOL     OW37167   6.310   2.497   3.527  0.0778  0.0098  0.1695
12161SOL    HW137168   6.276   2.468   3.611 -0.1811 -1.7947 -0.5137
12161SOL    HW237169   6.403   2.475   3.531 -0.3500 -2.3236 -0.8362
12162SOL     OW37170   4.665   0.067   2.500 -0.2497 -0.1821 -0.0711
12162SOL    HW137171   4.662   0.005   2.573  0.5802 -1.4833 -1.0972
12162SOL    HW237172   4.629   0.018   2.426 -0.6850  0.9785 -0.6509
12163SOL     OW37173   0.037   5.976   1.872 -0.0233 -0.0526  0.1673
12163SOL    HW137174   0.108   5.977   1.807 -0.1479  1.2930  0.0156
12163SOL    HW237175   0.036   5.887   1.905  2.9092  0.2799  1.4443
12164SOL     OW37176   4.426   6.366   2.926  0.3427 -0.8515  0.9476
12164SOL    HW137177   4.436   6.387   2.833  0.5940  1.0107  1.3502
12164SOL    HW237178   4.474   6.284   2.938 -0.3587 -1.5505 -0.7002
12165SOL     OW37179   3.940   6.887   6.094  0.0771  0.2966  0.2532
12165SOL    HW137180   3.894   6.804   6.107  1.1361 -0.4349 -0.5440
12165SOL    HW237181   3.898   6.926   6.017 -0.4048  0.4981  0.6140
12166SOL     OW37182   6.100   6.360   6.049  0.8765 -0.1472 -0.7373
12166SOL    HW137183   6.123   6.270   6.069  0.0745 -0.5627 -1.5794
12166SOL    HW237184   6.183   6.401   6.024  1.5052 -0.2121  1.1244
12167SOL     OW37185   0.794   1.818   3.485 -0.2195  0.3139 -0.1463
12167SOL    HW137186   0.826   1.884   3.546  2.9117 -1.9383  0.9169
12167SOL    HW237187   0.743   1.758   3.539 -3.4613  1.8762 -1.1860
12168SOL     OW37188   3.825   2.690   6.792 -0.3488 -0.1460  0.2427
12168SOL    HW137189   3.909   2.735   6.795  0.2017 -1.1929  1.0361
12168SOL    HW237190   3.846   2.599   6.772 -1.4399 -0.1044 -1.2364
12169SOL     OW37191   4.236   4.727   1.595  0.9956  0.7446  0.3155
12169SOL    HW137192   4.288   4.767   1.665  2.1242  1.9630 -1.1233
12169SOL    HW237193   4.259   4.778   1.517 -2.2953  1.2613 -0.4645
12170SOL     OW37194   2.746   0.511   0.558 -0.2600  0.0268  0.5099
12170SOL    HW137195   2.819   0.572   0.551  1.6833 -2.1330  0.8217
12170SOL    HW237196   2.731   0.482   0.468  0.2828 -0.6262  0.6230
12171SOL     OW37197   1.923   3.211   6.362  0.3927 -0.4878  0.0458
12171SOL    HW137198   2.012   3.186   6.336  0.1445 -1.1926 -0.1683
12171SOL    HW237199   1.870   3.134   6.341 -0.0027 -0.6925  1.7117
12172SOL     OW37200   3.508   4.144   4.794 -0.1568  0.6772  0.2025
12172SOL    HW137201   3.448   4.163   4.722 -0.1230 -0.3833 -0.1120
12172SOL    HW237202   3.588   4.192   4.771 -0.1701  0.4039 -0.4298
12173SOL     OW37203   7.127   7.030   3.545 -0.4915 -0.2814 -0.0116
12173SOL    HW137204   7.086   7.057   3.628 -1.9266  1.6532 -1.2561
12173SOL    HW237205   7.182   7.105   3.521  0.3843 -1.0795 -0.5505
12174SOL     OW37206   0.286   6.773   2.834  0.0013  0.2406 -0.0140
12174SOL    HW137207   0.301   6.860   2.796  0.5608  0.3417  0.4314
12174SOL    HW237208   0.334   6.713   2.777 -1.2216  0.0897 -0.9224
12175SOL     OW37209   0.477   1.463   1.313  0.0937  0.0751  0.1496
12175SOL    HW137210   0.570   1.441   1.307 -0.2840 -1.5262 -0.3894
12175SOL    HW237211   0.474   1.535   1.375  1.7077  0.2301  0.1057
12176SOL     OW37212   1.804   0.856   3.443  0.1535  0.2377  0.3463
12176SOL    HW137213   1.721   0.838   3.487  0.1178  0.5392  0.4106
12176SOL    HW237214   1.820   0.949   3.461  0.0668  0.4008 -0.3946
12177SOL     OW37215   3.464   4.778   2.667  0.2775  0.5319 -0.3245
12177SOL    HW137216   3.440   4.749   2.579 -0.8318 -1.6606  0.5988
12177SOL    HW237217   3.555   4.807   2.660  0.7166 -1.0524 -1.9162
12178SOL     OW37218   7.361   0.791   1.630 -0.1722 -0.1427 -0.4269
12178SOL    HW137219   7.366   0.726   1.699  0.7886 -0.0719 -0.4246
12178SOL    HW237220   7.451   0.805   1.602 -0.5693 -0.4019 -1.9231
12179SOL     OW37221   6.704   1.757   2.364  0.5868 -0.0239  0.5901
12179SOL    HW137222   6.787   1.775   2.408  0.8812  2.0449 -0.7233
12179SOL    HW237223   6.729   1.714   2.282  0.1710 -1.6257  1.2565
12180SOL     OW37224   0.281   7.508   1.079  0.2903 -0.1344  0.1190
12180SOL    HW137225   0.210   7.572   1.074  0.8421  0.5962  1.2738
12180SOL    HW237226   0.340   7.532   1.009 -0.6644 -0.8685 -0.9839
12181SOL     OW37227   4.173   5.893   1.902  0.3178 -0.7278  0.0433
12181SOL    HW137228   4.267   5.882   1.920  0.4272  1.6566  1.4006
12181SOL    HW237229   4.160   5.988   1.902 -2.0236 -0.9856 -0.6733
12182SOL     OW37230   0.101   7.656   5.647 -0.5476  0.5377  0.1188
12182SOL    HW137231   0.186   7.612   5.651 -1.2383 -0.8799 -0.1890
12182SOL    HW237232   0.115   7.730   5.587 -0.0548 -0.9703 -1.7219
12183SOL     OW37233   7.589   4.331   5.812 -0.3729 -0.1298 -0.3149
12183SOL    HW137234   7.576   4.395   5.882  0.6276 -0.9472  0.6527
12183SOL    HW237235   7.501   4.312   5.779 -0.7839  0.8115  0.2050
12184SOL     OW37236   3.882   5.478   3.896  0.0312  0.1291 -0.5087
12184SOL    HW137237   3.937   5.406   3.866  1.5090 -0.6938  3.5768
12184SOL    HW237238   3.936   5.557   3.882 -0.1396  0.0571 -1.6924
12185SOL     OW37239   5.164   1.312   2.103 -0.2132 -0.2660  0.3604
12185SOL    HW137240   5.070   1.302   2.119 -0.4100  2.6184  1.6120
12185SOL    HW237241   5.202   1.317   2.191  1.3569 -2.6378 -0.1057
12186SOL     OW37242   4.668   4.704   0.273 -0.6234  0.1080  0.4462
12186SOL    HW137243   4.683   4.777   0.333 -1.0275 -0.0080  0.6872
12186SOL    HW237244   4.586   4.726   0.228 -0.2975  0.2211 -0.1063
12187SOL     OW37245   7.465   2.147   2.179 -0.7156 -0.4926 -0.3687
12187SOL    HW137246   7.543   2.136   2.233 -1.0065  1.1756  0.4794
12187SOL    HW237247   7.445   2.059   2.147  0.9025 -1.1167  0.2252
12188SOL     OW37248   2.970   4.879   3.662 -0.3108  0.0148 -0.3301
12188SOL    HW137249   3.064   4.872   3.645 -0.0229 -1.2301  1.5242
12188SOL    HW237250   2.935   4.793   3.637 -0.8683  0.2913 -0.5075
12189SOL     OW37251   1.784   2.346   0.430 -0.1843 -0.5700 -0.0877
12189SOL    HW137252   1.701   2.360   0.384  0.8076  0.4995 -1.6167
12189SOL    HW237253   1.773   2.391   0.514  0.3323  3.5308 -2.0126
12190SOL     OW37254   3.224   4.605   1.312 -0.6673  0.5126 -0.0257
12190SOL    HW137255   3.178   4.606   1.228 -2.0736  0.8936  0.6985
12190SOL    HW237256   3.313   4.632   1.292 -0.9247  0.3923 -1.4177
12191SOL     OW37257   5.126   7.207   3.456 -0.0072 -0.2168 -0.3404
12191SOL    HW137258   5.176   7.289   3.449  1.0130 -0.7433  0.5184
12191SOL    HW237259   5.128   7.171   3.368 -0.4768  0.6688 -0.7343
12192SOL     OW37260   2.682   4.541   3.958  0.4291  0.0217 -0.2939
12192SOL    HW137261   2.698   4.509   4.047  0.0555 -0.1420 -0.2840
12192SOL    HW237262   2.605   4.597   3.966  1.3375  1.3047 -0.2343
12193SOL     OW37263   7.544   7.404   3.064  0.0020  0.1825 -0.1610
12193SOL    HW137264   7.501   7.459   2.999 -2.7776 -2.6994 -1.0145
12193SOL    HW237265   7.601   7.347   3.013  0.1801 -0.0510  0.2982
12194SOL     OW37266   5.144   0.581   1.609 -0.2341  0.2744  0.7291
12194SOL    HW137267   5.136   0.568   1.515 -1.2235  0.8799  0.7243
12194SOL    HW237268   5.111   0.500   1.647  0.3772 -0.0605  0.5577
12195SOL     OW37269   3.882   6.641   6.929 -0.3125 -0.3313 -0.4944
12195SOL    HW137270   3.882   6.646   6.834  3.8771  0.4499 -0.6349
12195SOL    HW237271   3.949   6.575   6.949  0.2484  0.8539  1.8669
12196SOL     OW37272   4.975   4.193   3.275 -0.2319 -0.0283 -0.0087
12196SOL    HW137273   4.988   4.133   3.202  0.8163  0.0893  0.0647
12196SOL    HW237274   4.936   4.139   3.344 -0.2553 -0.3841 -0.2988
12197SOL     OW37275   3.639   0.348   7.109 -0.2840  0.0281  0.3565
12197SOL    HW137276   3.658   0.405   7.183 -1.1521  0.3458  0.3488
12197SOL    HW237277   3.552   0.312   7.128 -1.1803  1.2558 -1.1850
12198SOL     OW37278   2.840   5.029   0.447  0.3978 -0.0277 -0.0491
12198SOL    HW137279   2.851   4.935   0.461 -1.0986 -0.0907  0.9559
12198SOL    HW237280   2.831   5.039   0.352 -1.7624 -1.2273 -0.0317
12199SOL     OW37281   3.139   0.787   0.985  0.2575 -0.2824  0.2638
12199SOL    HW137282   3.129   0.863   0.928  1.0951 -0.9392 -0.8083
12199SOL    HW237283   3.056   0.740   0.978  0.5488 -0.6543 -0.8910
12200SOL     OW37284   6.558   4.276   4.056  0.0013  0.0293 -0.2831
12200SOL    HW137285   6.569   4.197   4.110 -0.2801  0.3915  0.3115
12200SOL    HW237286   6.647   4.309   4.044 -0.1282  2.0284  3.1301
12201SOL     OW37287   0.064   6.722   6.686 -0.5828  0.1059  0.3442
12201SOL    HW137288   0.003   6.770   6.630 -0.0725 -1.2766 -1.5023
12201SOL    HW237289   0.145   6.718   6.634  1.1258  1.7670  2.6549
12202SOL     OW37290   0.456   3.598   5.571 -0.6148 -0.1701  0.0800
12202SOL    HW137291   0.425   3.573   5.658 -0.0822 -1.6683 -0.1188
12202SOL    HW237292   0.462   3.693   5.573 -0.2108 -0.2058  1.8299
12203SOL     OW37293   0.736   3.691   1.032 -0.0076 -0.0222 -0.2668
12203SOL    HW137294   0.816   3.661   1.076  0.8502  0.2621 -1.5974
12203SOL    HW237295   0.668   3.678   1.098  0.9476 -1.2347  0.5518
12204SOL     OW37296   2.859   2.931   2.824 -0.8046  0.5891 -0.5169
12204SOL    HW137297   2.932   2.973   2.870 -0.1386 -0.7067 -0.3631
12204SOL    HW237298   2.819   2.874   2.890 -2.0673  1.3622 -0.5583
12205SOL     OW37299   4.305   1.864   7.561 -0.4375 -0.0009 -0.0339
12205SOL    HW137300   4.305   1.900   7.472  0.4819  1.7183  0.6066
12205SOL    HW237301   4.398   1.854   7.582 -0.6258 -3.0981 -0.2411
12206SOL     OW37302   1.513   7.352   0.301 -0.5171  1.0280 -0.3301
12206SOL    HW137303   1.586   7.298   0.333  0.9705  2.5693 -0.9863
12206SOL    HW237304   1.543   7.442   0.314 -2.4728  1.7045 -0.3071
12207SOL     OW37305   5.461   0.687   6.666 -0.2677  0.4117  0.3143
12207SOL    HW137306   5.443   0.735   6.585 -0.8059 -2.2143 -1.2187
12207SOL    HW237307   5.377   0.686   6.712  0.2469  2.6912  1.4467
12208SOL     OW37308   4.385   3.853   3.947 -0.1202  0.0204 -0.0697
12208SOL    HW137309   4.468   3.895   3.970 -0.4670  0.5721  0.2014
12208SOL    HW237310   4.395   3.762   3.975  1.3505 -0.6105 -2.3479
12209SOL     OW37311   1.244   1.237   2.515 -0.6001  0.3931  0.1299
12209SOL    HW137312   1.234   1.312   2.574 -0.4736  0.0771  0.5581
12209SOL    HW237313   1.299   1.271   2.444  0.7992  0.2948  1.1050
12210SOL     OW37314   0.832   4.779   4.451  0.3771 -0.2205 -0.4439
12210SOL    HW137315   0.755   4.729   4.422 -0.1494  0.5291 -0.3540
12210SOL    HW237316   0.859   4.736   4.532 -0.4079 -0.0305 -0.0720
12211SOL     OW37317   7.375   6.399   1.058 -0.3401 -0.2372  0.2537
12211SOL    HW137318   7.301   6.443   1.100 -2.5154 -2.1634 -1.3782
12211SOL    HW237319   7.338   6.322   1.015  2.8048 -1.9818  0.3265
12212SOL     OW37320   7.777   3.764   2.555  0.4585  0.0727 -0.0935
12212SOL    HW137321   7.800   3.852   2.524 -0.5459  0.1194 -0.7796
12212SOL    HW237322   7.809   3.706   2.486  0.8494 -0.0801  0.2141
12213SOL     OW37323   0.249   7.149   6.937  0.2239  0.1417 -0.0108
12213SOL    HW137324   0.235   7.200   7.017 -0.9624 -1.1159  0.6257
12213SOL    HW237325   0.259   7.215   6.868 -0.8948  1.2498  0.8338
12214SOL     OW37326   6.598   4.918   3.606 -0.3352  0.7916  0.6524
12214SOL    HW137327   6.592   4.967   3.688 -0.9192  0.6085  0.7233
12214SOL    HW237328   6.640   4.835   3.631 -0.2858  0.8368  0.7199
12215SOL     OW37329   3.195   1.818   6.609  0.3662  0.1526 -0.2210
12215SOL    HW137330   3.185   1.833   6.515  0.1377 -4.3004 -1.1578
12215SOL    HW237331   3.106   1.827   6.643 -0.3608 -1.9911 -1.3122
12216SOL     OW37332   1.927   0.485   5.206 -0.2864  0.1845 -0.2961
12216SOL    HW137333   1.917   0.393   5.228 -0.7081 -0.1475 -1.7590
12216SOL    HW237334   1.975   0.523   5.280 -0.3326 -1.1422  0.4361
12217SOL     OW37335   0.041   3.078   5.252  0.4332  0.1169 -0.4170
12217SOL    HW137336   0.011   3.047   5.338  1.4502  0.6979  0.1677
12217SOL    HW237337  -0.006   3.161   5.239  1.7521  1.0444  0.5130
12218SOL     OW37338   1.736   0.515   2.542  0.0192 -0.2315  0.5906
12218SOL    HW137339   1.745   0.450   2.471 -0.5493 -0.0832  0.3735
12218SOL    HW237340   1.734   0.599   2.497  0.2054 -0.1004  0.8291
12219SOL     OW37341   2.090   4.270   1.479  0.0739  0.0481  0.7736
12219SOL    HW137342   2.024   4.337   1.467 -0.5825 -0.7625 -0.2727
12219SOL    HW237343   2.066   4.228   1.562 -1.2331 -0.7529  0.0341
12220SOL     OW37344   6.768   4.143   4.408 -0.0036 -0.0758 -0.4592
12220SOL    HW137345   6.729   4.175   4.490  0.3502  0.8581 -0.6362
12220SOL    HW237346   6.694   4.127   4.350 -0.2025  0.3302 -0.3211
12221SOL     OW37347   4.813   6.877   7.477 -0.3221  0.0706 -0.0452
12221SOL    HW137348   4.804   6.854   7.384 -0.2674  1.4079 -0.4056
12221SOL    HW237349   4.887   6.824   7.507  0.5123  0.5521 -1.1266
12222SOL     OW37350   7.139   6.239   0.366 -0.0590  0.7957 -0.4849
12222SOL    HW137351   7.110   6.326   0.391 -1.1413 -0.0150  1.2515
12222SOL    HW237352   7.152   6.193   0.449  0.9146 -0.5732 -1.3491
12223SOL     OW37353   5.281   7.110   4.842  0.9877  0.3972  0.1686
12223SOL    HW137354   5.337   7.073   4.774 -0.3730  0.7857 -1.2191
12223SOL    HW237355   5.341   7.154   4.902  2.1871  0.6028 -1.1467
12224SOL     OW37356   0.367   0.164   4.912  0.1046 -0.0826 -0.5716
12224SOL    HW137357   0.429   0.209   4.855 -0.3794  0.9003 -0.3373
12224SOL    HW237358   0.389   0.071   4.903  2.3542  0.3009  0.3775
12225SOL     OW37359   1.544   3.074   2.902 -0.0751 -0.2579 -0.0917
12225SOL    HW137360   1.618   3.046   2.848  0.3931  0.0656  0.3675
12225SOL    HW237361   1.471   3.019   2.874  0.2504 -0.3314 -0.8038
12226SOL     OW37362   0.903   7.010   3.797 -0.3776  0.5180 -0.1780
12226SOL    HW137363   0.875   6.989   3.708 -0.4850 -0.5306  0.0891
12226SOL    HW237364   0.961   6.938   3.822  0.2042  1.1502  0.3553
12227SOL     OW37365   6.351   5.846   1.446 -0.3370  0.1206  0.5477
12227SOL    HW137366   6.370   5.906   1.518  0.1252 -0.1452  0.6484
12227SOL    HW237367   6.426   5.855   1.387 -0.4182 -0.1229  0.4057
12228SOL     OW37368   7.332   3.018   2.622 -0.4099  0.0936  0.0060
12228SOL    HW137369   7.340   2.926   2.598  0.1430  0.0577  0.3160
12228SOL    HW237370   7.241   3.028   2.650 -0.3621 -0.4524  0.3595
12229SOL     OW37371   3.344   1.804   1.553 -0.3506 -0.0900 -0.1631
12229SOL    HW137372   3.362   1.764   1.638 -0.3231  1.1212  0.4262
12229SOL    HW237373   3.335   1.898   1.573 -1.0490  0.1149 -1.3859
12230SOL     OW37374   3.734   1.143   0.160  0.5278 -0.1848 -0.0395
12230SOL    HW137375   3.802   1.209   0.146 -0.6571  0.7263 -2.0388
12230SOL    HW237376   3.745   1.116   0.251  1.6879  2.0556  0.5717
12231SOL     OW37377   5.774   3.966   4.766 -0.0978  0.1829  0.0372
12231SOL    HW137378   5.779   4.055   4.731 -3.0405  1.0056  1.4289
12231SOL    HW237379   5.774   3.978   4.861  1.4999 -1.5229  0.3206
12232SOL     OW37380   3.397   5.601   6.354 -0.8249 -0.4792  0.0962
12232SOL    HW137381   3.370   5.662   6.285  0.3815  0.8053  0.6981
12232SOL    HW237382   3.468   5.550   6.315 -1.9959 -1.7190 -0.4878
12233SOL     OW37383   6.289   0.345   5.088  0.1508  0.1823  0.2938
12233SOL    HW137384   6.340   0.265   5.103 -0.6494 -0.2842  0.5903
12233SOL    HW237385   6.336   0.413   5.136  0.4208 -0.2610  0.6714
12234SOL     OW37386   4.636   1.946   4.785 -0.0545  0.5868  0.5839
12234SOL    HW137387   4.669   1.876   4.841  1.9691  0.6218 -0.4699
12234SOL    HW237388   4.579   1.998   4.842 -0.3204 -0.9889  1.8076
12235SOL     OW37389   5.546   3.934   5.181 -0.7087  0.1529  0.5892
12235SOL    HW137390   5.518   3.985   5.257  1.5674 -0.5005  1.9512
12235SOL    HW237391   5.505   3.848   5.193 -0.4078  0.0720  1.0347
12236SOL     OW37392   4.218   1.431   7.586 -0.2917 -0.7307  0.0402
12236SOL    HW137393   4.189   1.371   7.518 -0.4196 -1.8404  1.0565
12236SOL    HW237394   4.274   1.494   7.540 -0.1956 -1.5955 -1.0555
12237SOL     OW37395   5.901   5.437   4.642  0.0012 -0.0217  0.2901
12237SOL    HW137396   5.944   5.437   4.728  0.7535 -0.7251 -0.0684
12237SOL    HW237397   5.901   5.529   4.615  0.5451  0.0980  0.6695
12238SOL     OW37398   0.325   5.201   5.014 -0.0416  0.0182  0.3942
12238SOL    HW137399   0.284   5.125   5.055  0.7425 -0.1089  0.9680
12238SOL    HW237400   0.371   5.165   4.938 -1.4899  0.2526 -0.6326
12239SOL     OW37401   4.760   5.435   5.711 -0.3289  0.5186  0.0289
12239SOL    HW137402   4.823   5.467   5.775  0.4004 -0.5399 -0.1398
12239SOL    HW237403   4.810   5.426   5.630 -0.6000 -0.6603 -0.0201
12240SOL     OW37404   1.197   4.582   6.746  0.0687 -0.4250  0.1762
12240SOL    HW137405   1.116   4.618   6.709  0.3369 -1.5846 -1.6284
12240SOL    HW237406   1.250   4.660   6.765 -0.9247  0.2916  0.1213
12241SOL     OW37407   1.952   5.666   5.747  0.0586  0.2021  0.1081
12241SOL    HW137408   1.894   5.739   5.725  1.2025  1.3382  0.7440
12241SOL    HW237409   2.011   5.701   5.814 -0.5017 -1.8564  1.7517
12242SOL     OW37410   7.774   6.393   3.552  0.2560  0.2301  0.1151
12242SOL    HW137411   7.826   6.426   3.625 -0.9027  3.0160 -0.1745
12242SOL    HW237412   7.796   6.452   3.479 -1.1300 -0.3225 -0.7928
12243SOL     OW37413   5.234   3.149   1.852  0.3889 -0.2653  0.4044
12243SOL    HW137414   5.300   3.158   1.784  0.3503 -1.5676  0.1581
12243SOL    HW237415   5.155   3.189   1.815  0.0278 -2.0196 -0.8515
12244SOL     OW37416   1.811   6.955   6.727  0.3391 -0.0368 -0.5317
12244SOL    HW137417   1.804   6.885   6.792 -1.0434 -0.7584 -1.4004
12244SOL    HW237418   1.852   6.914   6.651  1.7789  0.7533 -0.2122
12245SOL     OW37419   2.155   7.506   1.574  0.4444 -0.5302 -0.0939
12245SOL    HW137420   2.153   7.581   1.633 -0.8645  0.7718 -1.6886
12245SOL    HW237421   2.248   7.495   1.551  0.8195 -0.3625  1.2976
12246SOL     OW37422   2.003   6.121   3.231  0.6086  0.1103  0.1057
12246SOL    HW137423   1.916   6.161   3.228  0.2252 -0.7047  0.2913
12246SOL    HW237424   2.063   6.193   3.209 -0.0104  0.9700  1.1598
12247SOL     OW37425   1.651   6.539   4.665  0.3384  0.0085 -0.1226
12247SOL    HW137426   1.663   6.464   4.725 -1.2689  1.3039  1.9915
12247SOL    HW237427   1.726   6.595   4.682  0.1137  0.1646  0.3719
12248SOL     OW37428   5.895   7.713   2.337  0.0501 -0.1993 -0.0531
12248SOL    HW137429   5.810   7.750   2.312 -0.3647 -0.9170  0.2314
12248SOL    HW237430   5.935   7.779   2.393 -0.4399  0.0397  0.0183
12249SOL     OW37431   5.515   5.003   0.691 -0.1969 -0.0259  0.1447
12249SOL    HW137432   5.535   4.928   0.747 -1.5688 -2.1118 -1.9704
12249SOL    HW237433   5.532   4.972   0.602 -1.9113  1.7838 -0.8912
12250SOL     OW37434   6.549   6.603   6.175  0.4616  0.1935  0.2225
12250SOL    HW137435   6.466   6.648   6.193  0.3516 -0.3597  1.1745
12250SOL    HW237436   6.549   6.589   6.080 -0.3174  0.6136  0.1550
12251SOL     OW37437   1.835   7.212   2.893  0.1189  0.3944  0.0133
12251SOL    HW137438   1.830   7.205   2.797  0.3565  0.7340 -0.0263
12251SOL    HW237439   1.892   7.287   2.908 -0.4634  0.7595  0.4206
12252SOL     OW37440   3.827   0.947   7.223  0.0125 -0.5941  0.5445
12252SOL    HW137441   3.874   0.917   7.146 -0.3520  1.4399 -0.5431
12252SOL    HW237442   3.890   0.938   7.295  1.4899  0.4227 -0.5624
12253SOL     OW37443   0.664   5.739   1.893 -0.1095 -0.2163 -1.2242
12253SOL    HW137444   0.654   5.825   1.853 -0.2095  0.0918 -0.5525
12253SOL    HW237445   0.579   5.697   1.881 -1.1482  1.0025  1.2280
12254SOL     OW37446   2.422   5.170   3.009 -0.0212  0.1723 -0.1332
12254SOL    HW137447   2.348   5.129   2.964 -0.2999 -0.8431  1.1917
12254SOL    HW237448   2.418   5.262   2.983 -3.0641  0.6374  1.5391
12255SOL     OW37449   6.312   5.408   7.670  1.0121 -0.2864  0.1710
12255SOL    HW137450   6.380   5.470   7.644  0.1373  0.2297 -0.9927
12255SOL    HW237451   6.304   5.348   7.596 -0.3266  0.1431 -0.0595
12256SOL     OW37452   0.063   2.683   6.143 -0.3979  0.3326 -0.7491
12256SOL    HW137453   0.128   2.618   6.169 -0.4503 -0.3260 -2.1766
12256SOL    HW237454   0.068   2.751   6.210 -0.1221 -0.9880  0.6041
12257SOL     OW37455   6.979   1.515   6.413 -0.4652 -0.2002 -0.0460
12257SOL    HW137456   7.033   1.534   6.336 -0.8820 -3.6886 -1.4045
12257SOL    HW237457   6.889   1.525   6.383 -0.6278  0.8179  0.7502
12258SOL     OW37458   4.132   7.148   3.214  0.0257 -0.4463  0.2640
12258SOL    HW137459   4.222   7.140   3.182 -0.0904  0.9567 -0.5437
12258SOL    HW237460   4.078   7.114   3.142 -0.1907  1.8149 -0.7546
12259SOL     OW37461   0.341   6.497   7.465 -0.7966  0.3754 -0.2044
12259SOL    HW137462   0.340   6.404   7.442  0.8788 -0.1915  1.6995
12259SOL    HW237463   0.357   6.542   7.382  1.7249 -1.3039 -0.7530
12260SOL     OW37464   5.343   0.297   2.366 -0.3574  0.4097  0.2551
12260SOL    HW137465   5.343   0.205   2.396 -0.4115  0.4540  0.3948
12260SOL    HW237466   5.407   0.299   2.295  0.0783  0.3900  0.6428
12261SOL     OW37467   6.206   2.370   3.317 -0.0139 -0.5986 -0.0893
12261SOL    HW137468   6.113   2.391   3.321 -0.0424 -0.7048 -0.1864
12261SOL    HW237469   6.242   2.404   3.399 -0.2821 -1.2472  0.3074
12262SOL     OW37470   6.398   4.354   3.028 -0.2865  0.1000  0.0995
12262SOL    HW137471   6.429   4.426   2.973  1.6720  0.2437  1.3224
12262SOL    HW237472   6.338   4.306   2.971  2.7702 -0.6704 -2.8155
12263SOL     OW37473   1.272   5.943   7.407 -0.3552 -0.4264  0.7311
12263SOL    HW137474   1.218   5.924   7.330  0.3229 -0.3449  0.2316
12263SOL    HW237475   1.250   6.034   7.429 -0.0543 -0.2316  0.2309
12264SOL     OW37476   7.270   7.748   2.375  0.2265 -0.7398  0.1296
12264SOL    HW137477   7.267   7.827   2.429 -0.1116 -0.1263 -0.7661
12264SOL    HW237478   7.281   7.781   2.285 -1.8172 -1.6025 -0.4955
12265SOL     OW37479   6.429   1.980   5.760 -0.3107  0.5360  0.0084
12265SOL    HW137480   6.439   2.038   5.685  1.8853  2.0507  1.3576
12265SOL    HW237481   6.511   1.931   5.763 -0.8899 -0.4299  0.6958
12266SOL     OW37482   7.077   7.551   2.367  0.3065 -0.8302  0.1316
12266SOL    HW137483   7.146   7.614   2.384  0.0401 -0.7319  0.9193
12266SOL    HW237484   7.058   7.559   2.273  0.4653  0.0607  0.1719
12267SOL     OW37485   1.265   5.059   1.592 -0.1027 -0.0237  0.3773
12267SOL    HW137486   1.174   5.030   1.584 -0.0484  0.1583 -1.2366
12267SOL    HW237487   1.263   5.125   1.661 -0.4690 -2.7144  3.1587
12268SOL     OW37488   2.624   0.185   6.860 -0.6133  0.5547  0.4299
12268SOL    HW137489   2.609   0.138   6.778 -0.9787  1.8836 -0.2891
12268SOL    HW237490   2.571   0.138   6.924 -1.4178  0.3141 -0.3899
12269SOL     OW37491   0.970   3.950   4.706  0.2292 -0.0214  0.1595
12269SOL    HW137492   0.902   3.903   4.755  0.6178  0.5085  1.2434
12269SOL    HW237493   0.983   4.031   4.755  0.2510  0.7883 -1.1480
12270SOL     OW37494   7.057   2.164   3.266  0.2833  0.2485 -0.0007
12270SOL    HW137495   7.151   2.180   3.257  0.1850  0.8941  0.0653
12270SOL    HW237496   7.039   2.182   3.358  0.1259 -0.0746  0.0336
12271SOL     OW37497   0.279   4.216   2.863  0.0916  0.0347 -0.1833
12271SOL    HW137498   0.304   4.181   2.948  3.4194  1.6466 -0.3072
12271SOL    HW237499   0.268   4.310   2.878 -0.5486  0.1540 -1.2889
12272SOL     OW37500   3.306   4.705   2.442 -0.2897  0.1816 -0.0792
12272SOL    HW137501   3.251   4.732   2.516 -0.9394  2.0726 -1.1909
12272SOL    HW237502   3.255   4.726   2.364  2.1116  2.4736 -1.1783
12273SOL     OW37503   5.526   0.361   5.430 -0.2810  0.4526  0.4129
12273SOL    HW137504   5.613   0.379   5.394 -0.1501 -0.9581 -0.0123
12273SOL    HW237505   5.543   0.312   5.510 -0.5766  3.4823  2.4748
12274SOL     OW37506   3.977   5.958   7.643  0.3911  0.2585  0.5577
12274SOL    HW137507   3.990   5.995   7.556  0.4887 -0.2220  0.3640
12274SOL    HW237508   4.063   5.961   7.685  0.0831  1.7593  1.1616
12275SOL     OW37509   2.255   1.169   0.032 -0.1830 -0.1128  0.3966
12275SOL    HW137510   2.178   1.121   0.003  0.4512 -0.6014 -0.5089
12275SOL    HW237511   2.249   1.169   0.127 -1.6613  0.4567  0.3233
12276SOL     OW37512   1.556   2.431   1.472  0.0401  0.0738  0.2465
12276SOL    HW137513   1.481   2.476   1.511  0.4239 -0.8287  2.1735
12276SOL    HW237514   1.632   2.481   1.502  0.4188 -1.3309  1.7657
12277SOL     OW37515   1.487   3.472   1.600 -0.3748 -0.1134 -0.1208
12277SOL    HW137516   1.559   3.512   1.551 -0.4654 -0.2915 -0.3997
12277SOL    HW237517   1.493   3.510   1.687 -0.7602  0.8962 -0.5194
12278SOL     OW37518   6.819   6.857   2.203 -0.2981  0.2005 -0.1030
12278SOL    HW137519   6.850   6.774   2.167  1.5957  0.8127  0.0104
12278SOL    HW237520   6.750   6.832   2.265 -0.6238 -1.1729 -0.9833
12279SOL     OW37521   1.854   1.682   4.549  0.2475  0.7150  0.1213
12279SOL    HW137522   1.861   1.587   4.564 -1.0725  0.5628 -0.1061
12279SOL    HW237523   1.927   1.719   4.598 -0.0533 -0.3070  1.4102
12280SOL     OW37524   1.149   0.337   1.252 -0.3600  0.1776  0.5821
12280SOL    HW137525   1.143   0.405   1.186 -0.3262 -0.6653 -0.3123
12280SOL    HW237526   1.066   0.342   1.300 -0.8212  0.1289 -0.1984
12281SOL     OW37527   2.327   2.579   3.254  0.3912 -0.0882 -0.0222
12281SOL    HW137528   2.337   2.577   3.350  0.6874 -0.3453 -0.0541
12281SOL    HW237529   2.409   2.617   3.223  0.2577  0.0770 -0.1700
12282SOL     OW37530   0.416   3.900   0.498  0.0587  0.3084 -0.0637
12282SOL    HW137531   0.380   3.874   0.414 -0.5427 -3.3699  1.1630
12282SOL    HW237532   0.510   3.912   0.481 -0.1177  0.0243 -1.3133
12283SOL     OW37533   7.164   6.896   0.065 -0.2980 -0.0208 -0.2035
12283SOL    HW137534   7.107   6.972   0.066 -0.2886 -0.0135  1.6789
12283SOL    HW237535   7.181   6.876   0.157  1.3487 -1.0624 -0.6786
12284SOL     OW37536   5.054   3.482   2.340  0.0602  0.1481  0.7312
12284SOL    HW137537   5.014   3.453   2.421  0.0450  0.3774  0.8061
12284SOL    HW237538   4.982   3.484   2.276 -0.1178  0.8861  0.9487
12285SOL     OW37539   5.250   2.934   6.651 -0.0204  0.4220  0.0808
12285SOL    HW137540   5.166   2.966   6.618 -1.0218 -1.2007  0.9131
12285SOL    HW237541   5.291   2.891   6.576 -0.2357  0.6211 -0.1539
12286SOL     OW37542   1.996   2.406   3.154  0.1037  0.1855  0.3459
12286SOL    HW137543   2.002   2.311   3.141  2.4106  0.4565 -1.1321
12286SOL    HW237544   2.063   2.442   3.096 -0.6370  2.7330  0.9711
12287SOL     OW37545   6.490   3.685   0.065  1.0068  0.0592  0.2948
12287SOL    HW137546   6.420   3.747   0.043  1.0698  0.3615  0.9387
12287SOL    HW237547   6.494   3.627  -0.011  0.5660  0.4976 -0.0764
12288SOL     OW37548   4.152   6.977   1.217  0.0076 -0.1723  0.2572
12288SOL    HW137549   4.190   7.012   1.298 -1.5124  1.1579  0.4500
12288SOL    HW237550   4.140   7.053   1.161  1.1795 -1.0975 -1.3301
12289SOL     OW37551   2.622   1.497   1.299 -0.6222  0.4264  0.0938
12289SOL    HW137552   2.548   1.454   1.255 -1.4108  0.8068  1.0004
12289SOL    HW237553   2.669   1.542   1.229 -1.7798  0.9258 -0.3908
12290SOL     OW37554   3.207   6.651   1.130  0.3261 -0.4855 -0.1228
12290SOL    HW137555   3.117   6.676   1.110  0.2246 -1.9596 -1.7792
12290SOL    HW237556   3.207   6.632   1.224 -0.0850  3.3090  0.8012
12291SOL     OW37557   0.051   2.751   0.018 -0.3915 -0.0538  0.1380
12291SOL    HW137558   0.127   2.779   0.070 -0.4368  0.5137 -0.1039
12291SOL    HW237559   0.038   2.821  -0.045 -0.2079 -0.8310 -0.7914
12292SOL     OW37560   1.497   7.571   6.544 -0.0193 -0.5225 -0.5586
12292SOL    HW137561   1.444   7.650   6.553 -1.2648 -1.4864  1.3992
12292SOL    HW237562   1.578   7.590   6.592 -0.2996 -0.4081 -0.1227
12293SOL     OW37563   4.950   7.046   5.337 -0.1311  0.3849  0.1073
12293SOL    HW137564   4.879   6.987   5.313 -1.4528  0.9259  2.3469
12293SOL    HW237565   4.912   7.102   5.404  1.9516  1.8346  0.1637
12294SOL     OW37566   4.276   0.437   7.160 -0.3348 -0.3652  0.2351
12294SOL    HW137567   4.309   0.458   7.248 -0.7332  1.7238 -0.0674
12294SOL    HW237568   4.353   0.443   7.104  0.1150 -2.6054  0.4932
12295SOL     OW37569   5.340   4.079   5.070  0.4225  0.0364 -0.0316
12295SOL    HW137570   5.413   4.023   5.094  1.7218  1.8091  0.3789
12295SOL    HW237571   5.377   4.168   5.070 -1.4035  0.8517 -1.1577
12296SOL     OW37572   1.229   0.232   1.779  0.3123  0.6523 -0.3225
12296SOL    HW137573   1.158   0.289   1.810 -0.5043 -1.6487  2.4304
12296SOL    HW237574   1.297   0.241   1.845 -0.3674 -2.3906  0.9665
12297SOL     OW37575   3.647   0.025   0.241 -0.3451  0.3435  0.0130
12297SOL    HW137576   3.654   0.120   0.233  2.4680  0.1269 -1.4608
12297SOL    HW237577   3.595  -0.002   0.165  2.5698  0.4882 -2.2006
12298SOL     OW37578   2.169   4.678   0.070 -0.6831 -0.1571 -0.9196
12298SOL    HW137579   2.207   4.654   0.155  2.3879 -0.8898 -2.3464
12298SOL    HW237580   2.160   4.595   0.024 -1.3994  0.3258 -1.6715
12299SOL     OW37581   1.611   2.453   4.837  0.1088 -0.2968 -0.0543
12299SOL    HW137582   1.554   2.414   4.902  0.5153  0.2783  0.6580
12299SOL    HW237583   1.554   2.512   4.787 -0.3118 -1.1154 -0.5710
12300SOL     OW37584   4.629   2.032   0.588  0.4480 -0.4320 -0.4516
12300SOL    HW137585   4.644   1.945   0.550 -1.2646 -1.1543  0.4136
12300SOL    HW237586   4.557   2.019   0.650  0.2620  1.5867 -0.1830
12301SOL     OW37587   3.120   5.394   4.224 -1.1091 -0.2883 -0.1831
12301SOL    HW137588   3.027   5.390   4.205 -0.6621 -1.4865 -2.4467
12301SOL    HW237589   3.163   5.388   4.139  1.0630 -1.3785  0.8939
12302SOL     OW37590   4.806   3.369   4.356 -0.3677 -0.5964  0.2627
12302SOL    HW137591   4.825   3.288   4.309 -3.4374 -0.6871 -1.0170
12302SOL    HW237592   4.817   3.345   4.449 -0.2967 -2.1858 -0.1237
12303SOL     OW37593   2.763   2.571   5.872  0.4357  0.0972  0.1418
12303SOL    HW137594   2.685   2.625   5.861  1.2821  0.9681 -2.2975
12303SOL    HW237595   2.731   2.481   5.863 -0.2872  0.4529 -1.1753
12304SOL     OW37596   0.815   6.030   5.598  0.4397 -0.2231  0.3934
12304SOL    HW137597   0.759   6.108   5.603  0.2682 -0.3937  1.5878
12304SOL    HW237598   0.780   5.979   5.526 -1.0653 -0.4038  1.2145
12305SOL     OW37599   5.016   6.328   5.268  0.0404  0.3352 -0.2144
12305SOL    HW137600   4.971   6.246   5.288 -0.6098  0.7395  0.0199
12305SOL    HW237601   5.016   6.333   5.172 -0.4452  0.3408 -0.2165
12306SOL     OW37602   2.247   6.870   0.325 -0.0163  0.4901 -0.1944
12306SOL    HW137603   2.283   6.850   0.238  0.0667 -1.4924  0.2498
12306SOL    HW237604   2.312   6.835   0.386 -1.8721 -1.8028  0.6285
12307SOL     OW37605   6.561   0.181   7.470 -0.3506  0.1901  0.1317
12307SOL    HW137606   6.477   0.154   7.432  0.9513 -1.8309 -1.5364
12307SOL    HW237607   6.563   0.139   7.556  0.7981 -3.8328 -1.6415
12308SOL     OW37608   6.759   5.202   3.593 -0.0440  0.4008 -0.1328
12308SOL    HW137609   6.723   5.159   3.516 -0.8163 -2.0886  1.5335
12308SOL    HW237610   6.689   5.260   3.623 -0.3412  0.1767 -0.3863
12309SOL     OW37611   2.041   6.571   6.944  0.1132  0.1907  0.2435
12309SOL    HW137612   1.975   6.640   6.956  0.0994  0.1181  0.5898
12309SOL    HW237613   2.072   6.552   7.032  2.6222  2.1695 -0.1046
12310SOL     OW37614   7.692   7.012   5.147  0.6399 -0.1989  0.0437
12310SOL    HW137615   7.735   6.943   5.096 -0.9323 -0.3351 -1.1857
12310SOL    HW237616   7.617   6.967   5.188  1.4436  0.0769  1.9316
12311SOL     OW37617   1.181   7.675   7.322 -0.3135 -0.3054  0.8087
12311SOL    HW137618   1.098   7.667   7.368 -0.0148 -0.1714  1.3737
12311SOL    HW237619   1.168   7.749   7.262 -1.0450 -1.1227 -0.0839
12312SOL     OW37620   7.724   7.664   5.302 -0.2671  0.1133  0.0439
12312SOL    HW137621   7.716   7.655   5.207 -0.1841  1.0413 -0.0575
12312SOL    HW237622   7.817   7.682   5.317 -0.3677  0.4781  0.2509
12313SOL     OW37623   4.529   6.661   4.090  0.3875 -0.6214 -0.6282
12313SOL    HW137624   4.532   6.708   4.007  1.4152 -1.9118 -1.3594
12313SOL    HW237625   4.474   6.584   4.072 -0.0361 -0.5084  0.1216
12314SOL     OW37626   0.151   4.226   3.228 -0.1693 -0.2058  0.3994
12314SOL    HW137627   0.161   4.320   3.216  0.1832 -0.2389  0.4374
12314SOL    HW237628   0.230   4.188   3.190 -0.1350 -0.4614  0.7232
12315SOL     OW37629   5.268   5.128   6.301 -0.0160  0.6771 -0.1773
12315SOL    HW137630   5.334   5.168   6.358 -0.5120  1.8904 -0.4329
12315SOL    HW237631   5.275   5.176   6.219  0.0855 -0.4725 -0.8708
12316SOL     OW37632   6.581   1.720   5.279  0.5683 -0.0055  0.0239
12316SOL    HW137633   6.612   1.781   5.212  2.2567 -0.6577  0.1616
12316SOL    HW237634   6.651   1.656   5.287 -0.4581 -1.0511  1.0414
12317SOL     OW37635   7.374   2.081   5.019 -0.4267 -0.0409 -0.0810
12317SOL    HW137636   7.303   2.028   5.054 -0.5972 -0.2580 -0.7519
12317SOL    HW237637   7.447   2.020   5.011  0.3156  0.4750  1.9625
12318SOL     OW37638   2.947   7.562   6.501  0.6422 -0.0299  0.1988
12318SOL    HW137639   2.943   7.480   6.550  1.6155 -1.0807 -1.3434
12318SOL    HW237640   2.940   7.631   6.567 -2.5981 -1.2745  1.3386
12319SOL     OW37641   5.523   3.027   5.989  0.2455  0.4040  0.0126
12319SOL    HW137642   5.445   2.971   5.998  0.7148 -0.0585  1.4640
12319SOL    HW237643   5.577   2.981   5.924  1.6038 -2.1399  2.6714
12320SOL     OW37644   1.087   4.898   1.005  0.3455  0.2532 -0.0968
12320SOL    HW137645   1.031   4.897   1.083 -0.1864  1.3802 -0.4501
12320SOL    HW237646   1.072   4.813   0.964  1.3800 -0.7648  1.5393
12321SOL     OW37647   0.748   1.966   6.360 -0.1028 -0.2403 -0.0506
12321SOL    HW137648   0.752   2.022   6.438  0.1034 -0.4973  0.1243
12321SOL    HW237649   0.746   2.027   6.287  1.2531 -0.0137  0.0850
12322SOL     OW37650   1.652   6.592   5.895 -0.1792 -0.2576 -0.4312
12322SOL    HW137651   1.562   6.569   5.918 -0.6062  1.4788 -0.2124
12322SOL    HW237652   1.644   6.667   5.837  1.1391  0.3720  0.1429
12323SOL     OW37653   6.609   5.563   6.205 -0.3312 -0.1088  0.5407
12323SOL    HW137654   6.628   5.487   6.151 -0.3999 -1.1131  1.8944
12323SOL    HW237655   6.514   5.560   6.218 -0.8600  1.9962 -1.9380
12324SOL     OW37656   3.374   5.496   2.188  0.1109 -0.2081 -0.0898
12324SOL    HW137657   3.409   5.409   2.167 -1.0918 -1.1783  1.7541
12324SOL    HW237658   3.282   5.493   2.161  0.1497  0.6536 -0.3742
12325SOL     OW37659   0.954   5.109   6.186  0.1708  0.1876  0.3644
12325SOL    HW137660   0.933   5.066   6.269 -1.9454 -1.6111 -0.9648
12325SOL    HW237661   0.875   5.159   6.164  1.3838  2.1355  0.2752
12326SOL     OW37662   2.566   4.573   3.572  0.0163 -0.0568 -0.6787
12326SOL    HW137663   2.563   4.479   3.554  0.2861 -0.5294  1.4724
12326SOL    HW237664   2.474   4.600   3.574 -0.1643 -0.7042  0.6035
12327SOL     OW37665   4.796   2.172   5.134  0.0986  0.5071 -0.8118
12327SOL    HW137666   4.889   2.168   5.111 -0.0486 -1.1590 -1.2761
12327SOL    HW237667   4.780   2.264   5.155  1.6297  1.0071 -1.6671
12328SOL     OW37668   3.131   3.111   5.213  0.0260 -0.0322  0.1792
12328SOL    HW137669   3.145   3.089   5.305 -0.9565 -1.8743 -0.0594
12328SOL    HW237670   3.074   3.187   5.215 -0.5736 -0.4808  1.1197
12329SOL     OW37671   3.495   6.615   6.484  0.1755  0.0401  0.0664
12329SOL    HW137672   3.538   6.599   6.400  0.0577  2.1602 -0.4654
12329SOL    HW237673   3.505   6.533   6.533 -1.0961 -1.8116 -2.5597
12330SOL     OW37674   0.885   0.271   3.202 -0.1998 -0.9491  0.7962
12330SOL    HW137675   0.970   0.315   3.189 -0.9046 -0.0066 -1.0736
12330SOL    HW237676   0.852   0.306   3.284 -0.1601  1.1177 -0.0061
12331SOL     OW37677   2.658   7.072   1.409 -0.2754  0.2880 -0.6203
12331SOL    HW137678   2.569   7.057   1.441 -1.1496  3.2323 -1.3761
12331SOL    HW237679   2.703   7.113   1.483 -0.1924  0.7478 -0.9245
12332SOL     OW37680   7.115   1.373   2.435  0.0242 -0.5012 -0.1561
12332SOL    HW137681   7.031   1.344   2.468  1.2116 -2.3100  1.5077
12332SOL    HW237682   7.151   1.428   2.505 -0.5340  1.9237 -1.6595
12333SOL     OW37683   3.034   6.367   7.433 -0.0782  0.3728  0.2472
12333SOL    HW137684   3.038   6.319   7.515  1.6400 -2.0736 -1.1332
12333SOL    HW237685   2.941   6.384   7.419 -0.4189  0.7823  2.5759
12334SOL     OW37686   0.141   3.882   1.307  0.2944  0.0115 -0.2429
12334SOL    HW137687   0.202   3.906   1.237 -0.3850 -0.0881 -0.8794
12334SOL    HW237688   0.174   3.929   1.384  1.5369 -0.5244 -0.4125
12335SOL     OW37689   6.940   3.167   3.925 -0.0715 -0.2600  0.4567
12335SOL    HW137690   6.859   3.191   3.881 -0.1866 -2.2121 -0.4897
12335SOL    HW237691   7.006   3.226   3.888 -0.5373 -0.5699 -0.9177
12336SOL     OW37692   5.428   2.511   6.734 -0.1996 -0.1747 -0.1261
12336SOL    HW137693   5.344   2.492   6.776  0.4526  0.4891  1.5860
12336SOL    HW237694   5.451   2.598   6.766  0.6819  0.0637 -1.3611
12337SOL     OW37695   6.007   6.405   5.776 -0.3541  0.1132 -0.0380
12337SOL    HW137696   6.052   6.396   5.860  0.3962  3.7630  0.0946
12337SOL    HW237697   6.067   6.365   5.713 -0.5075 -1.8503  0.9724
12338SOL     OW37698   7.518   1.761   4.831  0.5522 -1.2058  0.5888
12338SOL    HW137699   7.551   1.798   4.913 -0.9777 -0.8658  1.0796
12338SOL    HW237700   7.556   1.816   4.762  0.0959 -0.1152  1.1968
12339SOL     OW37701   2.781   0.341   3.678 -0.2915 -0.0918  0.2458
12339SOL    HW137702   2.748   0.348   3.767  0.6630  2.3817  0.4764
12339SOL    HW237703   2.839   0.417   3.667 -0.6312 -0.1217 -2.5706
12340SOL     OW37704   1.540   1.427   3.237  0.0679 -0.4116 -0.0375
12340SOL    HW137705   1.571   1.401   3.324 -2.1786  1.0013  1.2837
12340SOL    HW237706   1.446   1.409   3.238 -0.4433  1.7686 -1.2980
12341SOL     OW37707   3.121   4.092   4.576  0.4634 -0.1057  0.4258
12341SOL    HW137708   3.148   4.036   4.503  1.6520 -0.2865  0.9781
12341SOL    HW237709   3.122   4.034   4.652 -0.9074  0.0474  0.5805
12342SOL     OW37710   5.977   2.594   3.841  0.2833  0.0403  0.2197
12342SOL    HW137711   5.893   2.552   3.821 -0.4602  2.0068 -1.0785
12342SOL    HW237712   6.041   2.547   3.786 -0.3359 -0.0704 -0.4173
12343SOL     OW37713   6.923   1.118   6.736 -0.2050 -0.3375  0.2264
12343SOL    HW137714   6.864   1.072   6.796 -0.6485  1.7077  1.4560
12343SOL    HW237715   6.873   1.126   6.655 -1.2245  0.4022  0.8990
12344SOL     OW37716   4.737   5.756   6.903 -0.0206 -0.4118  0.1222
12344SOL    HW137717   4.715   5.775   6.812  0.8207  2.4989  0.4372
12344SOL    HW237718   4.673   5.805   6.954  0.8731 -0.2078  1.0739
12345SOL     OW37719   2.714   3.733   2.261 -0.2518 -0.0604  0.0700
12345SOL    HW137720   2.640   3.770   2.214  0.1423 -2.1234 -2.3931
12345SOL    HW237721   2.691   3.640   2.272  1.7267 -0.6445 -0.3464
12346SOL     OW37722   1.171   6.533   3.914 -0.8842  0.2518  0.2131
12346SOL    HW137723   1.110   6.522   3.987 -0.4251  1.7064  0.8464
12346SOL    HW237724   1.258   6.521   3.954 -0.6759 -0.2083 -0.3610
12347SOL     OW37725   6.080   7.651   6.130 -0.0163 -0.3601 -0.7336
12347SOL    HW137726   5.992   7.670   6.160  0.4280 -1.4015  1.4124
12347SOL    HW237727   6.132   7.725   6.160 -0.0570  0.0734 -1.6765
12348SOL     OW37728   5.551   7.202   0.085 -0.4705 -0.4725  0.5934
12348SOL    HW137729   5.630   7.160   0.119  0.5644 -0.1001 -1.2460
12348SOL    HW237730   5.579   7.289   0.057 -1.6646 -0.1240  0.3963
12349SOL     OW37731   7.027   1.932   4.279 -0.6060  0.0967 -0.1754
12349SOL    HW137732   6.965   1.878   4.229 -0.2289 -0.2978 -0.2243
12349SOL    HW237733   6.972   1.995   4.325 -1.1854 -1.1791  0.9514
12350SOL     OW37734   4.576   1.851   7.539  0.2687 -0.4366 -0.1961
12350SOL    HW137735   4.657   1.827   7.583  0.9336 -0.5729 -1.4616
12350SOL    HW237736   4.600   1.926   7.485 -0.7816  0.3915  0.4451
12351SOL     OW37737   6.140   2.216   6.500 -0.0684  0.3605 -0.3369
12351SOL    HW137738   6.227   2.256   6.499  0.0635  0.1460  0.8279
12351SOL    HW237739   6.118   2.208   6.593 -0.0359 -2.3603 -0.4908
12352SOL     OW37740   1.196   2.782   1.273 -0.3279  0.3438  1.2348
12352SOL    HW137741   1.151   2.860   1.242 -0.3155 -0.0018  0.3146
12352SOL    HW237742   1.138   2.709   1.250  0.9800 -0.1909 -0.6994
12353SOL     OW37743   4.181   5.438   6.740 -0.1143 -0.9923  0.2238
12353SOL    HW137744   4.189   5.343   6.727 -2.9602 -1.4928  1.3490
12353SOL    HW237745   4.098   5.461   6.697  0.0214  0.7884  0.8543
12354SOL     OW37746   7.208   6.555   7.168  0.6893  0.2144  0.6353
12354SOL    HW137747   7.231   6.462   7.162 -1.5188 -0.3588 -0.1007
12354SOL    HW237748   7.170   6.575   7.082 -0.4608  1.3006  1.3650
12355SOL     OW37749   5.753   3.283   4.697 -0.2990 -0.0979  0.3773
12355SOL    HW137750   5.793   3.366   4.721 -0.5271  0.9870 -2.5587
12355SOL    HW237751   5.659   3.303   4.689  0.0246  0.5824 -4.1246
12356SOL     OW37752   1.558   0.385   4.444  0.1667 -0.1364 -0.2763
12356SOL    HW137753   1.643   0.374   4.487  0.0533  1.0282  0.2756
12356SOL    HW237754   1.513   0.302   4.459  1.0356 -0.6048 -0.1970
12357SOL     OW37755   5.616   6.791   6.048 -0.1624  0.4022  0.3160
12357SOL    HW137756   5.667   6.828   6.120 -0.2547 -0.5697  0.8909
12357SOL    HW237757   5.543   6.852   6.037  0.2880  0.9895  0.4917
12358SOL     OW37758   6.060   4.011   2.810  0.5784 -0.4042 -0.0521
12358SOL    HW137759   6.066   3.946   2.880  2.2659 -0.0671  0.1522
12358SOL    HW237760   5.972   3.999   2.773 -0.1302 -0.9728  1.7275
12359SOL     OW37761   0.386   0.441   4.008 -0.3220  0.2216  0.3483
12359SOL    HW137762   0.310   0.392   3.976  0.0739  0.4424 -0.9604
12359SOL    HW237763   0.460   0.382   3.995 -0.1808  0.2374  1.0567
12360SOL     OW37764   4.288   3.533   4.355  0.1679  0.1643  0.6697
12360SOL    HW137765   4.224   3.588   4.401  0.0967  3.6715 -3.0852
12360SOL    HW237766   4.360   3.523   4.417 -1.9068  0.2495  3.2523
12361SOL     OW37767   4.398   7.377   5.203  0.7171  0.3873 -0.0472
12361SOL    HW137768   4.459   7.412   5.138 -0.9077  1.7009 -0.9616
12361SOL    HW237769   4.312   7.386   5.161 -0.0596 -2.4130  0.7121
12362SOL     OW37770   1.306   2.672   2.461 -0.0875  0.5430  0.3447
12362SOL    HW137771   1.238   2.656   2.527 -0.4998  0.4236 -0.1074
12362SOL    HW237772   1.372   2.723   2.508 -0.1027 -0.0211  1.0140
12363SOL     OW37773   5.508   5.986   4.837  0.1838 -0.3838  0.0651
12363SOL    HW137774   5.427   6.017   4.796  0.7104  0.5888 -0.2731
12363SOL    HW237775   5.498   6.007   4.930 -0.9955 -2.5547  0.4872
12364SOL     OW37776   5.253   5.655   7.391  0.3138 -0.3292  0.2744
12364SOL    HW137777   5.246   5.577   7.336 -0.0556  0.6671 -1.1356
12364SOL    HW237778   5.162   5.684   7.402  0.5724  0.9459 -0.7823
12365SOL     OW37779   1.274   7.453   3.594  0.1699  0.0410 -0.0176
12365SOL    HW137780   1.265   7.495   3.680 -1.1250  2.4993 -1.2395
12365SOL    HW237781   1.185   7.430   3.569  0.5981 -1.1748 -0.4853
12366SOL     OW37782   3.483   2.573   0.384  0.8595 -0.1581  0.2846
12366SOL    HW137783   3.468   2.481   0.403 -0.7393 -0.2038 -1.0315
12366SOL    HW237784   3.418   2.620   0.436  0.5457  0.1049 -0.3345
12367SOL     OW37785   6.700   5.916   2.420  0.7108  0.0600  0.3678
12367SOL    HW137786   6.607   5.934   2.433  0.5738 -0.6558  0.4107
12367SOL    HW237787   6.739   5.925   2.507  1.0329  2.2268  0.0594
12368SOL     OW37788   5.675   1.426   2.730 -0.2687  0.5584  0.0837
12368SOL    HW137789   5.636   1.427   2.643 -0.5513  0.4074  0.2064
12368SOL    HW237790   5.642   1.506   2.772 -1.3307 -0.1123  0.5665
12369SOL     OW37791   0.880   2.971   6.886  0.1671  0.1513  0.5000
12369SOL    HW137792   0.937   2.914   6.834  0.2219  0.1762  0.5329
12369SOL    HW237793   0.939   3.037   6.922 -0.1456  1.2736 -0.9715
12370SOL     OW37794   7.122   6.526   0.357 -0.4961  0.1145  0.1736
12370SOL    HW137795   7.137   6.576   0.437  1.2462 -1.2010  0.7229
12370SOL    HW237796   7.182   6.563   0.293 -0.6408  0.0315 -0.0110
12371SOL     OW37797   4.908   6.583   6.051 -0.2152 -0.0901  0.1557
12371SOL    HW137798   4.838   6.647   6.062 -0.0906 -0.0700  0.8775
12371SOL    HW237799   4.988   6.632   6.073 -0.2331 -0.8012  1.9653
12372SOL     OW37800   3.764   3.233   3.306 -0.4836 -0.4302  0.0732
12372SOL    HW137801   3.815   3.312   3.324 -1.1462  0.0505 -0.1363
12372SOL    HW237802   3.705   3.258   3.235  0.2792 -1.5350 -0.9907
12373SOL     OW37803   0.689   0.084   4.343 -0.2486 -0.2846 -0.2829
12373SOL    HW137804   0.610   0.057   4.390  0.0209  1.9537  1.5897
12373SOL    HW237805   0.673   0.175   4.318  1.1189 -0.2829 -1.3067
12374SOL     OW37806   1.877   4.286   6.104 -0.1210 -0.7797 -0.0068
12374SOL    HW137807   1.922   4.371   6.103 -0.5868 -0.5208  0.6203
12374SOL    HW237808   1.886   4.253   6.014  0.1445 -0.1161 -0.2287
12375SOL     OW37809   7.605   7.157   4.449 -0.2544  0.1106  0.4879
12375SOL    HW137810   7.667   7.216   4.492 -1.5945  1.5143  0.6196
12375SOL    HW237811   7.522   7.204   4.453 -1.2634 -1.5540  0.0263
12376SOL     OW37812   2.583   2.094   6.025 -0.1916  0.0769  0.5932
12376SOL    HW137813   2.678   2.086   6.019 -0.1987 -1.3526  1.8153
12376SOL    HW237814   2.557   2.136   5.943  1.3656 -0.6720 -0.3324
12377SOL     OW37815   0.373   1.256   2.588 -0.2515  0.2893 -0.0959
12377SOL    HW137816   0.459   1.261   2.546 -0.5087 -0.5028 -0.7252
12377SOL    HW237817   0.339   1.346   2.583  1.2112  1.0244  1.6657
12378SOL     OW37818   4.639   2.948   0.569  0.6647 -0.7452 -0.1625
12378SOL    HW137819   4.691   2.867   0.568  0.5334 -0.8419  0.4803
12378SOL    HW237820   4.549   2.919   0.557  0.4064 -0.8793  1.7651
12379SOL     OW37821   7.627   2.541   2.772 -0.3807 -0.0887 -0.2383
12379SOL    HW137822   7.603   2.466   2.718 -0.0677 -0.0061 -0.4897
12379SOL    HW237823   7.552   2.551   2.832 -1.4445  0.7877 -1.6579
12380SOL     OW37824   5.705   1.052   7.243 -0.4177 -0.2578  0.3142
12380SOL    HW137825   5.797   1.026   7.230 -0.8219 -0.8222 -1.7632
12380SOL    HW237826   5.657   0.969   7.243 -1.0326  0.0939  0.3981
12381SOL     OW37827   0.262   7.169   4.672 -0.1344  0.0055  0.2106
12381SOL    HW137828   0.271   7.115   4.594 -1.5021  1.4548 -1.0088
12381SOL    HW237829   0.345   7.217   4.678  0.0970 -0.3421 -0.1774
12382SOL     OW37830   2.273   6.023   7.146 -0.5166  0.1915  0.4273
12382SOL    HW137831   2.349   6.051   7.095 -2.0916  0.7572 -1.7552
12382SOL    HW237832   2.237   6.104   7.182 -0.9693  0.1311  0.1217
12383SOL     OW37833   3.866   3.692   7.527 -0.5316 -0.2747  0.4341
12383SOL    HW137834   3.872   3.678   7.433 -1.8355 -1.3092  0.4861
12383SOL    HW237835   3.792   3.639   7.555  1.2683 -1.9169  2.4429
12384SOL     OW37836   3.416   5.863   1.923 -0.6296  0.2178  0.3556
12384SOL    HW137837   3.362   5.934   1.888  0.7111  0.9944 -0.2133
12384SOL    HW237838   3.377   5.784   1.885 -0.5965  0.8648 -1.1067
12385SOL     OW37839   5.762   2.965   2.240 -0.3416  0.0138  0.5474
12385SOL    HW137840   5.765   2.990   2.148 -2.2864  1.1859  0.7591
12385SOL    HW237841   5.756   3.048   2.288 -1.2993 -0.6298  1.6073
12386SOL     OW37842   3.318   0.623   5.943 -0.2608  0.7641  0.0419
12386SOL    HW137843   3.389   0.580   5.895  0.7333  1.0352  1.2035
12386SOL    HW237844   3.363   0.679   6.007 -1.5113  0.6285  1.0841
12387SOL     OW37845   3.258   0.046   5.970  0.1022  1.0843  0.0881
12387SOL    HW137846   3.302   0.129   5.988  0.8756  1.0874 -1.6485
12387SOL    HW237847   3.317  -0.021   6.004 -0.1822  1.1994  0.8323
12388SOL     OW37848   4.234   5.420   1.722 -0.4202 -0.1724 -0.2649
12388SOL    HW137849   4.139   5.425   1.732 -0.7418  0.8182 -2.9082
12388SOL    HW237850   4.248   5.420   1.627  2.1852 -1.8332  0.0113
12389SOL     OW37851   5.316   7.309   7.693  1.0569  0.2582  0.2430
12389SOL    HW137852   5.375   7.377   7.660  1.5389 -1.0718 -1.8615
12389SOL    HW237853   5.266   7.282   7.616 -0.7455 -0.2043  1.5191
12390SOL     OW37854   6.915   6.664   5.262 -0.0875 -0.3115  0.2514
12390SOL    HW137855   6.874   6.725   5.201  0.6810  0.2641  0.3051
12390SOL    HW237856   6.995   6.707   5.290  0.4416 -1.3166  0.3426
12391SOL     OW37857   0.443   7.363   1.249 -0.1788  0.2403 -0.3449
12391SOL    HW137858   0.502   7.434   1.274  1.4578 -0.3928 -2.1033
12391SOL    HW237859   0.375   7.404   1.196  0.8968  0.5063 -1.5634
12392SOL     OW37860   2.562   3.445   5.692 -0.0787  0.4663  0.5717
12392SOL    HW137861   2.539   3.516   5.753 -2.2774  1.7316 -1.5592
12392SOL    HW237862   2.649   3.468   5.661  1.7246 -0.9302  4.0654
12393SOL     OW37863   5.571   2.690   5.231  0.4494 -0.5908 -0.2864
12393SOL    HW137864   5.541   2.647   5.311  1.9054 -1.0124  0.0695
12393SOL    HW237865   5.534   2.638   5.160 -0.3211 -0.5958  0.1063
12394SOL     OW37866   2.605   4.658   1.911 -0.1093 -0.3005 -0.0108
12394SOL    HW137867   2.636   4.602   1.840  1.0506 -0.0885  0.3105
12394SOL    HW237868   2.654   4.630   1.988 -1.5208 -0.6806  0.7904
12395SOL     OW37869   7.167   0.290   2.842  1.0669  0.0312 -0.2944
12395SOL    HW137870   7.225   0.341   2.785  1.6038 -0.6122 -0.3307
12395SOL    HW237871   7.087   0.279   2.791  0.6735  1.4190 -0.0217
12396SOL     OW37872   5.560   4.305   0.555 -0.0926 -0.2004  0.4132
12396SOL    HW137873   5.514   4.221   0.565  0.4786 -0.6793 -0.7861
12396SOL    HW237874   5.521   4.362   0.621  0.4152 -1.7912  2.1665
12397SOL     OW37875   7.700   0.292   0.504  0.5409  0.1075  0.5811
12397SOL    HW137876   7.788   0.281   0.467  0.6713  0.8950  0.6501
12397SOL    HW237877   7.666   0.202   0.509  0.0642 -0.0132 -2.5566
12398SOL     OW37878   6.937   1.500   1.884  0.4422 -0.8412  0.0726
12398SOL    HW137879   6.875   1.434   1.916 -1.1296 -0.3466 -1.7696
12398SOL    HW237880   6.978   1.460   1.808 -1.7785  0.7539 -2.1409
12399SOL     OW37881   6.129   5.810   6.168  0.3151  0.2425 -0.2523
12399SOL    HW137882   6.057   5.873   6.178  0.1276  0.1244 -0.8234
12399SOL    HW237883   6.149   5.783   6.257 -0.4875  0.1232 -0.0989
12400SOL     OW37884   4.176   0.193   1.552 -0.6327 -0.1108 -0.4549
12400SOL    HW137885   4.229   0.122   1.516  0.4115  0.6015 -0.3676
12400SOL    HW237886   4.093   0.151   1.577 -0.2775 -1.1660 -0.9823
12401SOL     OW37887   2.023   3.613   6.333  0.0643 -0.5265  0.6084
12401SOL    HW137888   1.930   3.610   6.313 -0.0214 -0.0115  0.9357
12401SOL    HW237889   2.059   3.675   6.269 -0.1147  0.6684  1.6303
12402SOL     OW37890   6.118   4.909   1.816 -0.3914  0.3492 -0.4420
12402SOL    HW137891   6.154   4.973   1.754  2.4042  0.9431  1.5643
12402SOL    HW237892   6.168   4.829   1.800  0.3455  0.5006  0.9518
12403SOL     OW37893   4.789   7.547   4.047  0.4642 -0.5456  0.1394
12403SOL    HW137894   4.754   7.487   4.113  0.9562  0.7712  1.6726
12403SOL    HW237895   4.826   7.490   3.980  0.5474 -1.9469  1.3186
12404SOL     OW37896   7.067   7.026   2.115 -0.0649  0.2176 -0.2597
12404SOL    HW137897   6.982   6.995   2.146 -0.4527  0.9885 -0.5229
12404SOL    HW237898   7.081   7.107   2.164 -0.5221  1.2757 -1.7936
12405SOL     OW37899   3.689   0.474   2.818  0.0417 -0.2618  0.2790
12405SOL    HW137900   3.658   0.385   2.829  0.8775 -0.6511 -0.4501
12405SOL    HW237901   3.643   0.524   2.886  0.0048 -1.3423  1.0710
12406SOL     OW37902   6.741   6.002   6.925 -0.1678 -0.0589 -0.5918
12406SOL    HW137903   6.792   6.028   7.002 -0.0063  0.4121 -0.8567
12406SOL    HW237904   6.736   5.906   6.932  0.3828 -0.0755 -0.3309
12407SOL     OW37905   3.210   7.567   4.969 -0.7361  0.3196  0.2643
12407SOL    HW137906   3.195   7.558   4.875 -1.2069  0.9987  0.2624
12407SOL    HW237907   3.163   7.495   5.009  0.4588 -0.6876 -0.0853
12408SOL     OW37908   7.545   1.725   5.468  0.1203  0.1792 -0.1005
12408SOL    HW137909   7.603   1.785   5.421 -0.2734  1.4770  1.0042
12408SOL    HW237910   7.584   1.638   5.454 -0.0803  0.4348 -2.9489
12409SOL     OW37911   5.013   0.974   6.883  0.2030  0.0308  0.3274
12409SOL    HW137912   5.047   0.913   6.948  0.0717 -0.3750  0.0205
12409SOL    HW237913   5.050   0.944   6.800 -0.1905  0.1185  0.1138
12410SOL     OW37914   7.515   6.171   4.715 -0.1726  0.3903 -0.1171
12410SOL    HW137915   7.490   6.114   4.642 -0.5544  0.8960 -0.3885
12410SOL    HW237916   7.560   6.245   4.673 -0.0460  0.4909  0.1959
12411SOL     OW37917   5.416   4.525   5.415  0.4294 -0.2937 -0.4928
12411SOL    HW137918   5.396   4.567   5.499  0.3776 -1.0506 -0.1206
12411SOL    HW237919   5.405   4.432   5.431 -1.8755 -0.3558 -1.9497
12412SOL     OW37920   1.866   3.527   1.476 -0.5395 -0.6286  0.2493
12412SOL    HW137921   1.802   3.584   1.433  0.7998  1.4971  0.9207
12412SOL    HW237922   1.928   3.587   1.517  1.2185 -2.5997  0.6553
12413SOL     OW37923   6.190   3.986   2.565 -0.1096  0.1733 -0.3239
12413SOL    HW137924   6.166   3.893   2.573 -3.4054  0.9678  0.4793
12413SOL    HW237925   6.173   4.023   2.652 -1.4042  1.9968 -1.2927
12414SOL     OW37926   2.522   1.908   0.586 -0.0123 -0.0107  0.0866
12414SOL    HW137927   2.469   1.872   0.515 -1.4080  0.7554  0.7127
12414SOL    HW237928   2.465   1.971   0.630  1.5831  1.2273  0.4858
12415SOL     OW37929   3.561   7.734   7.525  0.2669 -0.1875  0.2208
12415SOL    HW137930   3.656   7.745   7.519  0.4096 -0.6525  1.3621
12415SOL    HW237931   3.546   7.642   7.504  0.0492 -0.0942 -0.0492
12416SOL     OW37932   1.156   1.405   3.537  0.4215  0.2643  0.2921
12416SOL    HW137933   1.185   1.494   3.555  1.2928 -0.1666  1.1497
12416SOL    HW237934   1.206   1.351   3.598 -0.7366 -0.7336  0.4028
12417SOL     OW37935   6.694   3.284   5.045  0.3083 -0.5014 -0.2152
12417SOL    HW137936   6.752   3.262   5.117 -0.6848 -0.9444  0.4736
12417SOL    HW237937   6.608   3.296   5.086  0.0944  1.1613 -1.0514
12418SOL     OW37938   1.738   2.441   3.149 -0.6289 -0.1234  0.1436
12418SOL    HW137939   1.833   2.436   3.144 -0.5711  1.7111 -2.0522
12418SOL    HW237940   1.707   2.403   3.067 -1.7432  0.2995  0.3510
12419SOL     OW37941   6.528   5.979   5.131  0.0081 -0.3241  0.2507
12419SOL    HW137942   6.560   6.067   5.111 -0.9622  0.0048  0.0945
12419SOL    HW237943   6.466   5.959   5.061  1.0753 -1.6197 -0.3600
12420SOL     OW37944   6.785   4.691   5.261 -0.4238 -0.9264 -0.0822
12420SOL    HW137945   6.782   4.718   5.170  0.4430 -0.6002 -0.0231
12420SOL    HW237946   6.876   4.667   5.276 -0.8256 -2.2885  0.3278
12421SOL     OW37947   4.399   6.052   5.663  0.3524  0.2411 -0.0531
12421SOL    HW137948   4.411   6.116   5.733  0.7909 -1.0353  1.0801
12421SOL    HW237949   4.330   5.994   5.695 -0.0031  0.0864 -1.0394
12422SOL     OW37950   1.046   6.831   2.384  0.1657  0.2098 -0.0558
12422SOL    HW137951   1.027   6.757   2.327 -0.0936 -1.0462  1.5724
12422SOL    HW237952   1.141   6.831   2.392  0.1076 -0.8105  0.9560
12423SOL     OW37953   2.338   6.278   3.653  0.1939  0.0669 -0.2811
12423SOL    HW137954   2.359   6.224   3.577  0.7260  1.0072 -0.8274
12423SOL    HW237955   2.422   6.290   3.697 -0.2121 -1.0020  0.8407
12424SOL     OW37956   2.656   1.366   4.093 -0.1957  0.0734 -0.8672
12424SOL    HW137957   2.708   1.356   4.173 -2.0708  0.3946  0.4488
12424SOL    HW237958   2.606   1.285   4.086 -3.0330  1.5534  0.6015
12425SOL     OW37959   4.408   4.107   0.794  0.0574  0.8039  1.0184
12425SOL    HW137960   4.368   4.077   0.876  0.3581 -0.0088  0.8803
12425SOL    HW237961   4.395   4.035   0.733 -1.8918  2.1383 -0.2767
12426SOL     OW37962   3.671   1.543   2.987 -0.0240  0.2278 -0.4885
12426SOL    HW137963   3.649   1.456   3.021  0.4571 -0.0676 -0.9039
12426SOL    HW237964   3.622   1.550   2.905  0.6771 -0.0578 -0.9469
12427SOL     OW37965   0.709   7.264   7.647  0.6544  0.1320  0.1736
12427SOL    HW137966   0.664   7.185   7.675 -1.2311  1.0810 -0.0236
12427SOL    HW237967   0.782   7.274   7.709 -0.8924 -0.0948  2.1082
12428SOL     OW37968   2.860   4.889   6.909 -0.3534  0.1713  0.3024
12428SOL    HW137969   2.903   4.904   6.993 -1.6920  1.6813  0.8003
12428SOL    HW237970   2.894   4.959   6.852 -0.8427  0.3253  0.1911
12429SOL     OW37971   6.064   7.214   7.133 -0.2164 -0.2628 -0.1946
12429SOL    HW137972   5.979   7.206   7.175  0.2126 -0.0199  0.7567
12429SOL    HW237973   6.066   7.143   7.069 -0.5013 -1.3033  0.8998
12430SOL     OW37974   4.175   4.946   0.103 -0.3269  0.1273  0.3181
12430SOL    HW137975   4.192   5.006   0.031  0.0511  0.9285  1.0595
12430SOL    HW237976   4.177   4.859   0.063 -0.1578  0.5628 -0.6379
12431SOL     OW37977   1.803   0.920   7.650 -0.2454  0.3354 -0.7452
12431SOL    HW137978   1.724   0.911   7.703 -1.3846  0.0428 -2.4441
12431SOL    HW237979   1.834   0.831   7.636  0.2496  0.4322 -0.3215
12432SOL     OW37980   5.484   7.415   4.355  0.1887 -0.2663 -0.1367
12432SOL    HW137981   5.502   7.502   4.391 -0.5310 -0.1697  0.0087
12432SOL    HW237982   5.486   7.357   4.431 -1.0997 -0.0982  0.0390
12433SOL     OW37983   2.712   7.383   2.296 -0.0080  0.2835  0.0309
12433SOL    HW137984   2.751   7.391   2.383  1.8652 -0.2420 -0.6962
12433SOL    HW237985   2.737   7.295   2.267  1.3642  1.2387 -1.8961
12434SOL     OW37986   1.150   1.623   1.924 -0.7086  0.1044  0.1966
12434SOL    HW137987   1.083   1.637   1.991 -1.2120 -1.6129  0.1026
12434SOL    HW237988   1.221   1.683   1.948 -1.8082  1.1665  0.9317
12435SOL     OW37989   0.408   3.837   5.937  0.4128 -0.1182 -0.0398
12435SOL    HW137990   0.385   3.792   6.018 -0.0620 -0.2662 -0.2557
12435SOL    HW237991   0.338   3.901   5.925  1.0185  0.6075  0.2025
12436SOL     OW37992   3.834   5.125   1.771 -0.2880  0.0536  0.5244
12436SOL    HW137993   3.851   5.219   1.766 -0.3224  0.0508  0.3344
12436SOL    HW237994   3.830   5.097   1.680 -0.6277 -0.0708  0.5785
12437SOL     OW37995   3.318   5.331   4.799  0.2677 -0.2470  0.3268
12437SOL    HW137996   3.338   5.320   4.707  3.9898 -0.3058  0.9940
12437SOL    HW237997   3.348   5.250   4.841  1.7745  1.0292  1.9032
12438SOL     OW37998   3.654   0.008   1.763 -0.1950 -0.5599 -0.0754
12438SOL    HW137999   3.598   0.085   1.767 -1.0271 -1.1920  0.9384
12438SOL    HW238000   3.670  -0.015   1.855 -0.5875 -2.0304 -0.3535
12439SOL     OW38001   3.951   4.412   0.104  0.1134  0.1820  0.7556
12439SOL    HW138002   3.933   4.505   0.122  0.8857  1.4368 -3.7329
12439SOL    HW238003   4.040   4.399   0.134 -0.3494  0.5299  2.3800
12440SOL     OW38004   0.543   6.980   0.527 -0.0881  0.0183  0.4152
12440SOL    HW138005   0.583   7.044   0.468  0.2685 -1.0951 -0.5676
12440SOL    HW238006   0.547   6.897   0.480 -2.8284 -0.3026  0.6124
12441SOL     OW38007   5.366   6.030   6.824  0.1678  0.0079 -0.7727
12441SOL    HW138008   5.449   6.061   6.862  0.4596 -1.6274 -0.0016
12441SOL    HW238009   5.316   5.998   6.899 -0.7173 -0.0599 -1.3779
12442SOL     OW38010   7.560   6.277   2.082 -0.6606 -0.2778 -0.2175
12442SOL    HW138011   7.518   6.205   2.130 -0.0456 -0.9003 -0.5905
12442SOL    HW238012   7.510   6.355   2.106  0.0439 -0.4235  2.0126
12443SOL     OW38013   1.276   7.746   1.733  0.6079  0.1543  0.5289
12443SOL    HW138014   1.275   7.841   1.720  1.7082  0.2895  1.2875
12443SOL    HW238015   1.269   7.710   1.645 -0.0570  0.9263  0.2460
12444SOL     OW38016   2.625   0.402   0.783  0.3035  0.9904  0.3723
12444SOL    HW138017   2.702   0.430   0.735  1.6369 -1.2330  1.0599
12444SOL    HW238018   2.623   0.457   0.862  3.0788 -0.8555  1.9088
12445SOL     OW38019   3.418   1.585   5.929 -0.2920  0.4454 -0.2686
12445SOL    HW138020   3.506   1.563   5.898  0.5737  1.3354  1.4166
12445SOL    HW238021   3.396   1.515   5.990  0.0554  1.1710  0.7195
12446SOL     OW38022   3.072   6.603   4.621  0.0076  0.2046  0.2522
12446SOL    HW138023   3.062   6.681   4.567  1.5702  0.9192  0.9319
12446SOL    HW238024   3.046   6.631   4.709  0.4845 -0.0571  0.4805
12447SOL     OW38025   0.805   0.146   3.819 -0.0400  0.0755  0.2695
12447SOL    HW138026   0.866   0.095   3.765 -0.2388  1.7127 -1.6387
12447SOL    HW238027   0.743   0.183   3.756  0.2956  2.9001  1.4388
12448SOL     OW38028   4.135   6.400   4.411 -0.1720 -0.5303  0.0429
12448SOL    HW138029   4.152   6.306   4.404 -0.1971 -0.4834 -0.6954
12448SOL    HW238030   4.163   6.436   4.328  0.1226  0.1715  0.4371
12449SOL     OW38031   3.893   3.740   0.171 -0.2060  0.3675 -0.0257
12449SOL    HW138032   3.876   3.667   0.231 -0.6291 -1.7956 -2.5358
12449SOL    HW238033   3.808   3.754   0.127 -0.1275  2.4325  0.3944
12450SOL     OW38034   4.969   4.515   0.761  0.5282  0.1260 -0.3685
12450SOL    HW138035   4.883   4.553   0.743  0.7765  0.6806 -0.4275
12450SOL    HW238036   4.953   4.446   0.825  0.0287  0.1736 -0.4403
12451SOL     OW38037   1.948   2.566   5.717 -0.7135  0.5690 -0.6034
12451SOL    HW138038   1.934   2.520   5.800  1.9711 -0.0148 -0.3738
12451SOL    HW238039   2.004   2.640   5.740  0.6852 -0.0159 -1.9673
12452SOL     OW38040   5.855   5.270   3.965 -0.3263 -0.2712 -0.2330
12452SOL    HW138041   5.821   5.228   3.886  0.3712 -1.1996 -0.0640
12452SOL    HW238042   5.800   5.237   4.036 -2.0729  1.8956 -0.4863
12453SOL     OW38043   7.012   7.276   6.754  0.1530 -0.0806 -0.3692
12453SOL    HW138044   7.104   7.251   6.753 -0.1166 -1.1983  0.4075
12453SOL    HW238045   6.966   7.196   6.727 -0.6422  0.1394  0.3112
12454SOL     OW38046   0.950   1.781   2.297  0.2988  0.6075  0.0054
12454SOL    HW138047   0.938   1.720   2.370 -0.6939  0.0682 -0.5730
12454SOL    HW238048   1.042   1.806   2.300  0.7121 -0.8729  0.3089
12455SOL     OW38049   1.208   0.901   5.945  0.1906  0.4907  0.1626
12455SOL    HW138050   1.238   0.950   5.869 -1.7668  0.9043 -0.4172
12455SOL    HW238051   1.271   0.920   6.013  1.4819  0.8665 -1.0908
12456SOL     OW38052   3.801   2.079   4.385  0.5100 -0.8917  0.3446
12456SOL    HW138053   3.720   2.047   4.424  0.7523 -0.8800  0.8760
12456SOL    HW238054   3.774   2.127   4.308 -0.1618  0.8528  1.5977
12457SOL     OW38055   7.361   5.690   3.686 -0.4267  0.4025  0.6890
12457SOL    HW138056   7.284   5.633   3.695 -0.5491  0.5185  0.4003
12457SOL    HW238057   7.329   5.777   3.709 -0.5909  0.5927 -0.2289
12458SOL     OW38058   1.567   0.847   2.452 -0.2137 -0.2130  0.9416
12458SOL    HW138059   1.482   0.845   2.409 -0.2484 -0.4939  1.0246
12458SOL    HW238060   1.628   0.810   2.388  0.1529  1.5700  0.2065
12459SOL     OW38061   1.476   0.022   1.161  0.1204  0.1841  0.1076
12459SOL    HW138062   1.383   0.017   1.137 -0.3572  2.1703  1.3025
12459SOL    HW238063   1.484  -0.035   1.238 -0.1019  0.0662  0.0453
12460SOL     OW38064   3.167   1.333   7.255  0.5543  0.0038 -0.1289
12460SOL    HW138065   3.171   1.427   7.242  0.5159 -0.2183 -1.9552
12460SOL    HW238066   3.097   1.320   7.319 -0.3726  1.1354 -0.8848
12461SOL     OW38067   1.979   3.893   4.506 -0.0403 -0.0164  0.8079
12461SOL    HW138068   1.890   3.861   4.489  0.1041  0.1727 -0.4183
12461SOL    HW238069   2.025   3.819   4.544 -0.3935 -0.4919  0.3203
12462SOL     OW38070   5.991   0.624   2.567 -0.5850 -0.7244  0.4210
12462SOL    HW138071   6.023   0.547   2.522  0.8852 -0.7761  1.4886
12462SOL    HW238072   5.977   0.596   2.658 -1.9116 -0.2105  0.4131
12463SOL     OW38073   1.453   0.264   1.967 -0.1199  0.7159 -0.0371
12463SOL    HW138074   1.527   0.261   1.906 -0.7424  0.3986 -0.7953
12463SOL    HW238075   1.478   0.329   2.032  2.5967 -2.1781  2.0757
12464SOL     OW38076   1.055   6.418   1.093  0.5113  0.3153  0.0460
12464SOL    HW138077   1.001   6.483   1.048 -1.1814 -0.1016  1.3499
12464SOL    HW238078   1.108   6.470   1.154  2.0012  0.7730 -1.5787
12465SOL     OW38079   7.692   2.942   5.045 -0.4668 -0.2006 -0.1613
12465SOL    HW138080   7.744   2.976   5.118  1.6759 -2.3358 -0.5701
12465SOL    HW238081   7.602   2.946   5.076  0.1327  1.3543  1.5660
12466SOL     OW38082   1.038   0.655   4.610  0.1403 -0.1307 -0.1973
12466SOL    HW138083   1.061   0.700   4.529 -0.8740 -1.7795 -1.4681
12466SOL    HW238084   1.115   0.603   4.632  0.3420  0.1625 -0.2026
12467SOL     OW38085   6.204   3.018   1.067  0.2927  0.2553  0.0845
12467SOL    HW138086   6.161   3.051   0.988 -0.4000 -0.5047  0.1345
12467SOL    HW238087   6.251   3.094   1.102  1.1338  0.4685 -1.3832
12468SOL     OW38088   6.488   4.678   6.801 -0.4581 -0.1409  0.4447
12468SOL    HW138089   6.436   4.755   6.779 -0.1346  0.1600  0.7445
12468SOL    HW238090   6.519   4.693   6.889 -0.5047 -0.6804  0.5597
12469SOL     OW38091   0.245   0.262   1.900  0.4199 -0.4012 -0.3924
12469SOL    HW138092   0.243   0.338   1.843  0.0468 -0.5885 -0.6332
12469SOL    HW238093   0.337   0.237   1.904  0.7133  0.7556  0.6293
12470SOL     OW38094   7.579   0.551   4.566 -0.2362 -0.3106  0.1229
12470SOL    HW138095   7.626   0.629   4.535  0.4870 -0.4137  0.9120
12470SOL    HW238096   7.590   0.553   4.661  0.1074 -1.5609  0.1242
12471SOL     OW38097   0.452   1.671   2.373  0.1316  0.7711 -0.2926
12471SOL    HW138098   0.501   1.752   2.358 -0.5235  1.1920 -0.1735
12471SOL    HW238099   0.403   1.687   2.453  2.2397 -0.8243  1.4135
12472SOL     OW38100   2.946   2.959   1.852  0.6279 -0.1175  0.1073
12472SOL    HW138101   2.918   2.912   1.931  0.7976 -1.3298 -0.5394
12472SOL    HW238102   2.938   3.052   1.876 -0.5880 -0.4528  1.1011
12473SOL     OW38103   4.560   5.334   0.086  0.1041 -0.3795 -0.6312
12473SOL    HW138104   4.479   5.380   0.112 -0.4675 -1.5291 -0.3002
12473SOL    HW238105   4.629   5.380   0.133 -0.5347 -0.2731  0.2447
12474SOL     OW38106   4.369   5.802   3.075 -0.0425  0.0182 -0.4942
12474SOL    HW138107   4.303   5.744   3.037  1.7402 -3.3839  1.1102
12474SOL    HW238108   4.319   5.868   3.123 -2.3606 -2.5242  0.8823
12475SOL     OW38109   1.153   3.166   3.522 -0.1656 -0.6886 -0.3495
12475SOL    HW138110   1.196   3.228   3.581  2.0353 -1.5555 -0.9428
12475SOL    HW238111   1.219   3.099   3.505 -1.2717 -1.3249 -2.5237
12476SOL     OW38112   3.882   4.677   2.780  0.3302 -0.6237 -0.0089
12476SOL    HW138113   3.894   4.594   2.827 -1.8693 -0.8217  0.3454
12476SOL    HW238114   3.797   4.667   2.737  0.3784  1.1791 -0.5838
12477SOL     OW38115   6.299   1.918   4.652 -0.0579  0.0538  0.2076
12477SOL    HW138116   6.327   1.856   4.585 -1.5119  0.0779 -0.4523
12477SOL    HW238117   6.308   1.871   4.734 -0.2491 -0.7105 -0.2017
12478SOL     OW38118   7.550   1.348   2.146  0.8856  0.1425 -0.2002
12478SOL    HW138119   7.572   1.269   2.195 -0.2766  0.5989  1.1206
12478SOL    HW238120   7.605   1.416   2.183 -0.2894  0.5763  0.8073
12479SOL     OW38121   7.205   3.190   6.159 -0.8910  0.1271 -0.5273
12479SOL    HW138122   7.277   3.143   6.118  0.0639  1.0744 -0.0191
12479SOL    HW238123   7.176   3.133   6.230  1.2942  0.8814  1.0942
12480SOL     OW38124   0.176   0.914   4.723  0.6210 -0.2528  0.1246
12480SOL    HW138125   0.214   0.876   4.644  0.0580  0.1622 -0.3565
12480SOL    HW238126   0.083   0.922   4.704  0.5850  0.5429  0.5446
12481SOL     OW38127   5.859   0.965   6.157 -0.4031  0.1153  0.0327
12481SOL    HW138128   5.885   1.055   6.176 -0.5205  0.0884  0.3179
12481SOL    HW238129   5.895   0.948   6.070 -3.0749  1.5350 -1.4725
12482SOL     OW38130   3.361   0.682   4.979  0.1525  1.0194  0.3114
12482SOL    HW138131   3.419   0.622   4.931  0.2448  2.2703 -1.1860
12482SOL    HW238132   3.420   0.749   5.014 -0.2699  1.7908 -0.4358
12483SOL     OW38133   5.449   6.897   3.314 -0.7103  0.6827  0.0634
12483SOL    HW138134   5.485   6.889   3.402  0.4263 -2.1596 -0.5402
12483SOL    HW238135   5.364   6.937   3.326  0.9561  4.0499  1.9781
12484SOL     OW38136   1.661   0.372   0.617  0.4723 -0.1540  0.8816
12484SOL    HW138137   1.620   0.442   0.667  0.5899  0.1713  0.5230
12484SOL    HW238138   1.594   0.304   0.612  0.0125  0.3327  0.3827
12485SOL     OW38139   3.675   5.470   2.198 -0.7453  0.2595 -0.1796
12485SOL    HW138140   3.755   5.459   2.147 -0.8584  0.0228 -0.3036
12485SOL    HW238141   3.635   5.549   2.163  0.3994  1.4954  1.1508
12486SOL     OW38142   7.276   5.615   2.319 -0.2056 -0.3269  0.4420
12486SOL    HW138143   7.185   5.612   2.290  0.1947 -1.1548 -0.8058
12486SOL    HW238144   7.271   5.627   2.414 -1.5946  0.2734  0.3124
12487SOL     OW38145   6.495   0.909   2.748  0.3200  1.0791  0.0339
12487SOL    HW138146   6.427   0.976   2.749 -1.3451 -0.4402 -1.8973
12487SOL    HW238147   6.447   0.826   2.748  2.1533 -0.0694 -1.5972
12488SOL     OW38148   4.288   0.087   6.250 -0.4149  0.7801  0.6719
12488SOL    HW138149   4.332   0.103   6.333  2.3937  0.2552 -0.5887
12488SOL    HW238150   4.309  -0.004   6.229 -1.1239  0.8811 -0.5496
12489SOL     OW38151   4.984   2.551   7.296 -0.0494 -0.2146  0.3199
12489SOL    HW138152   5.045   2.486   7.262 -0.3015 -0.7965  0.9556
12489SOL    HW238153   4.913   2.500   7.334 -1.1426  0.4609 -0.7714
12490SOL     OW38154   3.089   6.993   7.375 -0.0436  0.2542  0.4774
12490SOL    HW138155   3.127   6.961   7.457  0.3743 -0.5090 -0.0077
12490SOL    HW238156   3.111   6.926   7.310 -1.1352  0.4194 -0.0800
12491SOL     OW38157   4.303   6.203   0.544 -0.2199 -0.4268 -0.3360
12491SOL    HW138158   4.301   6.202   0.448 -0.8312  2.4958 -0.4316
12491SOL    HW238159   4.213   6.221   0.570  0.2153  0.3635  0.7127
12492SOL     OW38160   2.293   0.746   3.008  0.4443 -0.0231  0.4414
12492SOL    HW138161   2.345   0.673   3.042  0.1590  0.0157  0.9700
12492SOL    HW238162   2.203   0.723   3.030 -0.2482 -1.7014 -3.2927
12493SOL     OW38163   1.677   0.682   5.704  0.1799  0.8217  0.1259
12493SOL    HW138164   1.648   0.631   5.780 -0.6429  0.1139 -0.6313
12493SOL    HW238165   1.772   0.691   5.715  0.5600 -1.8657 -0.2267
12494SOL     OW38166   6.424   0.680   3.638  0.2527 -0.1435 -0.4876
12494SOL    HW138167   6.412   0.594   3.598 -0.0803 -0.1952 -0.2696
12494SOL    HW238168   6.454   0.735   3.565  3.3366 -1.0889 -0.1103
12495SOL     OW38169   0.392   5.997   5.471  0.4143  0.1831  0.2488
12495SOL    HW138170   0.297   5.994   5.459  0.3830  2.3917 -0.6842
12495SOL    HW238171   0.423   5.914   5.437 -1.1280 -0.2226 -0.2798
12496SOL     OW38172   5.028   6.580   5.550  0.7728 -0.4106  0.1722
12496SOL    HW138173   5.121   6.599   5.561  0.6426 -0.0778  0.7326
12496SOL    HW238174   4.983   6.651   5.595  0.1906  0.7013 -2.0456
12497SOL     OW38175   2.307   5.697   5.184 -0.6941 -0.1647 -0.6695
12497SOL    HW138176   2.367   5.666   5.116 -1.2632 -1.1433 -0.7499
12497SOL    HW238177   2.231   5.729   5.136 -0.4119  0.7037 -0.5511
12498SOL     OW38178   6.472   7.041   0.345 -0.3091  0.5766  0.4947
12498SOL    HW138179   6.399   6.981   0.358  0.1986  0.2281  1.8664
12498SOL    HW238180   6.550   6.985   0.350  0.2711  1.5019  3.4636
12499SOL     OW38181   4.809   5.036   6.929 -0.2756 -0.2228 -0.5323
12499SOL    HW138182   4.787   5.096   6.858 -0.5529  0.9393  0.4965
12499SOL    HW238183   4.797   5.088   7.008  1.8650 -0.8823  0.2998
12500SOL     OW38184   3.746   5.665   5.689  0.5281  0.5663 -0.5476
12500SOL    HW138185   3.705   5.588   5.649  0.3676  1.0505 -1.3229
12500SOL    HW238186   3.835   5.636   5.710  0.2980  0.0027 -0.3128
12501SOL     OW38187   5.809   7.708   4.284  0.5600  0.3076 -0.0836
12501SOL    HW138188   5.789   7.801   4.292 -0.4903  0.5354 -3.7446
12501SOL    HW238189   5.900   7.705   4.254  1.3395 -0.0629  2.0813
12502SOL     OW38190   6.296   5.147   7.516  0.1566 -0.1548  0.6251
12502SOL    HW138191   6.242   5.115   7.443 -1.5508  1.5211  1.0797
12502SOL    HW238192   6.375   5.093   7.512 -0.3532 -0.8638 -1.7792
12503SOL     OW38193   0.961   0.859   2.781 -0.1769  0.4270  0.3379
12503SOL    HW138194   0.967   0.921   2.854  0.5922  2.3940 -1.2840
12503SOL    HW238195   1.039   0.804   2.790  0.9162  1.8688 -0.0049
12504SOL     OW38196   2.783   7.293   6.257  0.7319 -0.2792 -0.0101
12504SOL    HW138197   2.710   7.276   6.315  0.8478 -1.2870 -0.1423
12504SOL    HW238198   2.861   7.275   6.309  0.8490 -0.6644 -0.3117
12505SOL     OW38199   0.670   6.038   5.085 -0.3075  0.0059 -0.0779
12505SOL    HW138200   0.736   6.043   5.154 -0.0125  1.0698 -0.4264
12505SOL    HW238201   0.589   6.069   5.126 -0.5380 -1.0123  0.2641
12506SOL     OW38202   6.103   4.244   1.051 -0.1064 -0.5023 -0.6768
12506SOL    HW138203   6.093   4.175   0.984  0.8675 -0.2127 -1.1311
12506SOL    HW238204   6.140   4.198   1.126  0.7819 -0.4423 -1.0656
12507SOL     OW38205   5.880   4.423   7.329 -0.4336 -0.3401 -0.4330
12507SOL    HW138206   5.803   4.451   7.378 -0.6545 -0.7303 -0.5576
12507SOL    HW238207   5.938   4.500   7.330 -0.4036 -0.3632  0.5074
12508SOL     OW38208   2.764   7.516   6.049 -0.9108  0.2142  0.5221
12508SOL    HW138209   2.780   7.446   6.112 -1.4585  0.9192  1.4634
12508SOL    HW238210   2.847   7.525   6.002 -0.5975 -0.5473  0.9109
12509SOL     OW38211   2.338   1.434   2.575 -0.2540 -0.0178  0.8677
12509SOL    HW138212   2.377   1.484   2.646 -2.8821  1.5818  1.3201
12509SOL    HW238213   2.259   1.395   2.614  0.2651 -2.2839 -0.2160
12510SOL     OW38214   3.236   5.488   7.629  0.1249 -0.4826 -0.3504
12510SOL    HW138215   3.320   5.487   7.584 -0.6699 -0.0124 -1.9289
12510SOL    HW238216   3.181   5.429   7.577 -0.6624 -0.3833  0.3595
12511SOL     OW38217   5.863   7.673   6.359  0.1778  0.4753  0.2379
12511SOL    HW138218   5.903   7.627   6.434  1.1243  0.1839 -0.4255
12511SOL    HW238219   5.824   7.751   6.397  0.0421 -0.0136  1.1421
12512SOL     OW38220   0.535   6.676   0.752  0.7399 -0.0426 -1.1258
12512SOL    HW138221   0.590   6.616   0.804  1.0465 -0.1582 -1.5769
12512SOL    HW238222   0.535   6.638   0.664  0.9738  0.6462 -1.4312
12513SOL     OW38223   0.731   7.197   1.406 -0.1340  0.5046  0.0153
12513SOL    HW138224   0.729   7.156   1.493  0.4893 -0.0118 -0.2001
12513SOL    HW238225   0.676   7.141   1.352  1.0475 -0.3185 -0.3773
12514SOL     OW38226   1.958   3.131   6.653  0.0895  0.4677 -0.6117
12514SOL    HW138227   2.021   3.141   6.724  0.6681 -1.8060 -0.7117
12514SOL    HW238228   1.985   3.195   6.588  1.8725  0.0740 -0.3155
12515SOL     OW38229   2.597   0.860   0.867 -0.0879 -0.3915 -0.2863
12515SOL    HW138230   2.654   0.934   0.889 -1.9010  1.3349 -1.0488
12515SOL    HW238231   2.548   0.890   0.790 -0.9763 -2.3599 -0.5435
12516SOL     OW38232   2.979   0.549   4.026  0.0968  0.0307 -0.4955
12516SOL    HW138233   2.975   0.453   4.022  1.0316  0.0154 -2.2277
12516SOL    HW238234   2.980   0.577   3.934  0.6553  1.6593 -0.0385
12517SOL     OW38235   0.906   5.809   4.597  0.2284 -0.2110 -0.1133
12517SOL    HW138236   0.830   5.750   4.606 -0.6926  0.6147 -1.9959
12517SOL    HW238237   0.937   5.821   4.687 -3.0434  0.9048  1.0309
12518SOL     OW38238   4.252   2.835   4.035 -0.2174 -0.2302 -0.3928
12518SOL    HW138239   4.292   2.892   3.968  0.6325  0.4129  0.6116
12518SOL    HW238240   4.177   2.796   3.992  1.3660 -1.3297 -2.3355
12519SOL     OW38241   3.387   5.111   5.009 -0.4858 -0.7195 -0.2965
12519SOL    HW138242   3.406   5.195   5.051  1.8347 -0.6852 -1.2413
12519SOL    HW238243   3.473   5.076   4.985 -1.4752 -2.6450 -1.3263
12520SOL     OW38244   0.337   1.184   4.520  0.3095 -0.1398 -0.0801
12520SOL    HW138245   0.331   1.270   4.477 -1.0719  0.2201  0.7746
12520SOL    HW238246   0.336   1.121   4.448 -2.0561  0.4428 -0.6336
12521SOL     OW38247   1.618   0.817   5.468  0.4319 -0.3571  0.0596
12521SOL    HW138248   1.708   0.799   5.440  0.1069 -2.3122  0.1162
12521SOL    HW238249   1.601   0.752   5.536 -0.5263  0.9860  1.1635
12522SOL     OW38250   1.234   6.671   1.171  0.1544  0.4607 -0.7382
12522SOL    HW138251   1.167   6.706   1.230  1.7440 -0.3322  1.6955
12522SOL    HW238252   1.309   6.730   1.181  1.8889 -1.8490  1.3199
12523SOL     OW38253   4.480   0.405   3.878  0.1675 -0.5582  0.4869
12523SOL    HW138254   4.403   0.445   3.918  1.2087 -0.3233  2.3756
12523SOL    HW238255   4.548   0.473   3.882  0.7713 -1.0965 -0.2041
12524SOL     OW38256   0.776   5.031   0.961 -0.2251 -0.3162 -0.5666
12524SOL    HW138257   0.870   5.048   0.970 -0.1146 -1.3506  0.4719
12524SOL    HW238258   0.739   5.057   1.045 -0.9514  0.5132 -1.1301
12525SOL     OW38259   3.072   6.446   1.561 -0.1262  0.1797 -0.1075
12525SOL    HW138260   3.086   6.413   1.650  2.0345 -1.6687 -1.0394
12525SOL    HW238261   2.977   6.451   1.552 -0.4091 -0.3079  2.0305
12526SOL     OW38262   3.358   0.048   1.350  0.2692 -0.0751 -0.0148
12526SOL    HW138263   3.317   0.002   1.423  0.0847  0.9896  0.5827
12526SOL    HW238264   3.307   0.024   1.273 -0.1562 -0.4205  0.3752
12527SOL     OW38265   7.107   6.734   7.358 -0.0573  0.8228 -0.0317
12527SOL    HW138266   7.189   6.773   7.388 -0.5443  1.1763  0.8863
12527SOL    HW238267   7.134   6.664   7.299  0.9233  0.5078  0.7575
12528SOL     OW38268   5.444   3.366   4.372  0.3400 -0.0821  0.1521
12528SOL    HW138269   5.502   3.439   4.392  2.4607 -1.0436 -2.0524
12528SOL    HW238270   5.383   3.400   4.306  0.8322 -0.0835 -0.3065
12529SOL     OW38271   2.808   5.820   6.783 -0.2458 -0.2026 -0.5331
12529SOL    HW138272   2.775   5.798   6.870 -0.3025 -0.9783 -0.7478
12529SOL    HW238273   2.760   5.900   6.759 -0.5645 -0.2448 -0.0468
12530SOL     OW38274   4.730   5.945   2.740 -0.0966  0.3718  0.5589
12530SOL    HW138275   4.804   5.886   2.756  0.0860  0.6287  0.6544
12530SOL    HW238276   4.769   6.029   2.718 -0.3517  0.2816 -0.2940
12531SOL     OW38277   2.621   6.754   4.110 -0.2329 -0.1213 -0.3616
12531SOL    HW138278   2.564   6.777   4.183 -0.2701  0.1134 -0.4636
12531SOL    HW238279   2.578   6.791   4.033  0.9025  1.5606 -0.2396
12532SOL     OW38280   6.985   0.711   6.346 -0.6745 -0.6147  0.1869
12532SOL    HW138281   7.081   0.718   6.345 -0.7235  0.1594 -1.0331
12532SOL    HW238282   6.968   0.618   6.333 -0.0979 -0.8845  1.1998
12533SOL     OW38283   7.588   5.966   3.951 -0.6408 -0.1423  0.1386
12533SOL    HW138284   7.667   6.011   3.920 -0.4601 -0.7998 -0.3636
12533SOL    HW238285   7.553   6.024   4.018 -2.0672  2.2770 -2.4845
12534SOL     OW38286   7.542   0.666   5.552  0.3947 -0.1044  0.1955
12534SOL    HW138287   7.536   0.689   5.459 -0.3309  1.0713  0.5177
12534SOL    HW238288   7.564   0.748   5.596 -0.1863 -0.4433  1.1603
12535SOL     OW38289   5.024   3.455   1.366  0.0996 -0.3348  0.3983
12535SOL    HW138290   5.036   3.385   1.302  0.0443  1.2033 -1.3990
12535SOL    HW238291   4.935   3.487   1.349 -0.3091 -0.5494  1.9781
12536SOL     OW38292   3.311   4.266   0.853 -0.7562  0.2271  0.3944
12536SOL    HW138293   3.261   4.344   0.881  0.5402  1.8396 -1.4912
12536SOL    HW238294   3.388   4.266   0.908 -0.4378  0.6957 -0.0398
12537SOL     OW38295   5.591   1.843   4.112 -0.1251 -0.8576  0.1756
12537SOL    HW138296   5.633   1.849   4.026 -1.5925 -0.4763 -0.5429
12537SOL    HW238297   5.660   1.811   4.170  1.7643  1.6436 -0.5009
12538SOL     OW38298   6.304   2.434   0.824  0.1694  0.7087  0.4435
12538SOL    HW138299   6.284   2.343   0.843 -0.0919  0.0998 -2.2857
12538SOL    HW238300   6.249   2.484   0.884 -2.2114 -0.9661 -0.1977
12539SOL     OW38301   5.319   4.639   6.191  0.2601  0.0510  0.2890
12539SOL    HW138302   5.314   4.543   6.197  0.1506 -0.0214 -0.7613
12539SOL    HW238303   5.323   4.668   6.282 -0.2327 -0.9246  0.6469
12540SOL     OW38304   0.890   2.007   0.868 -0.2854  0.2359 -0.1225
12540SOL    HW138305   0.940   2.031   0.946 -1.0128  1.2405  0.0510
12540SOL    HW238306   0.932   1.927   0.836  0.4028  0.1603  0.9424
12541SOL     OW38307   0.656   0.288   7.206  0.0047 -0.0708 -0.5695
12541SOL    HW138308   0.624   0.238   7.131 -1.1820 -0.3917  0.1231
12541SOL    HW238309   0.601   0.366   7.208  0.1396  0.0180 -0.1357
12542SOL     OW38310   5.436   0.697   4.840 -0.4054  0.5154 -0.4921
12542SOL    HW138311   5.511   0.661   4.886 -1.2710 -0.5984  0.1131
12542SOL    HW238312   5.409   0.772   4.892 -1.8873 -1.2243  1.3843
12543SOL     OW38313   2.297   1.887   7.593 -0.8783  0.0281  0.1990
12543SOL    HW138314   2.215   1.869   7.549 -0.8194 -0.0853  0.1367
12543SOL    HW238315   2.362   1.833   7.548 -1.1515 -1.6119  1.6653
12544SOL     OW38316   2.990   7.106   5.888 -0.3040 -0.0387  0.2455
12544SOL    HW138317   3.037   7.033   5.928 -0.0214 -0.1170 -0.2143
12544SOL    HW238318   2.928   7.066   5.828  0.3624  0.1023 -0.5607
12545SOL     OW38319   1.518   4.995   5.663 -0.0666  0.1142 -0.2313
12545SOL    HW138320   1.492   5.062   5.726  1.0967  0.5533 -0.1893
12545SOL    HW238321   1.612   5.011   5.648  0.1694 -1.3313 -0.4397
12546SOL     OW38322   1.788   4.910   6.934 -0.1146 -0.2670 -0.9228
12546SOL    HW138323   1.847   4.846   6.894  0.8438 -0.3900  0.6158
12546SOL    HW238324   1.806   4.904   7.028 -1.2528  1.0339 -0.5904
12547SOL     OW38325   4.846   2.473   5.929  0.3572  0.1293  0.4132
12547SOL    HW138326   4.927   2.424   5.948 -0.0025 -0.3926  0.6110
12547SOL    HW238327   4.875   2.544   5.871  0.5344 -1.7033 -1.9132
12548SOL     OW38328   4.382   4.719   2.014 -0.0999  0.3446  0.3236
12548SOL    HW138329   4.453   4.765   2.058 -0.2138  1.1375 -0.2797
12548SOL    HW238330   4.304   4.773   2.031 -0.3626  0.0236  0.1598
12549SOL     OW38331   0.233   4.907   4.394  0.3549 -0.5167  0.4808
12549SOL    HW138332   0.249   4.961   4.317  0.6448  0.6636  1.3439
12549SOL    HW238333   0.317   4.864   4.412  0.3583 -0.5851  0.3057
12550SOL     OW38334   2.997   7.471   2.059 -0.0395 -0.3416  0.5528
12550SOL    HW138335   2.964   7.545   2.110  1.8159  0.0946  1.2012
12550SOL    HW238336   3.046   7.418   2.122  0.3675 -1.0452 -0.3313
12551SOL     OW38337   5.029   7.456   3.198  0.0539 -0.2796 -0.1402
12551SOL    HW138338   5.122   7.445   3.180  0.1019  0.2511 -0.2224
12551SOL    HW238339   4.992   7.487   3.116 -0.3577 -1.3109 -0.3682
12552SOL     OW38340   7.107   4.683   5.148  0.0869  0.1533 -0.4482
12552SOL    HW138341   7.200   4.660   5.144  0.5223  1.8929 -2.7454
12552SOL    HW238342   7.064   4.605   5.182  2.4978 -0.1868  2.1657
12553SOL     OW38343   1.235   7.388   0.824  0.2890  0.5759  0.3543
12553SOL    HW138344   1.259   7.418   0.912  0.3170  0.7800  0.2794
12553SOL    HW238345   1.140   7.383   0.825  0.3389 -0.5831  0.7634
12554SOL     OW38346   1.041   0.437   6.644  0.5895 -0.6545 -0.4737
12554SOL    HW138347   1.106   0.495   6.684  0.1432 -0.7263  0.3801
12554SOL    HW238348   0.958   0.467   6.679  0.3671 -1.9328  0.1221
12555SOL     OW38349   5.605   5.891   2.121  0.1073  0.4801  0.1495
12555SOL    HW138350   5.665   5.822   2.149  1.6822  1.3990 -0.8001
12555SOL    HW238351   5.646   5.929   2.044 -1.3524  1.6547 -0.1039
12556SOL     OW38352   5.663   5.209   0.350 -0.1757  0.5515  0.4081
12556SOL    HW138353   5.717   5.185   0.426 -1.1633  0.9474  1.2612
12556SOL    HW238354   5.711   5.174   0.275  0.7265 -0.0413  1.2266
12557SOL     OW38355   2.613   4.290   6.333 -0.3480 -0.1240  0.4390
12557SOL    HW138356   2.585   4.199   6.331  0.9653 -0.6199  2.1585
12557SOL    HW238357   2.581   4.323   6.418  0.7852  0.4615  0.6525
12558SOL     OW38358   5.955   1.578   2.205 -0.2127 -0.2750 -0.4149
12558SOL    HW138359   6.026   1.628   2.165 -0.2263 -0.4190 -0.6180
12558SOL    HW238360   5.998   1.525   2.272  0.2027 -1.9288 -1.9160
12559SOL     OW38361   1.330   2.390   4.936  0.2070  0.2582 -1.2455
12559SOL    HW138362   1.383   2.406   5.014  0.1128 -0.1228 -1.0989
12559SOL    HW238363   1.340   2.296   4.919 -1.0481  0.0003 -0.7251
12560SOL     OW38364   2.828   2.394   1.814  0.3723  0.2679  0.1481
12560SOL    HW138365   2.744   2.439   1.818 -0.3362 -0.8728 -1.0593
12560SOL    HW238366   2.817   2.319   1.872  1.1240  0.9444  1.2027
12561SOL     OW38367   1.940   3.467   7.395 -0.1137  0.5785 -0.1189
12561SOL    HW138368   1.920   3.550   7.352 -0.5419 -0.5746 -2.2496
12561SOL    HW238369   1.856   3.422   7.403  0.2177  0.0113  0.2926
12562SOL     OW38370   1.304   4.903   1.927  0.3730 -0.1141  0.0036
12562SOL    HW138371   1.242   4.923   1.997  1.6452  0.8457  0.9028
12562SOL    HW238372   1.353   4.984   1.914  1.8569 -1.0077 -0.2211
12563SOL     OW38373   3.881   0.728   4.921  0.0131  0.4736  0.2065
12563SOL    HW138374   3.810   0.667   4.943  0.3236  0.2237  0.5345
12563SOL    HW238375   3.859   0.809   4.967  0.4647  0.0731  1.1481
12564SOL     OW38376   7.002   1.590   6.680  0.2924  0.5880  0.1980
12564SOL    HW138377   6.942   1.663   6.693 -0.6630 -0.1946  0.2469
12564SOL    HW238378   6.991   1.566   6.588 -0.7078 -0.6134  0.6155
12565SOL     OW38379   3.283   1.592   5.550  0.0388 -0.0759  0.4523
12565SOL    HW138380   3.281   1.622   5.459 -0.9188 -1.4590 -0.0189
12565SOL    HW238381   3.376   1.580   5.569  0.2708  0.6125 -0.2105
12566SOL     OW38382   2.489   1.724   6.083 -0.0928  0.6397  0.1975
12566SOL    HW138383   2.475   1.799   6.141  0.4118 -0.4710  1.8256
12566SOL    HW238384   2.565   1.679   6.120  0.8420  0.3674 -1.8858
12567SOL     OW38385   4.840   0.419   3.797 -0.0596 -0.4602 -0.2142
12567SOL    HW138386   4.860   0.399   3.889  1.0928  2.3780  0.2592
12567SOL    HW238387   4.915   0.385   3.748  2.1122  2.6000  0.6219
12568SOL     OW38388   0.585   4.952   2.028 -0.4130  0.2408  0.5053
12568SOL    HW138389   0.592   4.858   2.046 -1.9903  0.2285  1.2030
12568SOL    HW238390   0.616   4.994   2.108 -0.6022  0.2993  0.5472
12569SOL     OW38391   0.732   1.406   4.771 -0.5027  0.2097  0.3059
12569SOL    HW138392   0.715   1.446   4.857  0.5779 -1.6947  1.4568
12569SOL    HW238393   0.825   1.418   4.757 -0.3410 -1.0341  0.2392
12570SOL     OW38394   4.328   3.221   5.841 -0.4515  0.2784  0.4318
12570SOL    HW138395   4.415   3.259   5.838 -0.6582  0.8802  1.5242
12570SOL    HW238396   4.319   3.189   5.931 -1.7751  1.2822  0.6852
12571SOL     OW38397   6.678   4.246   3.090 -0.2863 -0.1795 -0.0561
12571SOL    HW138398   6.708   4.238   2.999 -0.0415  1.0732 -0.0932
12571SOL    HW238399   6.585   4.265   3.083 -0.2082  0.2020 -0.0499
12572SOL     OW38400   3.656   7.632   7.040 -0.3678  0.0244  0.1846
12572SOL    HW138401   3.693   7.715   7.069 -0.0039  0.7704 -2.2231
12572SOL    HW238402   3.567   7.632   7.077 -0.6913  1.9208 -0.4836
12573SOL     OW38403   1.375   3.454   6.374 -0.5121  0.1484 -0.1450
12573SOL    HW138404   1.415   3.507   6.304 -1.0524 -1.0679 -1.4209
12573SOL    HW238405   1.435   3.463   6.448  0.6955  0.5541 -1.1373
12574SOL     OW38406   2.108   2.375   2.055  0.1427  0.2936 -0.0433
12574SOL    HW138407   2.062   2.303   2.099 -1.5728  0.9509 -0.6805
12574SOL    HW238408   2.178   2.399   2.116  0.6930 -1.8043  0.2369
12575SOL     OW38409   1.071   3.477   1.978 -0.2877 -0.3634  0.2974
12575SOL    HW138410   1.113   3.410   1.925  2.4283  0.7781  0.8647
12575SOL    HW238411   0.985   3.440   1.999  0.8521 -3.3981  0.0994
12576SOL     OW38412   5.838   5.693   0.368  0.8073  0.3921 -0.0082
12576SOL    HW138413   5.909   5.750   0.335  0.5457  1.7246  1.6063
12576SOL    HW238414   5.869   5.664   0.453  0.1487 -0.4630 -0.0560
12577SOL     OW38415   7.406   2.818   0.836 -0.2412 -0.4724  0.6614
12577SOL    HW138416   7.327   2.862   0.807  0.1363  0.7199  1.3501
12577SOL    HW238417   7.445   2.782   0.757  0.9389  2.9396 -0.4813
12578SOL     OW38418   5.633   6.517   6.838  0.1532  0.0898 -0.0905
12578SOL    HW138419   5.582   6.597   6.824 -0.8291 -0.0244  2.3108
12578SOL    HW238420   5.567   6.448   6.849  0.9298 -0.6487  0.0421
12579SOL     OW38421   0.574   6.941   3.928  0.4136  0.1339 -0.4975
12579SOL    HW138422   0.553   7.010   3.864 -1.6019 -0.2914 -0.3825
12579SOL    HW238423   0.587   6.989   4.010 -0.5401  0.4487 -0.5107
12580SOL     OW38424   1.022   7.341   3.977  0.6634 -0.1354 -0.7394
12580SOL    HW138425   1.061   7.297   3.901  0.2465 -0.3217 -0.8464
12580SOL    HW238426   1.009   7.431   3.948  0.7403 -0.1452 -0.8044
12581SOL     OW38427   6.301   3.971   5.452  0.5981  0.3378  0.6304
12581SOL    HW138428   6.304   3.899   5.390  2.2085  0.5076  0.4765
12581SOL    HW238429   6.287   3.929   5.537  0.6068 -0.0742  0.4300
12582SOL     OW38430   6.700   6.372   4.597 -0.1750 -0.3596  0.2426
12582SOL    HW138431   6.691   6.467   4.604  0.7494 -0.3021  0.7880
12582SOL    HW238432   6.616   6.338   4.631 -1.0474  0.2646 -1.2002
12583SOL     OW38433   5.913   7.377   0.158 -0.1559  0.1631 -0.5656
12583SOL    HW138434   5.912   7.314   0.086 -0.2586 -1.3852  0.7402
12583SOL    HW238435   5.966   7.335   0.226  0.9123  2.0898 -0.1521
12584SOL     OW38436   6.649   7.552   1.402  0.2304 -0.1967  0.3143
12584SOL    HW138437   6.630   7.461   1.382 -0.4619  0.0159 -0.0135
12584SOL    HW238438   6.736   7.567   1.365 -0.0856 -0.4383 -0.5442
12585SOL     OW38439   5.916   3.762   7.614 -0.1706  0.4870 -0.8054
12585SOL    HW138440   5.996   3.750   7.665  0.5872  0.7869 -1.8615
12585SOL    HW238441   5.935   3.836   7.557 -1.1563  0.4718 -1.1824
12586SOL     OW38442   4.778   2.477   7.637 -0.1089 -0.8132 -0.1423
12586SOL    HW138443   4.722   2.399   7.641  0.8447 -1.4950  0.4372
12586SOL    HW238444   4.813   2.485   7.726 -0.5598  0.5676 -0.0742
12587SOL     OW38445   7.712   7.361   5.619 -0.0398  0.0006 -0.4711
12587SOL    HW138446   7.695   7.437   5.675 -0.7255 -1.1771  0.9987
12587SOL    HW238447   7.786   7.387   5.564  1.2626  0.9406  1.6060
12588SOL     OW38448   4.728   5.483   6.913  0.1632 -0.0810 -0.0770
12588SOL    HW138449   4.745   5.576   6.898 -2.7450  0.8118  1.4086
12588SOL    HW238450   4.636   5.471   6.888 -0.6598 -1.6657  3.1931
12589SOL     OW38451   7.727   4.478   1.746  0.6881  0.2405  0.1423
12589SOL    HW138452   7.808   4.527   1.739  1.1185 -0.5269 -0.4042
12589SOL    HW238453   7.714   4.439   1.659  0.2634 -0.4505  0.5010
12590SOL     OW38454   7.178   4.517   1.256 -0.0618  0.1581  0.1664
12590SOL    HW138455   7.236   4.460   1.206  0.0383 -0.4927  0.9980
12590SOL    HW238456   7.097   4.467   1.267  0.1619 -0.0029  1.2254
12591SOL     OW38457   3.312   1.440   4.587 -0.5235 -0.7038  0.1539
12591SOL    HW138458   3.320   1.510   4.522  3.9856  0.5621  1.7026
12591SOL    HW238459   3.301   1.486   4.671  1.8042 -1.7397  1.1278
12592SOL     OW38460   2.680   4.332   2.382 -0.2546  0.1617 -0.1712
12592SOL    HW138461   2.631   4.255   2.352  1.2305 -0.2879 -1.5740
12592SOL    HW238462   2.720   4.303   2.464 -0.5526 -0.2032 -0.1466
12593SOL     OW38463   0.010   5.759   0.440 -0.1868 -0.5204  0.7442
12593SOL    HW138464   0.044   5.746   0.528  1.6662  0.2527  0.1882
12593SOL    HW238465   0.007   5.672   0.402  0.8877 -0.6473  0.9306
12594SOL     OW38466   6.008   2.034   3.372  0.3118  0.6218 -0.3937
12594SOL    HW138467   5.991   2.127   3.356  0.1410  0.7043  0.2192
12594SOL    HW238468   6.095   2.031   3.411  0.3042  0.5314 -0.3828
12595SOL     OW38469   2.181   3.143   7.108 -0.1029  0.2569  0.3351
12595SOL    HW138470   2.276   3.144   7.117 -0.1432 -0.4005  0.9699
12595SOL    HW238471   2.148   3.139   7.198 -0.7994  2.4990  0.2407
12596SOL     OW38472   2.649   2.983   2.353 -0.0112  0.2843 -0.0147
12596SOL    HW138473   2.701   3.013   2.428 -0.8503 -1.4559  1.3346
12596SOL    HW238474   2.603   3.062   2.323 -0.8315  0.7630  2.2890
12597SOL     OW38475   2.867   5.585   3.711 -0.1514  0.2312  0.4103
12597SOL    HW138476   2.773   5.600   3.718 -0.0211  1.2507  0.2017
12597SOL    HW238477   2.906   5.668   3.740  0.7345 -0.7093  2.0908
12598SOL     OW38478   0.085   5.664   4.831  0.0603 -0.3481 -0.3258
12598SOL    HW138479   0.166   5.624   4.864 -0.0708 -0.2825  0.0913
12598SOL    HW238480   0.023   5.591   4.826 -1.0401  0.1264  3.1052
12599SOL     OW38481   6.243   5.794   4.246 -0.1139 -0.0556 -0.0687
12599SOL    HW138482   6.172   5.810   4.309  0.5415 -0.0240  0.6819
12599SOL    HW238483   6.215   5.716   4.198 -2.1729  1.7676 -2.0525
12600SOL     OW38484   7.057   4.351   3.275  0.3692 -0.3913 -0.0343
12600SOL    HW138485   7.038   4.444   3.285  2.0210  0.0535 -0.7282
12600SOL    HW238486   7.096   4.325   3.359 -0.9612 -0.7203  0.5088
12601SOL     OW38487   0.866   4.200   5.301  0.2982 -0.3963  0.1409
12601SOL    HW138488   0.949   4.247   5.308  0.3795 -0.6298  0.7454
12601SOL    HW238489   0.807   4.247   5.359  0.0914 -0.4192 -0.0504
12602SOL     OW38490   1.704   2.769   1.395 -0.1906  0.0953  0.6647
12602SOL    HW138491   1.610   2.783   1.406 -0.3369  0.7619 -1.1142
12602SOL    HW238492   1.729   2.829   1.325  1.2670 -1.1822  0.0330
12603SOL     OW38493   5.227   4.006   4.842  0.7205 -0.3080 -0.2106
12603SOL    HW138494   5.140   3.966   4.854 -0.1437 -0.3044 -4.5852
12603SOL    HW238495   5.251   4.038   4.928 -2.6008 -2.2952  1.6851
12604SOL     OW38496   1.072   7.597   0.608 -0.7889  0.1836  0.2423
12604SOL    HW138497   0.997   7.596   0.548 -0.4489 -0.3075 -0.1810
12604SOL    HW238498   1.135   7.536   0.569 -0.7316 -0.4698  1.3233
12605SOL     OW38499   7.085   2.016   5.664 -0.2624 -0.5786  0.3324
12605SOL    HW138500   7.019   2.073   5.705 -0.0268 -0.0953  0.0442
12605SOL    HW238501   7.112   2.063   5.586 -0.5058 -1.3706 -0.2449
12606SOL     OW38502   5.202   0.585   6.337 -0.4311 -0.2388 -0.1836
12606SOL    HW138503   5.182   0.636   6.259 -0.0993 -0.2063 -0.2498
12606SOL    HW238504   5.149   0.625   6.406 -0.6723 -0.2241 -0.3764
12607SOL     OW38505   1.167   3.545   2.443  0.3584 -0.3762  0.4217
12607SOL    HW138506   1.258   3.528   2.464  1.1000  2.4833  0.0039
12607SOL    HW238507   1.170   3.611   2.374 -2.0490 -0.8433 -0.2515
12608SOL     OW38508   7.378   5.422   3.599 -0.8859 -0.5252  0.3726
12608SOL    HW138509   7.373   5.461   3.512  0.3160  0.4483  0.6948
12608SOL    HW238510   7.288   5.418   3.629 -1.3196 -0.9092 -0.9231
12609SOL     OW38511   4.984   5.450   5.225  0.1073 -0.6655 -0.5523
12609SOL    HW138512   4.953   5.412   5.143 -2.0687 -1.6402  0.6214
12609SOL    HW238513   4.981   5.544   5.211 -0.8302 -0.8094 -1.4024
12610SOL     OW38514   4.688   3.883   3.683  0.2212 -0.3012 -0.4537
12610SOL    HW138515   4.667   3.791   3.697 -0.7658 -0.0385 -0.0607
12610SOL    HW238516   4.744   3.906   3.757  0.2799 -0.5295 -0.4268
12611SOL     OW38517   1.113   5.546   0.921 -0.0002  0.2254  0.3201
12611SOL    HW138518   1.087   5.558   1.012  0.5211 -0.6737  0.5992
12611SOL    HW238519   1.031   5.548   0.872 -0.4402 -0.7973  0.9823
12612SOL     OW38520   2.939   2.025   7.216 -0.4260 -0.2736  0.1130
12612SOL    HW138521   2.929   2.005   7.310 -1.3558 -1.6405 -0.2455
12612SOL    HW238522   2.849   2.029   7.183 -0.0992  0.0651 -0.7600
12613SOL     OW38523   1.087   1.079   1.092  0.4644  0.1442  0.2991
12613SOL    HW138524   1.140   1.059   1.014 -0.8305 -1.0809 -0.3300
12613SOL    HW238525   1.131   1.032   1.163  1.4442  0.9536  0.2495
12614SOL     OW38526   3.013   7.309   1.065 -0.2112 -0.2591  0.1279
12614SOL    HW138527   2.920   7.303   1.047 -0.2248 -0.7064  0.3274
12614SOL    HW238528   3.047   7.221   1.048  0.2304 -0.0219 -0.2475
12615SOL     OW38529   7.703   2.793   0.259  0.3743  0.2304 -0.0947
12615SOL    HW138530   7.736   2.748   0.182 -0.8474  0.6053 -0.8645
12615SOL    HW238531   7.709   2.886   0.239 -2.5685  0.3489 -0.9947
12616SOL     OW38532   4.063   0.045   4.383  0.1335  0.0997 -0.9959
12616SOL    HW138533   4.113  -0.030   4.351 -0.9956 -0.6135 -1.1166
12616SOL    HW238534   3.992   0.007   4.435 -0.0872  1.1122 -0.5275
12617SOL     OW38535   1.743   1.809   4.328 -0.2298 -0.1175 -0.4944
12617SOL    HW138536   1.751   1.903   4.314 -0.1432 -0.1951 -0.9757
12617SOL    HW238537   1.798   1.791   4.404 -1.0398  0.3756  0.2357
12618SOL     OW38538   1.625   0.678   3.816  0.7355  0.1455  0.1210
12618SOL    HW138539   1.697   0.616   3.812  0.1983 -0.4301 -1.4706
12618SOL    HW238540   1.584   0.663   3.901  1.9902 -0.0635  0.7076
12619SOL     OW38541   5.807   2.522   6.856 -0.1796  0.1619  0.0642
12619SOL    HW138542   5.814   2.429   6.877  3.1175  0.2461 -0.1510
12619SOL    HW238543   5.836   2.567   6.935  2.6656  0.7656 -1.1947
12620SOL     OW38544   7.121   6.608   4.452 -0.4951 -0.1234  0.0311
12620SOL    HW138545   7.071   6.687   4.431 -0.8550 -0.1450  0.7836
12620SOL    HW238546   7.061   6.536   4.432  0.1619 -0.2742 -1.5839
12621SOL     OW38547   0.608   1.069   0.550 -0.4362 -0.1840  0.6667
12621SOL    HW138548   0.513   1.079   0.554 -0.5751 -1.6407  2.2513
12621SOL    HW238549   0.632   1.037   0.637  1.6424  1.0347  0.6135
12622SOL     OW38550   1.015   6.573   5.396 -0.5462 -0.4269 -0.1263
12622SOL    HW138551   1.068   6.502   5.434 -1.3674 -0.2691  1.4072
12622SOL    HW238552   0.925   6.538   5.398 -0.8813  0.4330  0.1406
12623SOL     OW38553   2.950   6.131   0.449  0.4150  0.2219  0.3065
12623SOL    HW138554   3.000   6.212   0.453  2.9588 -1.1519 -1.0975
12623SOL    HW238555   2.979   6.081   0.526 -0.9941  0.5014  1.0606
12624SOL     OW38556   6.925   1.999   6.500 -0.2157 -0.6245 -0.4786
12624SOL    HW138557   7.017   1.995   6.529 -0.7890 -1.1396  1.4036
12624SOL    HW238558   6.926   2.061   6.427  1.2095  1.7123  1.3700
12625SOL     OW38559   4.362   3.950   2.930  0.3009  0.1397  0.2919
12625SOL    HW138560   4.385   3.989   3.015  0.4678 -0.3864  0.4925
12625SOL    HW238561   4.281   3.902   2.947 -0.5032  1.2953 -0.2166
12626SOL     OW38562   4.555   6.168   0.084  0.0900 -0.7748 -0.2220
12626SOL    HW138563   4.573   6.219   0.006 -2.7328 -0.2240 -0.6346
12626SOL    HW238564   4.639   6.162   0.130  0.7017  4.0359 -0.2662
12627SOL     OW38565   6.385   4.313   2.494  0.2877 -0.2548 -0.2037
12627SOL    HW138566   6.298   4.302   2.533 -0.4013  1.0846 -1.2686
12627SOL    HW238567   6.397   4.408   2.489  2.0782 -0.4061  0.4584
12628SOL     OW38568   6.391   6.567   4.937 -0.2454  0.2137  0.0700
12628SOL    HW138569   6.349   6.515   5.006  1.4134  0.0507  0.9933
12628SOL    HW238570   6.480   6.532   4.931 -0.1082  0.7777 -1.6027
12629SOL     OW38571   5.996   4.508   3.234 -0.3416  0.1079 -0.3570
12629SOL    HW138572   5.983   4.414   3.220  1.4995 -0.1143 -0.7609
12629SOL    HW238573   6.015   4.516   3.328  0.4117 -0.0440 -0.4935
12630SOL     OW38574   4.085   1.614   7.027 -0.3855  0.7380  0.0277
12630SOL    HW138575   4.141   1.620   7.105  0.0899 -1.2872 -0.1019
12630SOL    HW238576   4.076   1.704   6.997  2.9512  1.1857 -0.0339
12631SOL     OW38577   3.529   1.016   1.818 -0.4013  0.5497 -0.3567
12631SOL    HW138578   3.455   0.984   1.766 -0.6568 -0.5473  0.6369
12631SOL    HW238579   3.604   0.965   1.786 -0.6052 -0.3103  0.4777
12632SOL     OW38580   2.170   5.429   0.420  0.2312 -0.2876 -0.2160
12632SOL    HW138581   2.107   5.491   0.384  0.8921  0.1132 -0.6948
12632SOL    HW238582   2.208   5.473   0.495  0.7791 -0.0574 -0.6197
12633SOL     OW38583   3.792   6.751   1.719  0.1135  0.4012 -0.4865
12633SOL    HW138584   3.828   6.687   1.780  0.1433  1.5262  0.7169
12633SOL    HW238585   3.852   6.751   1.645 -0.0590 -1.1678 -0.6651
12634SOL     OW38586   2.570   2.890   6.809 -0.2103 -0.1763 -0.3973
12634SOL    HW138587   2.499   2.900   6.746  0.3949  2.2679 -0.7901
12634SOL    HW238588   2.630   2.828   6.768  0.3863  1.6891 -2.4976
12635SOL     OW38589   1.673   0.478   7.283 -0.3376  0.0668 -0.6164
12635SOL    HW138590   1.615   0.534   7.231  0.0483 -1.0085 -2.2733
12635SOL    HW238591   1.652   0.500   7.374 -3.3545 -0.2810 -1.1292
12636SOL     OW38592   0.726   6.699   6.742 -0.1255  0.3097  0.2901
12636SOL    HW138593   0.663   6.627   6.739 -0.4635  0.6164 -0.0365
12636SOL    HW238594   0.747   6.717   6.651 -0.0109  0.6044  0.3741
12637SOL     OW38595   1.743   0.294   6.631  0.5379  0.1129 -0.3778
12637SOL    HW138596   1.835   0.293   6.658  0.6876 -1.4150 -0.8279
12637SOL    HW238597   1.718   0.386   6.634  1.7702  0.4449  0.7858
12638SOL     OW38598   2.112   5.736   5.011 -0.0693  0.1075 -0.6218
12638SOL    HW138599   2.119   5.726   4.916 -0.4385  0.0846 -0.6464
12638SOL    HW238600   2.044   5.674   5.037 -2.5860  2.5855 -0.8149
12639SOL     OW38601   6.543   1.809   3.462  0.1350  0.7445 -0.1834
12639SOL    HW138602   6.634   1.838   3.464  0.3536  0.0504  1.1341
12639SOL    HW238603   6.504   1.842   3.543 -0.8247  1.0982 -0.7616
12640SOL     OW38604   4.029   4.111   0.784  0.0821 -0.7335  0.3843
12640SOL    HW138605   3.979   4.117   0.702 -0.7924  0.3923  0.9687
12640SOL    HW238606   4.117   4.141   0.761  0.3010 -1.9982 -0.4935
12641SOL     OW38607   7.319   0.408   2.664  0.1214  0.4370 -0.0018
12641SOL    HW138608   7.389   0.408   2.729 -0.6097 -0.5018  0.7921
12641SOL    HW238609   7.306   0.501   2.645  1.5811  0.6385 -0.1871
12642SOL     OW38610   6.653   6.637   4.562  0.5363  0.3049  0.4890
12642SOL    HW138611   6.589   6.708   4.569 -0.9347 -1.0097  1.0456
12642SOL    HW238612   6.715   6.653   4.633  0.7874  1.5516  0.0010
12643SOL     OW38613   4.191   0.181   7.135 -0.3062 -0.0862 -0.2919
12643SOL    HW138614   4.224   0.271   7.141  0.2260 -0.3310  0.7526
12643SOL    HW238615   4.098   0.188   7.157  0.1211  0.0068  1.7631
12644SOL     OW38616   5.837   5.761   5.326  0.0286 -0.2703  0.1200
12644SOL    HW138617   5.755   5.795   5.289  1.7151  2.6384 -1.3240
12644SOL    HW238618   5.832   5.784   5.419 -0.2564  1.1954 -0.2201
12645SOL     OW38619   3.408   6.785   0.865  0.5225  0.0146  0.0042
12645SOL    HW138620   3.494   6.826   0.878  0.9489 -0.4060 -1.3073
12645SOL    HW238621   3.356   6.852   0.820  0.3581  0.0594  0.2619
12646SOL     OW38622   1.357   1.376   1.056 -0.2885  0.2717  0.2116
12646SOL    HW138623   1.440   1.329   1.046 -0.6602 -0.2733 -0.3491
12646SOL    HW238624   1.324   1.387   0.967 -1.2608 -0.3282  0.4829
12647SOL     OW38625   6.764   0.863   2.815  0.4054 -0.0214  0.0237
12647SOL    HW138626   6.696   0.861   2.747 -0.6123  3.2732  0.7652
12647SOL    HW238627   6.757   0.778   2.858 -1.5992 -0.7037 -1.4758
12648SOL     OW38628   0.665   4.641   6.243  0.6441  0.7795  0.5102
12648SOL    HW138629   0.742   4.663   6.191  0.5355 -0.6583 -0.3100
12648SOL    HW238630   0.653   4.547   6.230 -1.8022  1.1126 -0.1637
12649SOL     OW38631   6.983   5.874   1.237  0.0309  0.0975  0.3884
12649SOL    HW138632   7.044   5.832   1.297 -0.2044 -0.2627  0.3752
12649SOL    HW238633   6.949   5.949   1.286  0.2127  0.0902  0.5255
12650SOL     OW38634   0.052   7.775   6.285 -0.1792 -0.0027  0.5219
12650SOL    HW138635  -0.034   7.736   6.302  0.4106 -1.3578  0.5643
12650SOL    HW238636   0.100   7.706   6.239  1.2114  0.3592  1.3916
12651SOL     OW38637   5.122   2.198   7.082  0.0843  0.4495 -0.0876
12651SOL    HW138638   5.095   2.106   7.077  2.6110 -0.3293 -0.8005
12651SOL    HW238639   5.156   2.218   6.995 -0.2059  2.0130  0.1312
12652SOL     OW38640   6.959   3.238   0.392  0.1492 -0.3989  0.1206
12652SOL    HW138641   6.933   3.295   0.320  0.4471 -1.3987 -0.8133
12652SOL    HW238642   7.042   3.201   0.364 -0.9086 -2.7384 -0.2217
12653SOL     OW38643   4.139   1.379   6.217 -0.1359  0.1520 -0.2346
12653SOL    HW138644   4.077   1.449   6.197 -1.0426 -0.2934  0.9318
12653SOL    HW238645   4.111   1.345   6.302  2.3984  0.7184  0.9283
12654SOL     OW38646   0.683   1.900   3.236 -0.1433 -0.5495 -0.0901
12654SOL    HW138647   0.723   1.852   3.308  0.6295 -0.8727 -0.7129
12654SOL    HW238648   0.598   1.930   3.270  0.4170 -0.2657  1.1009
12655SOL     OW38649   6.369   3.816   6.059  0.2809  0.4728  0.0020
12655SOL    HW138650   6.350   3.816   6.153 -1.2183 -1.7753 -0.2444
12655SOL    HW238651   6.459   3.783   6.054  0.3660  0.5836  0.6252
12656SOL     OW38652   3.747   7.294   4.053 -0.3757 -0.6085 -0.3415
12656SOL    HW138653   3.795   7.211   4.057  0.6509 -0.0340 -0.3284
12656SOL    HW238654   3.791   7.343   3.984 -0.6843  0.1017 -0.0401
12657SOL     OW38655   2.113   3.525   2.493  0.6938 -0.1167 -0.3397
12657SOL    HW138656   2.145   3.546   2.405  2.3305 -0.2708  0.1817
12657SOL    HW238657   2.077   3.437   2.486 -0.2596  0.3082 -1.0877
12658SOL     OW38658   7.758   5.967   2.163  0.1742 -0.0404 -0.2081
12658SOL    HW138659   7.803   6.000   2.085 -0.5028  1.5958  0.0381
12658SOL    HW238660   7.673   5.938   2.131 -1.3452  3.3959  0.1759
12659SOL     OW38661   0.591   7.102   2.431 -0.0293  0.2225 -0.0875
12659SOL    HW138662   0.685   7.090   2.417  0.2133  2.4321 -0.8966
12659SOL    HW238663   0.550   7.071   2.350 -0.0105 -0.6699  0.2350
12660SOL     OW38664   3.777   1.816   4.153  0.3255 -0.6654 -0.1995
12660SOL    HW138665   3.695   1.865   4.144  0.3514 -0.2973  1.3058
12660SOL    HW238666   3.842   1.871   4.110 -0.1332 -0.7564 -1.0289
12661SOL     OW38667   1.461   0.970   1.191  0.4817 -0.3614 -0.1134
12661SOL    HW138668   1.466   0.905   1.121 -0.6750 -1.0972  0.4609
12661SOL    HW238669   1.520   0.937   1.259  0.8723 -0.1368 -0.3370
12662SOL     OW38670   0.453   0.125   0.290  0.4346  0.1261 -0.0362
12662SOL    HW138671   0.510   0.099   0.217  1.1669 -2.4208  1.3569
12662SOL    HW238672   0.416   0.044   0.322 -1.0885  1.3613  1.4963
12663SOL     OW38673   2.212   3.567   4.870 -0.7281  0.4811 -0.3491
12663SOL    HW138674   2.259   3.499   4.821 -1.3326  1.0333 -1.7395
12663SOL    HW238675   2.165   3.519   4.938 -0.2511 -0.3657 -0.5966
12664SOL     OW38676   3.486   3.603   5.273  0.4910  0.4112 -0.3190
12664SOL    HW138677   3.531   3.602   5.189  0.1764  1.1898 -0.4975
12664SOL    HW238678   3.548   3.562   5.333  0.5120 -0.6083 -1.0222
12665SOL     OW38679   7.584   5.074   1.193  0.2134  0.5422 -0.2818
12665SOL    HW138680   7.510   5.133   1.207  0.8437  0.7356  3.0039
12665SOL    HW238681   7.655   5.113   1.244  1.1807 -2.0743  0.5078
12666SOL     OW38682   6.015   2.064   2.489  0.3464  0.1916 -0.0413
12666SOL    HW138683   6.067   2.017   2.554  0.4549 -1.4211 -1.2500
12666SOL    HW238684   5.933   2.015   2.484 -0.1948  1.0746 -0.2064
12667SOL     OW38685   4.363   5.052   4.993  0.7593 -0.1626  0.4416
12667SOL    HW138686   4.276   5.024   5.019  0.2042 -0.2321 -1.3425
12667SOL    HW238687   4.360   5.148   4.999  0.6266 -0.1755  0.5816
12668SOL     OW38688   5.174   7.115   4.412  0.2890  0.2162 -0.0100
12668SOL    HW138689   5.088   7.103   4.373 -0.1032  1.1735  0.5297
12668SOL    HW238690   5.166   7.080   4.500  0.3408  0.6407  0.1654
12669SOL     OW38691   5.822   0.287   5.698  0.5364 -0.2495  0.1377
12669SOL    HW138692   5.729   0.275   5.682  0.8595 -1.9379 -0.7930
12669SOL    HW238693   5.833   0.381   5.711 -1.2306  0.0170 -0.1063
12670SOL     OW38694   7.000   4.956   7.523 -0.0332 -0.5085 -1.1576
12670SOL    HW138695   7.081   4.970   7.572 -0.7845  0.4634 -0.1620
12670SOL    HW238696   6.969   4.870   7.552 -0.8436  0.3533  0.6709
12671SOL     OW38697   7.586   5.918   0.387  0.5486 -0.0390  0.4100
12671SOL    HW138698   7.534   5.936   0.465 -0.1327  1.3420 -0.3246
12671SOL    HW238699   7.671   5.887   0.421 -0.3763 -1.3690  1.6310
12672SOL     OW38700   6.214   7.772   5.848  0.1275 -0.1285 -0.0806
12672SOL    HW138701   6.122   7.750   5.857 -0.0574  0.0565 -1.4057
12672SOL    HW238702   6.226   7.792   5.755  1.8239 -1.5936 -0.2271
12673SOL     OW38703   6.915   3.251   2.224  0.0728 -0.1576 -0.2140
12673SOL    HW138704   6.890   3.189   2.155  0.9159  0.1088 -0.7651
12673SOL    HW238705   6.943   3.196   2.297  0.4919 -0.4306 -0.5770
12674SOL     OW38706   5.071   6.809   7.589 -0.1307 -0.1730  0.4417
12674SOL    HW138707   5.115   6.813   7.674  1.8843 -1.6198 -0.4601
12674SOL    HW238708   5.114   6.877   7.536 -0.5899 -0.0463  0.2212
12675SOL     OW38709   0.229   0.964   6.849  0.1148  0.3516  0.0610
12675SOL    HW138710   0.248   0.961   6.943  0.3507  0.7340  0.0278
12675SOL    HW238711   0.303   1.013   6.812 -0.6956  1.4745 -0.1309
12676SOL     OW38712   5.861   3.523   0.933 -0.1277 -0.3654  0.1327
12676SOL    HW138713   5.814   3.445   0.904 -0.6266  0.9150 -3.0241
12676SOL    HW238714   5.795   3.575   0.980 -1.2589  0.1833 -1.8928
12677SOL     OW38715   1.520   0.525   5.374  0.5978 -0.4236  0.5125
12677SOL    HW138716   1.499   0.480   5.456  0.8185 -0.0912  0.7560
12677SOL    HW238717   1.454   0.594   5.368  1.3270  0.3370  1.0486
12678SOL     OW38718   0.235   7.629   2.736 -0.1040  0.0362  0.2557
12678SOL    HW138719   0.323   7.642   2.772  0.1089  1.6959 -0.7549
12678SOL    HW238720   0.233   7.684   2.658 -1.7002 -0.7995 -0.3204
12679SOL     OW38721   6.725   3.922   5.269  0.5505 -0.2751  0.4148
12679SOL    HW138722   6.805   3.936   5.319  0.3167 -1.0866  1.0363
12679SOL    HW238723   6.752   3.867   5.195  0.7439  0.2644  0.0774
12680SOL     OW38724   2.473   5.335   1.731 -0.2978 -0.6845 -0.1724
12680SOL    HW138725   2.546   5.286   1.695  0.2074  0.1196 -0.2564
12680SOL    HW238726   2.496   5.350   1.823 -1.1420 -1.8862  0.2715
12681SOL     OW38727   4.141   6.838   0.560  0.4003 -0.2339 -0.1122
12681SOL    HW138728   4.149   6.878   0.473  2.4333  0.4826  0.3451
12681SOL    HW238729   4.058   6.869   0.594 -0.2766 -0.2638 -1.6630
12682SOL     OW38730   1.586   5.929   3.690 -0.1738  0.1692  0.4609
12682SOL    HW138731   1.536   5.861   3.736  0.6919  0.6332  2.2000
12682SOL    HW238732   1.530   6.007   3.695 -0.9720 -0.2615 -1.1416
12683SOL     OW38733   3.161   2.635   5.165  0.0753 -0.2308  0.8146
12683SOL    HW138734   3.161   2.572   5.093  2.1214 -0.7524  1.2242
12683SOL    HW238735   3.251   2.636   5.196 -0.4434  1.1237  2.3952
12684SOL     OW38736   4.027   4.736   7.633  0.1511  0.0382 -0.3127
12684SOL    HW138737   3.967   4.717   7.561  0.5404  1.3860 -1.0236
12684SOL    HW238738   4.105   4.772   7.590  0.3899  0.8763  0.7815
12685SOL     OW38739   0.316   0.270   2.400 -0.3857 -0.3154  0.3591
12685SOL    HW138740   0.357   0.321   2.330  3.8222 -0.9294  2.0325
12685SOL    HW238741   0.304   0.331   2.472 -1.5521 -0.3733  0.2285
12686SOL     OW38742   5.317   6.112   4.680 -0.3481  0.0321 -0.1223
12686SOL    HW138743   5.249   6.154   4.732 -2.3636 -1.2203 -1.5962
12686SOL    HW238744   5.270   6.072   4.607  1.9377 -1.3384 -0.9493
12687SOL     OW38745   7.135   5.331   0.681  0.1632  0.3962 -0.2173
12687SOL    HW138746   7.211   5.386   0.698  0.8604 -1.2449  2.6355
12687SOL    HW238747   7.155   5.286   0.599  1.6280  1.0316 -0.2287
12688SOL     OW38748   1.153   2.363   3.770 -0.1764  0.0879  0.3015
12688SOL    HW138749   1.065   2.354   3.734  0.3754 -2.2078 -0.6206
12688SOL    HW238750   1.150   2.311   3.851  0.0988  0.7005  0.7051
12689SOL     OW38751   5.481   4.586   3.204  0.1847 -0.2165  0.2962
12689SOL    HW138752   5.391   4.609   3.230 -0.7648 -0.5720 -2.3490
12689SOL    HW238753   5.474   4.498   3.167  1.9153 -0.7902  1.2312
12690SOL     OW38754   7.131   4.613   3.378 -0.4242 -0.4653 -0.7353
12690SOL    HW138755   7.061   4.661   3.334 -0.5916 -0.1009 -0.0789
12690SOL    HW238756   7.122   4.636   3.471 -0.9940 -2.3531 -0.2751
12691SOL     OW38757   3.707   2.972   3.405  0.0202 -0.0419  0.1057
12691SOL    HW138758   3.750   2.990   3.489  2.1625  0.1363 -0.9562
12691SOL    HW238759   3.700   3.058   3.363 -2.9580  0.2010  0.8603
12692SOL     OW38760   6.031   3.767   2.910  0.1766  0.6535  0.0885
12692SOL    HW138761   6.124   3.750   2.920  0.7103  3.1277 -0.1116
12692SOL    HW238762   5.988   3.694   2.955  2.1331 -1.3804 -1.1337
12693SOL     OW38763   2.913   3.183   5.511  0.8142  0.0257  0.0457
12693SOL    HW138764   2.968   3.236   5.453  1.0778 -0.9328 -0.5992
12693SOL    HW238765   2.838   3.157   5.457  0.4082  0.1877  0.5181
12694SOL     OW38766   3.113   3.760   7.383 -0.2675 -0.3512 -0.0883
12694SOL    HW138767   3.047   3.815   7.341 -0.9388  1.0462  2.6142
12694SOL    HW238768   3.143   3.810   7.459  1.8639 -2.1544  0.3927
12695SOL     OW38769   4.779   4.436   6.929 -0.3798  0.2731 -0.1098
12695SOL    HW138770   4.776   4.514   6.874 -1.0089 -0.5691 -1.3111
12695SOL    HW238771   4.873   4.423   6.947 -0.2073  0.8517 -0.5672
12696SOL     OW38772   5.820   6.137   2.910 -0.6637 -0.3144  0.8868
12696SOL    HW138773   5.773   6.091   2.840  0.4060 -0.6849  0.3817
12696SOL    HW238774   5.752   6.176   2.964 -1.5538 -1.1741  0.4098
12697SOL     OW38775   7.399   1.481   0.712  0.2276  0.1595  0.2509
12697SOL    HW138776   7.398   1.464   0.618  0.5270 -0.9919  0.4426
12697SOL    HW238777   7.318   1.529   0.729  0.2959  0.5985 -0.6292
12698SOL     OW38778   6.675   0.768   0.994 -0.0635  0.1448 -0.3592
12698SOL    HW138779   6.671   0.724   0.910 -0.1117 -0.5142 -0.0144
12698SOL    HW238780   6.768   0.787   1.007  0.2221 -1.5983  0.3722
12699SOL     OW38781   7.423   4.924   6.788 -0.4485 -0.3560 -0.1367
12699SOL    HW138782   7.341   4.970   6.807 -0.0513  0.5567 -0.5919
12699SOL    HW238783   7.488   4.967   6.844 -0.0651 -0.3337 -0.5969
12700SOL     OW38784   4.464   1.821   6.437  0.3904  0.2286 -0.3068
12700SOL    HW138785   4.478   1.833   6.343  0.0497  2.7529 -0.0911
12700SOL    HW238786   4.540   1.861   6.478 -0.3658  0.8472  0.5303
12701SOL     OW38787   7.089   0.029   1.041  0.2258  0.0820  0.2910
12701SOL    HW138788   6.998  -0.000   1.053  0.4023 -0.3199  0.6595
12701SOL    HW238789   7.093   0.054   0.948  0.0862 -1.1513 -0.0630
12702SOL     OW38790   2.814   3.108   4.735 -0.6699 -0.5475 -0.0094
12702SOL    HW138791   2.758   3.030   4.733  0.3513 -1.3884  1.3016
12702SOL    HW238792   2.786   3.155   4.813 -0.2841 -0.4144  0.0520
12703SOL     OW38793   7.127   7.771   1.821  0.5715 -0.7563 -0.1483
12703SOL    HW138794   7.221   7.788   1.813  0.2615  0.9906 -0.5636
12703SOL    HW238795   7.121   7.687   1.866  2.3296  0.0098  1.6535
12704SOL     OW38796   7.311   1.218   6.189 -0.2187 -0.1767  0.3155
12704SOL    HW138797   7.311   1.122   6.186  1.6762 -0.2645  1.1641
12704SOL    HW238798   7.220   1.243   6.175 -0.4826 -2.0047 -1.8018
12705SOL     OW38799   3.618   4.656   0.993 -0.4445  0.3102  0.4951
12705SOL    HW138800   3.574   4.734   0.958  0.9783  0.3209 -1.4172
12705SOL    HW238801   3.653   4.611   0.916  0.3002 -1.2970  1.7044
12706SOL     OW38802   7.094   1.033   6.958 -0.0511  0.8510  0.1681
12706SOL    HW138803   7.034   1.069   6.893 -1.6203  0.2451  1.2228
12706SOL    HW238804   7.145   0.968   6.911 -0.8143  0.7824 -0.5735
12707SOL     OW38805   3.831   2.389   2.705 -0.6423 -0.3964  0.4954
12707SOL    HW138806   3.872   2.308   2.736  2.3065 -0.2267 -2.3756
12707SOL    HW238807   3.841   2.451   2.777  0.0973 -1.6639  1.5248
12708SOL     OW38808   2.705   6.921   5.273 -0.7593 -0.6650  0.8236
12708SOL    HW138809   2.766   6.989   5.243 -2.4678  1.3323  1.6548
12708SOL    HW238810   2.760   6.843   5.283  1.2783  0.5355 -0.2273
12709SOL     OW38811   0.351   1.785   2.614 -0.2023  0.1677 -0.3071
12709SOL    HW138812   0.344   1.876   2.643  0.8397  0.3663 -0.6253
12709SOL    HW238813   0.421   1.749   2.668 -0.3870 -0.3574 -0.4148
12710SOL     OW38814   3.570   0.118   4.141  0.1989 -0.5860  0.0705
12710SOL    HW138815   3.616   0.036   4.121  0.7566 -0.4248  0.6391
12710SOL    HW238816   3.560   0.161   4.056  1.1007 -0.6308 -0.0679
12711SOL     OW38817   5.771   4.600   1.957 -0.0024  0.4062 -0.8019
12711SOL    HW138818   5.802   4.510   1.944 -1.7362 -0.7600  2.1640
12711SOL    HW238819   5.704   4.611   1.889 -0.7516 -1.0974 -0.3518
12712SOL     OW38820   6.274   4.985   6.195 -0.6447  0.3454 -0.1668
12712SOL    HW138821   6.341   4.996   6.127 -0.5305  2.7706  0.2616
12712SOL    HW238822   6.316   5.016   6.275 -1.7188  0.2579  0.4471
12713SOL     OW38823   1.520   1.324   1.681  0.0240  0.4269  0.0539
12713SOL    HW138824   1.470   1.373   1.746 -0.1727 -0.7982  0.8793
12713SOL    HW238825   1.455   1.266   1.640  0.0303  1.5440 -1.6547
12714SOL     OW38826   7.010   0.917   5.648  0.2620 -0.2415 -0.8056
12714SOL    HW138827   6.944   0.986   5.654 -0.2021 -0.6679 -0.9125
12714SOL    HW238828   6.980   0.850   5.710  0.1641 -0.7892 -1.4333
12715SOL     OW38829   3.140   6.052   5.630  0.3319 -0.2458 -0.1862
12715SOL    HW138830   3.222   6.023   5.671  0.5902 -1.1632 -1.3189
12715SOL    HW238831   3.106   6.119   5.690  0.2339 -2.1468  2.0129
12716SOL     OW38832   6.477   4.986   5.967 -0.0376  0.3718  0.3670
12716SOL    HW138833   6.505   5.062   5.916  0.4511  1.3387  2.0068
12716SOL    HW238834   6.543   4.976   6.036 -0.7454 -0.7868  0.9219
12717SOL     OW38835   3.439   1.729   5.039 -0.1736 -0.2613 -0.4499
12717SOL    HW138836   3.381   1.769   5.103 -0.2696 -0.5693 -0.3430
12717SOL    HW238837   3.524   1.771   5.054 -0.6769  1.1692 -1.5115
12718SOL     OW38838   2.263   1.063   1.333  0.1449  0.1083  0.4551
12718SOL    HW138839   2.188   1.117   1.308 -0.0692 -0.3392  0.1310
12718SOL    HW238840   2.297   1.030   1.251 -0.2863 -0.9996  0.7054
12719SOL     OW38841   2.376   3.181   0.708 -0.0412 -0.0612  0.1021
12719SOL    HW138842   2.453   3.233   0.683  0.8749 -1.2212  0.3980
12719SOL    HW238843   2.365   3.119   0.636 -1.3033  0.6859 -0.3878
12720SOL     OW38844   0.949   0.706   4.237 -0.5120  0.4759  0.0690
12720SOL    HW138845   1.032   0.727   4.280 -0.2616 -0.8389  0.2898
12720SOL    HW238846   0.918   0.627   4.282 -0.0295 -1.2244 -2.3631
12721SOL     OW38847   3.602   0.672   4.717 -0.0032 -0.3581 -0.3124
12721SOL    HW138848   3.576   0.602   4.657 -1.0372 -0.8717  0.7066
12721SOL    HW238849   3.612   0.629   4.801  0.0608  0.6026  0.1789
12722SOL     OW38850   2.194   4.148   7.470  0.2071  0.2814  0.5285
12722SOL    HW138851   2.123   4.161   7.533 -0.8738 -0.0282 -0.6041
12722SOL    HW238852   2.274   4.157   7.523 -0.6159  1.9324  1.5970
12723SOL     OW38853   4.872   4.595   1.755 -0.0306  0.5934 -0.3878
12723SOL    HW138854   4.943   4.533   1.737 -2.1984 -1.7984 -1.4801
12723SOL    HW238855   4.819   4.592   1.675 -1.8199  1.5812  0.7174
12724SOL     OW38856   0.180   0.462   4.286  0.5631  0.0629 -0.7119
12724SOL    HW138857   0.120   0.393   4.312  0.9464  0.4766  1.4824
12724SOL    HW238858   0.156   0.483   4.195  0.2602 -2.6830 -1.3351
12725SOL     OW38859   6.317   7.295   6.035  0.7158  0.7342  0.0971
12725SOL    HW138860   6.394   7.297   5.979  0.5620 -0.3735 -0.1719
12725SOL    HW238861   6.251   7.345   5.986  0.2260 -1.1511 -1.2957
12726SOL     OW38862   6.224   6.555   5.636 -0.0418 -0.0272  0.2083
12726SOL    HW138863   6.284   6.609   5.585  1.2468  0.7901  2.4394
12726SOL    HW238864   6.268   6.470   5.642  1.0801  0.6230  1.9904
12727SOL     OW38865   0.226   1.762   3.279 -0.1536 -0.3073  0.0618
12727SOL    HW138866   0.225   1.752   3.184  0.0572  0.8078 -0.0825
12727SOL    HW238867   0.275   1.686   3.311 -0.4533 -0.8301 -0.6951
12728SOL     OW38868   4.189   0.960   3.120 -0.3432  0.6870 -0.2832
12728SOL    HW138869   4.161   0.903   3.192 -0.1360  0.2688 -0.5316
12728SOL    HW238870   4.129   1.035   3.124 -0.2012  0.7664  0.4539
12729SOL     OW38871   5.511   4.470   4.322  0.0825  0.2669 -0.4706
12729SOL    HW138872   5.433   4.448   4.272  1.1167 -1.1160 -1.5186
12729SOL    HW238873   5.478   4.483   4.412 -1.3190 -0.4272 -0.8502
12730SOL     OW38874   1.493   1.899   2.871 -0.0432  0.6781  0.2887
12730SOL    HW138875   1.438   1.889   2.949 -1.1601  1.6009 -0.3511
12730SOL    HW238876   1.566   1.837   2.885 -1.0993 -0.3976  1.2702
12731SOL     OW38877   1.716   5.988   5.832 -0.3424  0.7597  0.1883
12731SOL    HW138878   1.759   6.070   5.859  0.4252  0.0842  1.1043
12731SOL    HW238879   1.630   5.991   5.875 -0.4856  1.2702 -0.1263
12732SOL     OW38880   1.339   2.255   6.567  0.1393  0.4197  0.0763
12732SOL    HW138881   1.291   2.338   6.569  0.7541  0.8112 -0.8106
12732SOL    HW238882   1.399   2.261   6.641 -0.9536  0.0445  1.0241
12733SOL     OW38883   0.596   1.694   3.750  0.4061  0.5912 -0.0509
12733SOL    HW138884   0.541   1.758   3.704  0.1540  0.5179  0.1509
12733SOL    HW238885   0.637   1.744   3.820  1.6620  0.9706 -1.0228
12734SOL     OW38886   0.359   0.023   2.244  0.0295  0.0448  0.1667
12734SOL    HW138887   0.386   0.039   2.153  0.7625 -1.0817  0.1685
12734SOL    HW238888   0.387   0.102   2.291  2.1112 -0.4730 -0.1085
12735SOL     OW38889   6.617   2.328   6.901  0.2238  0.1393  0.3630
12735SOL    HW138890   6.604   2.332   6.996  1.4990  1.4017  0.5299
12735SOL    HW238891   6.591   2.239   6.876  0.0180 -0.2602  1.9140
12736SOL     OW38892   0.562   1.924   7.602 -0.5824 -0.3066  0.4349
12736SOL    HW138893   0.567   1.840   7.557 -1.8213 -1.0211  1.5610
12736SOL    HW238894   0.628   1.919   7.671 -0.5516 -0.2937  0.4062
12737SOL     OW38895   3.784   4.146   4.675  0.2502  0.3303 -0.0372
12737SOL    HW138896   3.845   4.208   4.635 -0.2271  0.9406  0.1803
12737SOL    HW238897   3.745   4.100   4.601  1.3091 -0.4076 -0.1707
12738SOL     OW38898   4.498   0.417   4.265 -0.4496 -0.0530 -0.1784
12738SOL    HW138899   4.426   0.354   4.257 -1.3365  1.0249 -0.9241
12738SOL    HW238900   4.468   0.495   4.218  1.7955 -0.0628 -1.7675
12739SOL     OW38901   0.432   3.804   1.893  0.1847  0.4332  0.0531
12739SOL    HW138902   0.421   3.893   1.859  0.1966 -0.1230 -1.5079
12739SOL    HW238903   0.466   3.754   1.818  1.5682 -0.5771  1.2948
12740SOL     OW38904   3.204   6.744   5.729 -0.0830 -0.3401  0.3830
12740SOL    HW138905   3.245   6.657   5.732 -0.5467 -0.6327 -1.1496
12740SOL    HW238906   3.187   6.760   5.637 -2.2763  0.3325  0.8561
12741SOL     OW38907   5.764   6.349   5.483 -0.0755  0.6713 -0.5209
12741SOL    HW138908   5.828   6.294   5.529 -1.2693 -0.5329 -0.2316
12741SOL    HW238909   5.817   6.404   5.425  1.3801  1.2116  1.1999
12742SOL     OW38910   5.553   5.976   0.154 -0.6670  0.5139 -0.0648
12742SOL    HW138911   5.540   5.942   0.243  0.5051  0.4154  0.0899
12742SOL    HW238912   5.515   5.910   0.097 -0.5899  0.1243  0.3306
12743SOL     OW38913   6.794   0.390   7.024 -0.8069 -0.0946 -0.5510
12743SOL    HW138914   6.720   0.356   7.074 -0.4506 -2.3419 -1.4258
12743SOL    HW238915   6.845   0.313   7.001 -0.2195  0.9679 -3.1986
12744SOL     OW38916   6.562   1.179   4.957 -0.4563  0.2853 -0.1116
12744SOL    HW138917   6.631   1.159   4.894  1.9059 -0.3337  2.4909
12744SOL    HW238918   6.588   1.262   4.996 -0.9207 -0.1796  1.2418
12745SOL     OW38919   3.408   5.633   3.456 -0.0979  0.1756  0.0552
12745SOL    HW138920   3.373   5.633   3.545  0.1127 -2.5219  0.2230
12745SOL    HW238921   3.396   5.723   3.426 -2.7014  0.5271  1.8044
12746SOL     OW38922   0.354   2.948   3.689 -0.1563  0.3826  0.3416
12746SOL    HW138923   0.297   2.968   3.616 -0.7277 -0.9269  0.4091
12746SOL    HW238924   0.295   2.927   3.761  0.3774 -1.3179  0.3187
12747SOL     OW38925   6.882   7.373   2.478 -0.4724 -0.2376 -0.0292
12747SOL    HW138926   6.947   7.438   2.450 -1.4808  0.0767 -1.7523
12747SOL    HW238927   6.935   7.297   2.503  0.5866 -0.4752 -2.6619
12748SOL     OW38928   7.452   1.056   1.248 -0.1805  0.4642  0.3148
12748SOL    HW138929   7.536   1.021   1.276 -0.1877  0.1342 -0.0751
12748SOL    HW238930   7.420   0.994   1.183  0.3839  1.8009 -1.3245
12749SOL     OW38931   1.128   4.667   0.489 -0.3358  0.7079 -0.0478
12749SOL    HW138932   1.159   4.750   0.453 -3.0156  2.0869  0.5947
12749SOL    HW238933   1.154   4.602   0.423  0.3310  2.2751 -1.4101
12750SOL     OW38934   6.152   7.581   2.901 -0.3373  1.0196 -0.4930
12750SOL    HW138935   6.168   7.670   2.871 -1.3746  1.2353 -0.4535
12750SOL    HW238936   6.097   7.591   2.978 -1.1413  0.3346 -0.9521
12751SOL     OW38937   1.097   6.396   3.225 -0.0194 -0.1800 -0.3330
12751SOL    HW138938   1.047   6.414   3.305 -1.1403 -1.8196 -0.6242
12751SOL    HW238939   1.125   6.482   3.195  0.0804  0.5179  1.5877
12752SOL     OW38940   5.116   7.774   4.615 -0.2210 -0.4664 -0.4061
12752SOL    HW138941   5.037   7.720   4.613 -0.5559 -0.1715  2.0210
12752SOL    HW238942   5.187   7.711   4.627 -0.1552 -0.6393 -1.5347
12753SOL     OW38943   1.279   1.581   5.182  0.5522 -0.4243  0.1631
12753SOL    HW138944   1.186   1.568   5.204  0.0380  2.1743 -0.1455
12753SOL    HW238945   1.277   1.646   5.112  2.6607  0.5771  0.9682
12754SOL     OW38946   1.369   7.146   0.824  0.4045 -0.4608  0.3661
12754SOL    HW138947   1.453   7.192   0.829  0.8979 -0.9009 -2.1400
12754SOL    HW238948   1.303   7.215   0.828  1.0277  0.2159 -0.5999
12755SOL     OW38949   5.657   5.311   6.110 -0.0044 -0.5403 -0.2123
12755SOL    HW138950   5.564   5.298   6.089  0.0713 -0.4464 -0.6124
12755SOL    HW238951   5.685   5.227   6.146 -0.2801 -0.5244  0.0509
12756SOL     OW38952   1.538   1.967   3.958  0.2665 -0.1937 -0.0968
12756SOL    HW138953   1.505   2.040   3.905 -0.9516 -0.2456  0.5521
12756SOL    HW238954   1.550   2.003   4.045  0.9281 -0.4495 -0.0784
12757SOL     OW38955   1.682   3.207   6.655  0.2840  0.7877 -0.5666
12757SOL    HW138956   1.643   3.167   6.734 -0.1379  0.5646 -0.8827
12757SOL    HW238957   1.770   3.171   6.651 -0.1832 -0.3606 -1.0068
12758SOL     OW38958   4.815   3.242   5.629 -0.2214 -0.5216  0.8833
12758SOL    HW138959   4.879   3.172   5.640 -0.5747 -1.0599 -0.3280
12758SOL    HW238960   4.851   3.297   5.559 -0.0983  0.3527  1.6083
12759SOL     OW38961   3.891   1.666   0.261  0.2125  0.0601 -0.0893
12759SOL    HW138962   3.977   1.675   0.302  0.1731  1.2946 -0.2429
12759SOL    HW238963   3.864   1.576   0.281  0.7516  0.2245  1.4924
12760SOL     OW38964   4.884   4.421   2.203  0.5359 -0.4360  0.2581
12760SOL    HW138965   4.928   4.336   2.200  1.9261  0.2407  0.5020
12760SOL    HW238966   4.947   4.479   2.248 -0.5641  0.6079  0.5113
12761SOL     OW38967   0.805   0.967   3.374 -0.5778 -0.5524  0.0665
12761SOL    HW138968   0.799   1.061   3.359 -0.2504 -0.3576  1.0914
12761SOL    HW238969   0.897   0.951   3.393 -0.5829 -1.1261 -0.3562
12762SOL     OW38970   5.535   3.718   6.555  0.6104 -0.7435 -0.0307
12762SOL    HW138971   5.573   3.716   6.467 -0.0831 -3.5978 -0.3525
12762SOL    HW238972   5.611   3.713   6.614  1.0098 -0.1274 -0.4820
12763SOL     OW38973   3.816   1.473   1.404 -0.1914  0.0666 -0.1121
12763SOL    HW138974   3.898   1.447   1.446 -0.4254 -0.4940  0.0033
12763SOL    HW238975   3.788   1.395   1.356 -1.0941 -0.0174  0.5327
12764SOL     OW38976   7.460   4.136   4.410 -0.3367 -0.5232  0.4797
12764SOL    HW138977   7.365   4.151   4.403 -0.3505 -0.6673  0.3592
12764SOL    HW238978   7.498   4.224   4.407 -0.4547 -0.4766  0.3189
12765SOL     OW38979   2.204   6.336   0.998  0.2901 -0.0398  0.2976
12765SOL    HW138980   2.219   6.428   1.020  1.4670  0.1902 -1.2641
12765SOL    HW238981   2.278   6.290   1.038 -0.3526 -0.3248  1.1622
12766SOL     OW38982   3.469   1.250   6.564  0.1489  0.8033  0.3618
12766SOL    HW138983   3.493   1.195   6.489  1.2565  2.3094 -0.4393
12766SOL    HW238984   3.392   1.207   6.601  0.3236 -0.6755 -0.8741
12767SOL     OW38985   3.878   2.836   5.567  0.5995 -0.2580  0.6855
12767SOL    HW138986   3.929   2.756   5.581  0.0883 -0.6991  0.1106
12767SOL    HW238987   3.817   2.838   5.641  1.2263  0.1119  1.2110
12768SOL     OW38988   6.788   6.422   2.267  0.1408 -0.1360 -0.2803
12768SOL    HW138989   6.791   6.377   2.183  2.2876  1.2238 -1.0291
12768SOL    HW238990   6.703   6.467   2.268 -0.0686 -0.4741 -1.5622
12769SOL     OW38991   3.602   5.104   1.130 -0.0048 -0.1071 -0.1211
12769SOL    HW138992   3.510   5.089   1.155 -0.4664  1.7525 -0.5202
12769SOL    HW238993   3.630   5.177   1.186  1.3209 -0.8141  0.1608
12770SOL     OW38994   2.611   2.477   4.113  0.8180  0.4340  0.2976
12770SOL    HW138995   2.562   2.476   4.031  0.1578  1.4788  0.6657
12770SOL    HW238996   2.687   2.531   4.094 -0.1090  1.9576  0.7815
12771SOL     OW38997   2.139   1.941   7.092  0.2009  1.0901 -0.0558
12771SOL    HW138998   2.109   1.979   7.175  1.0534 -0.1257  0.8508
12771SOL    HW238999   2.059   1.909   7.051 -0.1670  1.1664  0.5842
12772SOL     OW39000   1.114   2.568   4.164  0.1019  1.0693 -0.7776
12772SOL    HW139001   1.099   2.477   4.138  0.5141  0.6852  0.2683
12772SOL    HW239002   1.130   2.614   4.082  1.2514 -0.0732 -1.2263
12773SOL     OW39003   5.953   6.180   2.639  0.1057 -0.2251 -0.3161
12773SOL    HW139004   5.870   6.209   2.601  0.2854 -0.3258 -0.7941
12773SOL    HW239005   5.930   6.149   2.727  0.0991  2.6567  0.8271
12774SOL     OW39006   1.567   5.584   2.921 -0.4286  0.3866 -0.4272
12774SOL    HW139007   1.582   5.521   2.851  1.8514 -0.4905  0.7641
12774SOL    HW239008   1.633   5.652   2.907  1.1133 -0.5636  1.6209
12775SOL     OW39009   2.032   4.042   6.528 -0.0475 -1.0987 -0.2971
12775SOL    HW139010   2.102   4.105   6.543 -0.3867 -0.5405 -1.0129
12775SOL    HW239011   1.963   4.092   6.485  0.1863 -2.2280 -2.0698
12776SOL     OW39012   4.207   0.799   6.735 -0.0324  0.3417 -0.0050
12776SOL    HW139013   4.254   0.804   6.818  2.1763  1.2111 -1.2069
12776SOL    HW239014   4.194   0.705   6.721 -1.4565  0.2133  1.7845
12777SOL     OW39015   5.511   2.488   2.165  0.3222  0.2125  0.0072
12777SOL    HW139016   5.577   2.419   2.163 -0.3114 -0.4065 -1.7659
12777SOL    HW239017   5.515   2.522   2.255  2.3738 -0.4127  0.2113
12778SOL     OW39018   7.321   3.492   2.883 -0.0998  0.4666 -0.5283
12778SOL    HW139019   7.323   3.587   2.879 -1.9343  0.5744  0.0866
12778SOL    HW239020   7.363   3.470   2.966  0.1137  0.7494 -0.5619
12779SOL     OW39021   1.594   4.014   1.967  0.0835  0.6045  0.4147
12779SOL    HW139022   1.583   4.032   2.060 -0.0823 -1.6895  0.8915
12779SOL    HW239023   1.542   3.936   1.951  2.1024 -0.5346 -1.0246
12780SOL     OW39024   4.208   2.043   6.082 -0.6653  0.4895 -0.0265
12780SOL    HW139025   4.216   2.077   5.993 -1.1214 -0.1872 -0.3400
12780SOL    HW239026   4.283   2.079   6.129 -0.4877  0.9523 -0.6516
12781SOL     OW39027   2.374   7.481   2.374 -0.6751 -0.5085 -0.0491
12781SOL    HW139028   2.414   7.398   2.348 -1.5801 -0.2239 -2.5552
12781SOL    HW239029   2.438   7.520   2.434 -0.1652 -2.8935  1.0856
12782SOL     OW39030   3.395   7.604   7.154  0.4934 -0.0288  0.5143
12782SOL    HW139031   3.365   7.678   7.102  2.2161  1.3684  1.4197
12782SOL    HW239032   3.325   7.592   7.219 -1.2201 -1.1935 -1.3978
12783SOL     OW39033   2.494   0.076   1.332 -0.5902  0.0673 -0.0651
12783SOL    HW139034   2.511   0.156   1.381  0.2539 -0.8385  1.1807
12783SOL    HW239035   2.519   0.096   1.242  1.1518  0.7250  0.5328
12784SOL     OW39036   6.257   3.099   6.235 -0.0210 -0.2410 -0.0536
12784SOL    HW139037   6.181   3.155   6.224  0.0925  0.1960  1.2497
12784SOL    HW239038   6.233   3.016   6.193 -1.3645 -0.2269  0.6413
12785SOL     OW39039   3.511   5.837   4.939 -0.1181  0.2243  0.0621
12785SOL    HW139040   3.479   5.927   4.931 -1.0331  0.0008  0.8973
12785SOL    HW239041   3.540   5.830   5.030 -0.6061 -0.4878  0.1702
12786SOL     OW39042   0.604   6.493   4.282  0.8626 -0.0031 -0.7277
12786SOL    HW139043   0.572   6.442   4.207  0.5708 -0.9797  0.0490
12786SOL    HW239044   0.685   6.450   4.308 -0.4403 -1.4284  1.2398
12787SOL     OW39045   2.779   2.499   0.767 -0.0527 -0.2194 -0.2120
12787SOL    HW139046   2.694   2.533   0.798  0.8846  2.8227 -0.5841
12787SOL    HW239047   2.817   2.456   0.843 -1.0184  0.3645  0.6376
12788SOL     OW39048   5.428   4.674   1.990  0.1922 -0.5037  0.0836
12788SOL    HW139049   5.475   4.756   2.003  0.1289 -0.5555  0.6828
12788SOL    HW239050   5.412   4.669   1.896 -2.5907  1.7328  0.2939
12789SOL     OW39051   3.295   5.315   3.967 -0.1562  0.7484  0.3203
12789SOL    HW139052   3.378   5.314   3.920 -0.7663  1.5341 -0.7988
12789SOL    HW239053   3.258   5.402   3.951 -3.2395 -0.9107 -2.9233
12790SOL     OW39054   0.683   3.610   6.321 -0.2663  0.0041  0.6285
12790SOL    HW139055   0.629   3.688   6.308  0.4762  0.7691  1.8722
12790SOL    HW239056   0.714   3.618   6.411 -1.3396 -2.4903  1.2827
12791SOL     OW39057   0.811   7.708   4.019  0.0262 -0.5231  0.0313
12791SOL    HW139058   0.799   7.779   3.955 -0.3746 -0.0852  0.5806
12791SOL    HW239059   0.891   7.664   3.991 -0.0363 -0.2137 -0.6585
12792SOL     OW39060   5.875   7.459   5.635 -0.4630  0.1030 -0.0164
12792SOL    HW139061   5.932   7.483   5.562 -0.3443 -0.9939 -0.3037
12792SOL    HW239062   5.866   7.364   5.628 -0.7894  0.0319  1.1572
12793SOL     OW39063   6.483   5.388   2.192 -0.2683 -0.1779 -0.4391
12793SOL    HW139064   6.512   5.478   2.209 -0.0586 -0.6862  2.3295
12793SOL    HW239065   6.560   5.334   2.209 -1.3734 -1.1435  2.0510
12794SOL     OW39066   1.250   2.122   2.444  0.6791 -0.2909  0.3310
12794SOL    HW139067   1.183   2.168   2.393 -0.4868 -1.2291  0.9693
12794SOL    HW239068   1.230   2.029   2.431 -0.0678 -0.5821  2.9694
12795SOL     OW39069   3.940   2.958   2.796  0.2397  0.4935 -0.1096
12795SOL    HW139070   3.970   2.972   2.886  1.3852  1.0569 -0.5645
12795SOL    HW239071   4.013   2.913   2.754 -1.3726 -2.3971 -0.0421
12796SOL     OW39072   4.861   2.172   3.339 -0.0687  0.3141  0.1763
12796SOL    HW139073   4.846   2.117   3.262 -0.3789  0.7800 -0.0967
12796SOL    HW239074   4.774   2.202   3.365  0.2478  2.7139 -1.1883
12797SOL     OW39075   3.594   7.732   2.020 -0.5699 -0.3190  0.4764
12797SOL    HW139076   3.651   7.713   2.095 -2.7278 -1.9006  1.8300
12797SOL    HW239077   3.553   7.816   2.042 -0.4665 -0.2996  0.5965
12798SOL     OW39078   0.543   2.586   2.102 -0.2775  0.6862  0.1065
12798SOL    HW139079   0.603   2.511   2.100  0.5002  1.3119 -1.1158
12798SOL    HW239080   0.571   2.637   2.178  1.2763  1.3602 -0.8727
12799SOL     OW39081   7.236   4.173   5.962  0.2439 -0.8442  0.1585
12799SOL    HW139082   7.207   4.174   6.053  0.2812 -2.9016  0.2505
12799SOL    HW239083   7.211   4.086   5.931  1.5293 -0.6989 -1.3632
12800SOL     OW39084   2.131   4.891   6.021 -0.4205 -0.2455 -0.3961
12800SOL    HW139085   2.160   4.965   6.075 -0.1573  0.6306 -1.6922
12800SOL    HW239086   2.149   4.814   6.075  1.3254  0.4827  0.1324
12801SOL     OW39087   1.656   2.474   1.879 -0.2905 -0.8539 -0.4446
12801SOL    HW139088   1.646   2.542   1.812 -0.2330 -1.8305 -1.4643
12801SOL    HW239089   1.742   2.491   1.918 -0.3547 -0.2377 -0.5583
12802SOL     OW39090   4.164   6.238   7.143  0.6596 -0.0181  0.3340
12802SOL    HW139091   4.228   6.199   7.203 -0.7064 -0.5604  1.5049
12802SOL    HW239092   4.121   6.164   7.102  1.6002  0.3459 -1.4350
12803SOL     OW39093   4.723   2.139   7.128  0.4365 -0.3625  0.0017
12803SOL    HW139094   4.747   2.059   7.081  3.1054 -0.1165  0.7637
12803SOL    HW239095   4.801   2.194   7.123 -0.2301  0.9121  2.1529
12804SOL     OW39096   2.329   6.952   2.959  0.0325  0.1494 -0.6250
12804SOL    HW139097   2.372   6.875   2.922 -0.7474  0.3578 -2.0561
12804SOL    HW239098   2.401   7.005   2.994  0.6546 -0.8136 -0.3895
12805SOL     OW39099   2.472   5.840   0.673 -0.4386  0.7560  0.2928
12805SOL    HW139100   2.450   5.924   0.713 -0.4549  1.2801 -0.7716
12805SOL    HW239101   2.518   5.791   0.741 -0.6877  1.5142  1.0135
12806SOL     OW39102   5.459   5.833   3.030 -0.0646  0.3953  0.1958
12806SOL    HW139103   5.546   5.816   2.995 -0.2502  0.4914 -0.3256
12806SOL    HW239104   5.423   5.746   3.048  0.0188  0.3413  0.1006
12807SOL     OW39105   4.582   3.903   3.420 -0.1722  0.4784  0.2166
12807SOL    HW139106   4.497   3.859   3.417  0.7349 -1.3245 -0.5952
12807SOL    HW239107   4.601   3.912   3.513 -1.2941  1.0265  0.4101
12808SOL     OW39108   7.506   3.958   2.404  0.5435 -0.3416  0.3933
12808SOL    HW139109   7.523   3.908   2.325  0.2974 -1.7029  1.1553
12808SOL    HW239110   7.591   3.967   2.446  1.2336  2.9182 -1.3459
12809SOL     OW39111   6.087   4.726   3.742  1.0496  0.2967  0.2400
12809SOL    HW139112   6.062   4.809   3.702 -1.6951  0.8153  2.6726
12809SOL    HW239113   6.175   4.742   3.777  1.0211  1.7952 -0.2971
12810SOL     OW39114   2.356   0.806   4.553 -0.5731  0.2732  0.4920
12810SOL    HW139115   2.444   0.782   4.579 -0.6381  0.8628  1.2846
12810SOL    HW239116   2.361   0.900   4.535 -1.2138  0.4743  1.3222
12811SOL     OW39117   6.413   0.881   7.454  0.0137  0.1781  0.4975
12811SOL    HW139118   6.474   0.931   7.508 -0.8134  1.6363  0.1473
12811SOL    HW239119   6.468   0.835   7.391  0.7930  0.8074  0.7077
12812SOL     OW39120   3.203   7.497   1.062 -0.0920 -0.2368 -0.6138
12812SOL    HW139121   3.162   7.574   1.102  0.6076  0.3295 -0.9472
12812SOL    HW239122   3.134   7.432   1.057 -0.7329  0.4219 -0.4405
12813SOL     OW39123   1.431   5.207   5.811  0.2709 -0.4964 -0.2150
12813SOL    HW139124   1.411   5.294   5.845  0.0671 -0.5364 -0.2263
12813SOL    HW239125   1.393   5.147   5.875 -1.1031 -0.5738 -1.0477
12814SOL     OW39126   5.428   1.605   7.482 -0.3535 -0.0230  0.6892
12814SOL    HW139127   5.510   1.589   7.529  1.7879 -0.3424 -2.7713
12814SOL    HW239128   5.416   1.526   7.429 -1.3721  1.1609 -0.9258
12815SOL     OW39129   6.308   2.091   2.215 -0.2592 -0.3846 -0.0575
12815SOL    HW139130   6.372   2.030   2.177 -1.5481 -1.2250 -0.9614
12815SOL    HW239131   6.323   2.173   2.168 -1.4017 -1.2403 -2.0400
12816SOL     OW39132   1.781   7.545   3.929 -0.7129 -0.2361 -0.4470
12816SOL    HW139133   1.789   7.559   3.835 -2.9585  1.0149 -0.5237
12816SOL    HW239134   1.841   7.609   3.968  0.6116 -1.1049 -0.9863
12817SOL     OW39135   3.425   3.451   0.354  0.0657 -0.1274 -0.2989
12817SOL    HW139136   3.504   3.503   0.370  0.6760 -0.8196 -0.9646
12817SOL    HW239137   3.444   3.366   0.394 -0.7373 -0.0059  0.3763
12818SOL     OW39138   7.244   3.681   7.526 -0.6124 -0.2431  0.4734
12818SOL    HW139139   7.296   3.706   7.602  0.1698  0.7867 -0.3631
12818SOL    HW239140   7.309   3.649   7.463 -1.0903  0.2467 -0.2783
12819SOL     OW39141   4.257   6.970   3.733  0.2424 -0.3333  0.2863
12819SOL    HW139142   4.326   7.034   3.749 -0.0578  0.6472 -2.0113
12819SOL    HW239143   4.228   6.987   3.643 -1.8738 -1.7847  0.6157
12820SOL     OW39144   4.945   0.744   2.623 -0.1436 -0.4701 -0.0215
12820SOL    HW139145   4.999   0.740   2.544  0.1373  1.8282 -0.0221
12820SOL    HW239146   5.008   0.750   2.695 -0.3232  1.5504  0.0259
12821SOL     OW39147   6.101   1.523   6.384  0.1557 -0.1400  0.1115
12821SOL    HW139148   6.101   1.608   6.427 -2.8826  0.0278 -0.0287
12821SOL    HW239149   6.054   1.465   6.444  0.5439 -1.2620 -0.6332
12822SOL     OW39150   6.037   0.342   6.857 -0.0863 -0.5984 -0.1891
12822SOL    HW139151   6.085   0.261   6.878 -0.8670 -1.3934 -1.3475
12822SOL    HW239152   5.945   0.314   6.851 -0.4385  0.4935 -0.0882
12823SOL     OW39153   3.140   1.807   1.063 -1.0906 -0.5236 -0.3653
12823SOL    HW139154   3.101   1.874   1.006  0.1923 -0.1043 -0.7863
12823SOL    HW239155   3.152   1.851   1.147  0.6619  0.1338 -0.9154
12824SOL     OW39156   3.579   6.687   7.757 -0.2441  0.1902 -0.4385
12824SOL    HW139157   3.565   6.747   7.830 -0.9734  0.3798 -0.7276
12824SOL    HW239158   3.672   6.664   7.762 -0.6310 -1.2502  1.6608
12825SOL     OW39159   7.541   5.488   3.201 -0.5055  0.0979  0.2979
12825SOL    HW139160   7.621   5.530   3.171 -0.4285 -0.2625 -0.0054
12825SOL    HW239161   7.524   5.419   3.137 -0.7560 -0.1885  0.6674
12826SOL     OW39162   7.318   5.119   0.623  0.6318 -0.1193 -0.8868
12826SOL    HW139163   7.280   5.042   0.583 -0.3151 -0.3976  0.4753
12826SOL    HW239164   7.329   5.096   0.715 -0.9535  1.8018 -0.1517
12827SOL     OW39165   2.631   1.622   4.191  0.2160  0.2727 -0.0824
12827SOL    HW139166   2.617   1.539   4.145 -2.2925  0.5101  0.0862
12827SOL    HW239167   2.664   1.596   4.277  1.7660 -0.3608 -0.8243
12828SOL     OW39168   3.245   6.594   1.397 -0.3707  0.0721 -0.0077
12828SOL    HW139169   3.323   6.587   1.451 -0.2795 -0.0931 -0.1607
12828SOL    HW239170   3.182   6.535   1.438 -0.6969  0.8228  0.5977
12829SOL     OW39171   2.756   2.391   3.679  0.0844 -0.6645  0.0481
12829SOL    HW139172   2.793   2.443   3.751  2.7629 -1.3456 -0.7060
12829SOL    HW239173   2.811   2.313   3.676 -0.9057 -1.3431 -1.8109
12830SOL     OW39174   2.764   6.335   7.386 -0.2818  0.4032  0.4364
12830SOL    HW139175   2.689   6.343   7.445 -0.0599 -0.0304  0.7813
12830SOL    HW239176   2.759   6.412   7.330 -1.4825 -0.0526 -0.1225
12831SOL     OW39177   7.654   5.508   6.945 -0.0096  0.3283 -0.0448
12831SOL    HW139178   7.627   5.581   7.000  1.8100 -0.3798  1.9353
12831SOL    HW239179   7.661   5.546   6.857 -1.4020  1.9155  0.4768
12832SOL     OW39180   4.062   0.724   2.365 -0.7525 -0.1939  0.3608
12832SOL    HW139181   4.115   0.714   2.285  0.3603 -3.7320  1.3455
12832SOL    HW239182   3.978   0.683   2.343 -1.3820  1.0740  0.3067
12833SOL     OW39183   3.591   7.409   1.108 -0.3080 -0.0533 -0.0241
12833SOL    HW139184   3.547   7.386   1.026  0.1306  2.0290 -0.9109
12833SOL    HW239185   3.683   7.388   1.093  0.1312  2.2852 -0.9213
12834SOL     OW39186   6.346   7.016   7.444 -0.4463  0.8526  0.6616
12834SOL    HW139187   6.339   7.052   7.355 -2.2041  0.1114  0.4685
12834SOL    HW239188   6.401   6.939   7.433  0.2731  1.3839  0.4282
12835SOL     OW39189   6.587   2.190   5.658  0.7726  0.1260 -0.0335
12835SOL    HW139190   6.615   2.256   5.594 -2.1450  3.1649  1.5359
12835SOL    HW239191   6.617   2.223   5.742  0.4013 -1.2934  0.6893
12836SOL     OW39192   6.068   2.605   1.425 -0.0896 -0.1223 -0.6235
12836SOL    HW139193   6.092   2.558   1.346  0.3805 -0.5802 -0.2139
12836SOL    HW239194   6.089   2.697   1.406  1.2685 -0.4025 -0.5570
12837SOL     OW39195   4.727   0.893   1.865  0.3586 -0.4331 -0.0927
12837SOL    HW139196   4.690   0.979   1.846 -0.5543 -1.1035 -1.5111
12837SOL    HW239197   4.815   0.911   1.898  1.0837  0.9675 -2.5387
12838SOL     OW39198   7.636   7.750   7.305 -0.6246  0.3975 -0.4461
12838SOL    HW139199   7.604   7.661   7.320  0.8263  0.2343  2.3221
12838SOL    HW239200   7.611   7.798   7.384 -1.5707  2.5691 -1.9823
12839SOL     OW39201   1.682   3.700   1.786  0.0709 -0.1210  0.1678
12839SOL    HW139202   1.737   3.624   1.805 -1.4597 -1.0895  0.8819
12839SOL    HW239203   1.593   3.671   1.806 -0.6831  1.4896 -0.6893
12840SOL     OW39204   0.740   6.362   5.628 -0.3463  0.6414 -0.2447
12840SOL    HW139205   0.732   6.291   5.564 -1.0589  0.4426  0.0588
12840SOL    HW239206   0.686   6.334   5.702 -2.3608  2.4201 -0.9325
12841SOL     OW39207   5.767   5.486   0.793  0.6350  0.2679  0.1754
12841SOL    HW139208   5.848   5.532   0.772  0.1030  1.6070  0.9455
12841SOL    HW239209   5.784   5.443   0.876  0.7767 -0.0119  0.0014
12842SOL     OW39210   1.741   7.524   0.905 -0.5248  0.9590 -0.2138
12842SOL    HW139211   1.827   7.556   0.875  0.2472  2.0303  2.7997
12842SOL    HW239212   1.720   7.579   0.980 -3.4826  0.0976 -0.2963
12843SOL     OW39213   1.062   4.040   4.370 -0.4224  0.1934 -0.6088
12843SOL    HW139214   1.119   4.013   4.442  1.5873  0.6472 -1.9354
12843SOL    HW239215   1.033   3.957   4.331 -1.1872 -0.0512  0.4315
12844SOL     OW39216   3.161   3.338   7.646  0.3754 -0.2539 -0.1971
12844SOL    HW139217   3.113   3.313   7.567 -0.4228 -0.0010  0.1955
12844SOL    HW239218   3.158   3.261   7.702 -0.0250 -0.0702  0.0384
12845SOL     OW39219   4.402   0.977   1.847 -0.3476  0.4332  0.0878
12845SOL    HW139220   4.460   1.052   1.834  2.1157 -1.7388 -3.0508
12845SOL    HW239221   4.450   0.920   1.907 -0.7275 -0.0407 -0.0557
12846SOL     OW39222   2.503   0.964   0.649 -0.1755 -0.1511 -0.0358
12846SOL    HW139223   2.490   1.057   0.628  0.9285 -0.1723 -0.9052
12846SOL    HW239224   2.431   0.920   0.604 -0.9557  0.3161  0.7351
12847SOL     OW39225   0.175   6.579   0.956 -0.1284  0.2050 -0.1685
12847SOL    HW139226   0.182   6.521   1.032  1.7245  0.2303 -0.2686
12847SOL    HW239227   0.091   6.624   0.968 -0.5726 -0.8720  1.0646
12848SOL     OW39228   7.163   6.479   5.096 -0.3382 -0.1618  0.2881
12848SOL    HW139229   7.207   6.399   5.069 -0.2604  0.4871 -1.6806
12848SOL    HW239230   7.147   6.468   5.189  1.4662 -1.6100  0.4735
12849SOL     OW39231   7.284   1.916   6.385  0.4827 -0.3098 -0.2540
12849SOL    HW139232   7.247   1.898   6.298 -0.9218  0.8713  0.0488
12849SOL    HW239233   7.362   1.967   6.368  0.2253 -0.0988 -0.8264
12850SOL     OW39234   6.089   3.658   3.468 -0.3916 -0.1842  0.6128
12850SOL    HW139235   6.153   3.723   3.497  0.4447 -0.9239  0.4800
12850SOL    HW239236   6.017   3.665   3.531  0.2155  0.0497  1.2908
12851SOL     OW39237   7.036   5.736   4.689 -0.4838 -0.0230 -0.1918
12851SOL    HW139238   7.121   5.697   4.708 -0.5193  1.1871  3.3143
12851SOL    HW239239   6.973   5.666   4.706 -0.3032 -0.1306  0.0404
12852SOL     OW39240   2.898   0.140   4.983 -0.0805  0.1274  0.0396
12852SOL    HW139241   2.933   0.091   5.057  1.1724  1.6227  0.4668
12852SOL    HW239242   2.974   0.162   4.930 -0.9139 -0.5866 -1.5428
12853SOL     OW39243   7.462   1.244   7.764 -0.1674 -0.1914 -1.0914
12853SOL    HW139244   7.405   1.271   7.837  2.2180  1.2424  0.3411
12853SOL    HW239245   7.484   1.153   7.785  0.5926  0.2443  0.0681
12854SOL     OW39246   0.920   5.637   2.351  0.3024  0.1908  0.0876
12854SOL    HW139247   1.003   5.589   2.348  1.1674  1.5148  1.7837
12854SOL    HW239248   0.883   5.624   2.263  1.6880 -1.4486 -0.3222
12855SOL     OW39249   7.725   6.349   4.587 -0.1995  0.0701  0.0989
12855SOL    HW139250   7.702   6.441   4.571 -2.4827 -0.6209 -0.9648
12855SOL    HW239251   7.762   6.349   4.676  2.2100  2.3301 -0.7665
12856SOL     OW39252   2.803   2.019   4.713  0.2485 -0.3766  0.5106
12856SOL    HW139253   2.727   2.049   4.664  0.3812 -0.1136  0.4644
12856SOL    HW239254   2.807   2.077   4.789  2.7529  2.3492 -1.4903
12857SOL     OW39255   1.045   2.081   6.953 -0.0234  0.2362  0.2330
12857SOL    HW139256   0.991   2.004   6.967 -0.8646  0.9592  1.1485
12857SOL    HW239257   1.084   2.069   6.867 -2.1334 -0.0338 -0.7329
12858SOL     OW39258   1.817   3.707   4.770 -0.7655 -0.3871  0.6831
12858SOL    HW139259   1.736   3.742   4.731  1.6303  2.0212 -2.6854
12858SOL    HW239260   1.839   3.631   4.715 -0.5298 -0.8004  1.3431
12859SOL     OW39261   0.453   7.451   1.958  0.9561  0.3730  0.0426
12859SOL    HW139262   0.379   7.446   2.018  0.8876 -1.4123 -0.1407
12859SOL    HW239263   0.429   7.520   1.896  0.1005  0.8006  0.8219
12860SOL     OW39264   0.364   3.204   1.146 -0.2714 -0.0825  0.1468
12860SOL    HW139265   0.410   3.242   1.071  2.0463  0.4695  1.7059
12860SOL    HW239266   0.298   3.147   1.108  0.7278  0.2552 -2.2980
12861SOL     OW39267   4.281   1.307   3.964 -0.4390  0.4940  0.3504
12861SOL    HW139268   4.377   1.304   3.967 -0.3125 -0.1871 -2.1861
12861SOL    HW239269   4.253   1.260   4.042  1.3121 -0.6790  0.3267
12862SOL     OW39270   6.311   7.049   6.164 -0.1059  0.0445 -0.1225
12862SOL    HW139271   6.297   7.116   6.098 -2.3202  0.1051  0.3310
12862SOL    HW239272   6.291   7.092   6.247  1.7468 -0.2869  0.5503
12863SOL     OW39273   0.782   0.173   0.801 -0.0025 -0.1948 -0.1359
12863SOL    HW139274   0.691   0.144   0.790 -0.8791  2.9110 -2.5789
12863SOL    HW239275   0.829   0.131   0.729 -0.5354  1.5785 -1.5793
12864SOL     OW39276   1.109   6.885   2.909  0.7677  0.3772  0.2544
12864SOL    HW139277   1.080   6.970   2.877  0.6259  0.4341  0.5339
12864SOL    HW239278   1.091   6.887   3.003  0.6730  0.0030  0.2446
12865SOL     OW39279   1.882   5.161   0.601  0.0715  0.1795  0.2083
12865SOL    HW139280   1.861   5.132   0.690 -0.8900  2.6016  0.8666
12865SOL    HW239281   1.971   5.130   0.585 -0.0544 -1.0141  1.6874
12866SOL     OW39282   2.326   5.735   4.551 -0.4930 -0.0364  0.2451
12866SOL    HW139283   2.383   5.803   4.517  2.5113 -2.2591  0.4359
12866SOL    HW239284   2.260   5.722   4.482  1.8669 -0.3503 -2.1058
12867SOL     OW39285   3.242   2.721   4.337 -0.4946 -0.1749 -0.5636
12867SOL    HW139286   3.191   2.682   4.266 -1.0218  0.6500 -0.6551
12867SOL    HW239287   3.192   2.702   4.416  0.2396 -1.3444 -0.3593
12868SOL     OW39288   1.964   3.273   7.025  0.2631 -0.1001 -0.7143
12868SOL    HW139289   2.049   3.258   7.066 -0.1182  0.1250  0.1820
12868SOL    HW239290   1.986   3.302   6.936  1.1228  0.0413 -0.4715
12869SOL     OW39291   2.970   1.118   6.969  0.2403  0.1004  0.2317
12869SOL    HW139292   2.963   1.206   7.005  1.9759  0.7646 -0.9647
12869SOL    HW239293   2.951   1.128   6.876 -3.1935 -1.4369  0.6073
12870SOL     OW39294   6.703   4.767   0.933 -0.3907 -0.1797  0.5452
12870SOL    HW139295   6.673   4.849   0.971  0.7737  0.5210 -0.0185
12870SOL    HW239296   6.627   4.735   0.884 -0.2712  1.5620 -0.8557
12871SOL     OW39297   2.580   4.842   7.087 -0.6295  0.9749 -0.1034
12871SOL    HW139298   2.653   4.885   7.132 -0.3482  0.9158 -0.4978
12871SOL    HW239299   2.546   4.909   7.027 -0.4109  0.7547 -0.4711
12872SOL     OW39300   1.486   5.925   5.062 -0.5998  0.1406 -0.2405
12872SOL    HW139301   1.554   5.913   5.128 -2.0713  1.1598  1.5484
12872SOL    HW239302   1.432   5.847   5.068 -0.5737  0.1059 -0.4428
12873SOL     OW39303   7.093   3.454   7.558  0.2342 -0.6019  0.4106
12873SOL    HW139304   6.998   3.466   7.555  0.2657 -0.4253  0.0053
12873SOL    HW239305   7.127   3.540   7.581  0.3348 -0.4501 -0.2603
12874SOL     OW39306   4.356   0.283   5.386 -0.2581 -0.0477 -0.4738
12874SOL    HW139307   4.347   0.234   5.468  0.4607 -1.3369 -1.1231
12874SOL    HW239308   4.278   0.338   5.382  0.2290  0.8681  1.5810
12875SOL     OW39309   2.101   2.529   0.845 -0.2204 -0.8843 -0.4355
12875SOL    HW139310   2.022   2.581   0.836 -0.3840 -0.9660  0.4491
12875SOL    HW239311   2.072   2.439   0.832 -0.2060 -0.8852 -0.4616
12876SOL     OW39312   2.277   4.220   0.781 -0.0599  0.3645  0.1506
12876SOL    HW139313   2.196   4.269   0.779  0.0206  0.5222  0.5974
12876SOL    HW239314   2.346   4.286   0.784  0.0950  0.2345 -0.4228
12877SOL     OW39315   6.742   7.205   0.894 -0.2726 -0.4075  0.0187
12877SOL    HW139316   6.683   7.134   0.869 -0.1270  0.2483 -2.4412
12877SOL    HW239317   6.828   7.163   0.902 -0.1251 -0.5499 -1.7330
12878SOL     OW39318   0.968   2.729   4.355 -0.3555  0.4504 -0.6037
12878SOL    HW139319   0.908   2.660   4.381 -0.7983  1.3656  0.9362
12878SOL    HW239320   1.010   2.696   4.275 -0.0863 -1.8252  0.4150
12879SOL     OW39321   1.157   1.533   4.777 -0.2010  0.5577 -0.0187
12879SOL    HW139322   1.086   1.537   4.713  0.7799  0.1897 -1.1578
12879SOL    HW239323   1.237   1.527   4.725  0.6818  0.9151  1.2375
12880SOL     OW39324   7.311   5.742   0.037  0.0125 -0.0034  0.3169
12880SOL    HW139325   7.374   5.675   0.062  1.0298  0.7880 -0.0936
12880SOL    HW239326   7.250   5.696  -0.021  3.4102  0.3231 -4.0206
12881SOL     OW39327   0.898   4.897   7.741 -0.1785  0.3301 -0.1550
12881SOL    HW139328   0.872   4.859   7.657  1.4679  0.1594 -0.6146
12881SOL    HW239329   0.859   4.984   7.740 -0.4383  0.2196 -0.9668
12882SOL     OW39330   4.589   3.578   6.595  0.2292  0.4104 -0.3829
12882SOL    HW139331   4.593   3.490   6.556  1.5222 -0.1494  0.9220
12882SOL    HW239332   4.617   3.636   6.524 -1.0121 -0.1469 -1.3836
12883SOL     OW39333   0.352   3.408   2.149 -0.0618 -0.2743  0.2047
12883SOL    HW139334   0.400   3.327   2.131  0.2828 -0.0987  0.3224
12883SOL    HW239335   0.273   3.379   2.197 -0.6086 -0.6672 -0.9053
12884SOL     OW39336   3.399   4.183   6.201 -0.2041 -0.3734 -0.0177
12884SOL    HW139337   3.491   4.205   6.218  0.2157 -1.0866 -1.2310
12884SOL    HW239338   3.384   4.210   6.110 -1.3908  0.3131  0.3630
12885SOL     OW39339   3.770   1.864   6.930  0.2047 -0.0905  0.0067
12885SOL    HW139340   3.816   1.819   6.858  1.3648  0.6446  0.2540
12885SOL    HW239341   3.734   1.793   6.983  0.7680 -0.6898 -0.3870
12886SOL     OW39342   3.794   3.212   2.321 -0.4512 -0.5697  0.7191
12886SOL    HW139343   3.736   3.240   2.250  1.2371  0.3904 -0.3347
12886SOL    HW239344   3.877   3.193   2.279 -0.0219 -2.1729  2.1685
12887SOL     OW39345   5.467   4.001   1.414 -0.2080  0.2870 -0.0155
12887SOL    HW139346   5.509   3.956   1.341  1.3227  2.5624 -0.6758
12887SOL    HW239347   5.374   4.004   1.391  0.0553 -0.1775 -1.2207
12888SOL     OW39348   5.126   2.627   0.984  0.0657  0.3143  0.1002
12888SOL    HW139349   5.151   2.535   0.993  2.1463  0.8282  0.0531
12888SOL    HW239350   5.131   2.662   1.073 -3.3064 -0.1307  0.6040
12889SOL     OW39351   4.488   5.319   1.782  0.6381 -0.9478  0.0909
12889SOL    HW139352   4.474   5.317   1.876  1.4270  1.1794  0.3062
12889SOL    HW239353   4.409   5.359   1.747  0.0720 -2.3092 -0.2575
12890SOL     OW39354   3.126   4.794   2.627  0.3926 -0.2413  0.0300
12890SOL    HW139355   3.052   4.737   2.649 -0.6683  1.2164  0.3755
12890SOL    HW239356   3.109   4.875   2.675  2.3925  0.0305  0.3726
12891SOL     OW39357   4.989   3.968   3.102 -0.9199  0.2162  0.8444
12891SOL    HW139358   4.916   4.012   3.060 -1.3189 -0.7910  0.4466
12891SOL    HW239359   4.954   3.883   3.130 -0.1910  0.1404  1.6169
12892SOL     OW39360   2.668   7.105   5.687 -0.4937 -0.0163  0.0479
12892SOL    HW139361   2.689   7.197   5.670  0.2402 -0.1740  0.0532
12892SOL    HW239362   2.644   7.070   5.602  0.8611 -0.2204 -0.2841
12893SOL     OW39363   7.040   2.644   3.220 -0.2750  0.0580 -0.3769
12893SOL    HW139364   6.947   2.664   3.225 -0.1191  0.9860 -1.0341
12893SOL    HW239365   7.053   2.606   3.134 -0.0319  0.0223 -0.3268
12894SOL     OW39366   5.174   7.224   6.878 -0.6337 -0.2864 -0.1030
12894SOL    HW139367   5.256   7.191   6.839 -0.1862  0.8973 -0.2075
12894SOL    HW239368   5.126   7.260   6.804 -0.4762  0.5730  0.2071
12895SOL     OW39369   1.973   7.466   3.440  0.4994  0.3225 -0.5093
12895SOL    HW139370   1.986   7.421   3.356  0.4513  0.3427 -0.5281
12895SOL    HW239371   2.022   7.548   3.431  0.4364  0.3569 -0.5451
12896SOL     OW39372   2.796   3.504   5.111  0.5488 -0.3948 -0.6878
12896SOL    HW139373   2.798   3.546   5.026 -0.9018 -0.5015 -0.8006
12896SOL    HW239374   2.877   3.530   5.153  0.6970  0.6906 -1.6130
12897SOL     OW39375   1.191   4.142   3.215  0.4942 -0.6679  0.2732
12897SOL    HW139376   1.160   4.230   3.235  0.2740 -0.5838 -0.4073
12897SOL    HW239377   1.278   4.154   3.178  0.6842 -0.7809  0.6770
12898SOL     OW39378   1.070   2.214   7.562  0.0051  0.2582 -0.5195
12898SOL    HW139379   1.141   2.171   7.610  1.6779  3.2856 -0.0941
12898SOL    HW239380   0.993   2.203   7.619  1.1174  0.6169  1.0998
12899SOL     OW39381   1.497   6.824   3.364  0.1600  0.2411  0.2029
12899SOL    HW139382   1.507   6.832   3.458 -0.5337  2.3790  0.1524
12899SOL    HW239383   1.570   6.874   3.327  0.6911 -0.9489 -0.4343
12900SOL     OW39384   0.236   1.718   4.974  0.5823 -0.1474 -0.2982
12900SOL    HW139385   0.186   1.643   4.942  1.4170 -0.5954 -0.6014
12900SOL    HW239386   0.191   1.794   4.938  0.8467 -0.5971 -1.6578
12901SOL     OW39387   3.898   1.261   1.819  0.1865 -0.4518  0.4989
12901SOL    HW139388   3.930   1.210   1.893 -0.4285  0.8327  1.7072
12901SOL    HW239389   3.974   1.312   1.790  0.5510 -1.3091 -0.0864
12902SOL     OW39390   6.799   4.037   1.130  0.6301 -0.8167  0.3768
12902SOL    HW139391   6.837   3.976   1.066 -1.7704 -1.4876 -0.5123
12902SOL    HW239392   6.873   4.063   1.184  2.6680 -0.7948 -2.1887
12903SOL     OW39393   2.050   5.077   1.071  0.5390 -0.3465  0.5239
12903SOL    HW139394   2.077   5.055   1.160  1.4378 -1.0458  0.0982
12903SOL    HW239395   2.124   5.050   1.016  0.0251  0.1251 -0.4316
12904SOL     OW39396   0.282   7.468   7.620  0.4780 -0.0821 -0.0458
12904SOL    HW139397   0.349   7.523   7.579 -0.8561  0.6429 -1.3508
12904SOL    HW239398   0.202   7.487   7.571 -0.6326 -1.1446  1.2769
12905SOL     OW39399   0.695   4.479   1.312  0.5434 -0.0076 -0.1174
12905SOL    HW139400   0.723   4.394   1.279 -0.3493 -1.1220  1.8981
12905SOL    HW239401   0.605   4.489   1.280  1.3043  1.2230 -2.1442
12906SOL     OW39402   3.984   3.072   3.318  0.7625  0.3102 -0.2502
12906SOL    HW139403   3.909   3.119   3.282  0.8767  0.7610  0.1013
12906SOL    HW239404   4.019   3.129   3.386  0.9924 -0.2118  0.0804
12907SOL     OW39405   4.769   0.036   4.704  0.2749 -0.0865  0.4863
12907SOL    HW139406   4.764   0.010   4.612  1.0441  0.0326  0.4058
12907SOL    HW239407   4.678   0.032   4.735 -0.3978  2.1671 -0.9152
12908SOL     OW39408   6.694   1.200   3.796  0.4461  0.3699  0.1866
12908SOL    HW139409   6.781   1.170   3.771  0.2938  1.0552 -1.2718
12908SOL    HW239410   6.635   1.134   3.759  0.3033  0.4339  0.3011
12909SOL     OW39411   4.114   7.210   1.043  0.3290  0.0876  0.3733
12909SOL    HW139412   4.206   7.232   1.028  0.3663  0.2804  0.8462
12909SOL    HW239413   4.070   7.236   0.963  0.8826 -1.2485 -0.3807
12910SOL     OW39414   7.149   2.901   3.238  0.1093 -0.2097 -0.1298
12910SOL    HW139415   7.160   2.909   3.332 -0.5455  0.7905 -0.1135
12910SOL    HW239416   7.122   2.810   3.224 -0.0475 -0.2933  0.6791
12911SOL     OW39417   1.444   5.841   0.917  0.2063 -0.5405  0.4201
12911SOL    HW139418   1.499   5.908   0.874 -1.6734  1.2253  0.6100
12911SOL    HW239419   1.505   5.790   0.969  2.1160 -0.6987 -1.7952
12912SOL     OW39420   0.876   4.488   7.586  0.6663 -0.0490  0.1075
12912SOL    HW139421   0.796   4.541   7.597  1.4486  1.4753 -1.0985
12912SOL    HW239422   0.901   4.464   7.675 -1.6734 -1.4635  0.4745
12913SOL     OW39423   5.144   3.170   1.455 -0.5883  0.2167  0.1582
12913SOL    HW139424   5.214   3.111   1.427 -1.0210  0.0996 -0.7205
12913SOL    HW239425   5.185   3.227   1.520  0.4307  0.4072 -0.6276
12914SOL     OW39426   6.286   4.332   6.052  0.4124 -0.4900  0.4056
12914SOL    HW139427   6.211   4.283   6.018 -0.4990  1.2712 -0.1975
12914SOL    HW239428   6.317   4.278   6.125 -2.0788 -0.8098  1.3535
12915SOL     OW39429   4.894   6.023   1.968 -0.3101  0.4243 -0.5617
12915SOL    HW139430   4.951   5.974   2.026 -0.1664 -1.7465 -2.3917
12915SOL    HW239431   4.815   6.039   2.020  0.5526  0.2985  0.8358
12916SOL     OW39432   0.820   5.539   6.784  0.3422 -0.1064 -0.0130
12916SOL    HW139433   0.794   5.544   6.692  2.4672  0.3095 -0.6315
12916SOL    HW239434   0.779   5.616   6.824  0.2013  0.2524 -0.8206
12917SOL     OW39435   6.509   3.586   5.411 -0.0467 -0.4965  0.5968
12917SOL    HW139436   6.519   3.660   5.352  0.6033 -0.6649  0.4784
12917SOL    HW239437   6.475   3.623   5.492  0.7492  0.0089  0.7059
12918SOL     OW39438   1.771   0.665   4.882  0.2033 -0.0950 -0.6678
12918SOL    HW139439   1.842   0.601   4.871  0.8132  0.5474 -0.4896
12918SOL    HW239440   1.729   0.639   4.965  0.6003 -0.1170 -0.4716
12919SOL     OW39441   7.469   3.257   0.288 -0.3180  0.6656  0.8292
12919SOL    HW139442   7.508   3.318   0.350 -0.6457  1.6806  0.0600
12919SOL    HW239443   7.411   3.311   0.234  2.1932  0.4863 -2.3808
12920SOL     OW39444   7.707   6.596   5.174  0.3550 -0.0997 -0.6409
12920SOL    HW139445   7.729   6.605   5.267 -1.4635 -0.5434 -0.1236
12920SOL    HW239446   7.733   6.680   5.136 -0.4765  0.7803  0.6405
12921SOL     OW39447   0.362   1.486   7.588  0.7536  0.3502 -0.0154
12921SOL    HW139448   0.292   1.478   7.523  1.6331 -0.9884 -0.8424
12921SOL    HW239449   0.415   1.559   7.557  0.6208  0.3416 -0.2659
12922SOL     OW39450   2.592   5.664   7.378  0.1545  0.1895 -0.6915
12922SOL    HW139451   2.578   5.748   7.334  2.2391  0.4905 -0.9054
12922SOL    HW239452   2.613   5.688   7.468 -1.8375 -0.2902 -0.0721
12923SOL     OW39453   4.973   5.776   2.688  0.4801  0.0232 -0.3790
12923SOL    HW139454   4.971   5.744   2.598  0.3579  0.5556 -0.5725
12923SOL    HW239455   5.062   5.758   2.718 -0.3722 -3.1431  0.5309
12924SOL     OW39456   1.607   1.669   0.454  0.6620 -0.4320 -0.2936
12924SOL    HW139457   1.687   1.721   0.455  0.1673  0.3357  0.0977
12924SOL    HW239458   1.632   1.588   0.410  1.5755 -0.0807 -0.4462
12925SOL     OW39459   7.150   4.522   5.894  0.0264  0.6415 -0.1402
12925SOL    HW139460   7.105   4.458   5.838  0.6965  0.2298 -0.2223
12925SOL    HW239461   7.129   4.494   5.983 -0.7251  1.0684 -0.1765
12926SOL     OW39462   6.495   1.729   3.197 -0.3818  0.1938 -0.0484
12926SOL    HW139463   6.487   1.749   3.290  0.4229 -0.6944  0.2323
12926SOL    HW239464   6.408   1.749   3.161 -0.7191  0.5113  0.8948
12927SOL     OW39465   3.837   0.198   4.280  0.3660 -0.4452  0.3460
12927SOL    HW139466   3.757   0.163   4.241 -1.4221  1.5262  2.0056
12927SOL    HW239467   3.887   0.121   4.305 -0.7723 -1.7408 -1.1451
12928SOL     OW39468   5.069   2.350   1.792  0.4399 -0.4055 -0.2451
12928SOL    HW139469   5.117   2.432   1.778  0.3772 -0.2684  0.3308
12928SOL    HW239470   5.107   2.313   1.871 -0.2742 -0.3865  0.1166
12929SOL     OW39471   1.959   4.522   6.069 -0.2813  0.1067 -0.3928
12929SOL    HW139472   1.906   4.572   6.007  0.0621  0.1940 -0.6177
12929SOL    HW239473   1.996   4.587   6.129 -1.4102 -0.0630  0.5335
12930SOL     OW39474   1.140   7.762   2.876  0.4803 -0.8714  0.0408
12930SOL    HW139475   1.195   7.835   2.904  0.7802 -0.7612 -0.8084
12930SOL    HW239476   1.195   7.712   2.817 -0.6975 -0.0728 -1.8203
12931SOL     OW39477   2.926   7.046   4.257 -0.0772  0.4079 -0.4544
12931SOL    HW139478   2.973   7.034   4.174 -0.8630 -1.7430 -0.6476
12931SOL    HW239479   2.850   7.099   4.233 -0.9438 -1.2055 -1.3882
12932SOL     OW39480   0.673   6.434   2.103  0.6972 -0.0278 -0.9394
12932SOL    HW139481   0.643   6.344   2.095  1.7631 -0.3075 -2.1466
12932SOL    HW239482   0.764   6.426   2.133  0.5972  0.6805 -0.4173
12933SOL     OW39483   6.587   0.412   0.112 -0.4264 -0.4873 -0.1098
12933SOL    HW139484   6.554   0.325   0.133  0.3181 -1.0047 -0.9996
12933SOL    HW239485   6.608   0.408   0.018 -0.0035  0.5200 -0.0708
12934SOL     OW39486   5.761   7.007   7.588 -0.3782  0.3244 -0.2654
12934SOL    HW139487   5.750   6.971   7.500  0.2614  2.4442 -1.2821
12934SOL    HW239488   5.673   7.036   7.614 -0.5958 -0.4447 -0.1068
12935SOL     OW39489   7.046   5.864   5.234  0.2261  0.0801 -0.4984
12935SOL    HW139490   7.031   5.947   5.278  2.4679 -0.4539  1.5210
12935SOL    HW239491   6.981   5.805   5.271  1.7138 -0.2141  1.9064
12936SOL     OW39492   2.979   4.327   4.591  0.3425  0.4374 -0.3359
12936SOL    HW139493   3.002   4.348   4.501 -0.6113 -2.0644 -1.2577
12936SOL    HW239494   3.010   4.237   4.603 -1.8499 -0.2300  0.9372
12937SOL     OW39495   0.866   0.620   3.368 -0.3956  0.3254  0.3964
12937SOL    HW139496   0.959   0.633   3.388 -0.4616 -1.7496  2.5173
12937SOL    HW239497   0.820   0.663   3.440 -1.0634  0.6224 -0.1981
12938SOL     OW39498   4.461   4.421   6.556 -0.0894  0.2327 -0.3936
12938SOL    HW139499   4.377   4.440   6.598 -0.2442 -3.0553  1.1098
12938SOL    HW239500   4.513   4.500   6.572 -2.0115  1.3461  0.9653
12939SOL     OW39501   5.920   2.770   4.032  0.0719 -0.0223  0.1026
12939SOL    HW139502   5.988   2.836   4.040  1.0222 -0.8311 -1.0315
12939SOL    HW239503   5.953   2.708   3.967 -1.3642 -0.9111  0.1646
12940SOL     OW39504   7.013   3.451   0.916 -0.2002 -0.5824  0.4552
12940SOL    HW139505   6.967   3.497   0.986  1.4845 -0.0905  1.2850
12940SOL    HW239506   7.007   3.359   0.941  0.8078 -0.3745  1.5401
12941SOL     OW39507   6.126   6.506   4.055 -0.2030  0.6695 -0.1685
12941SOL    HW139508   6.122   6.564   3.979 -3.0958 -0.0144 -0.6390
12941SOL    HW239509   6.053   6.533   4.110  1.1954  0.4455  1.8878
12942SOL     OW39510   0.096   2.551   3.372  0.2831  0.2124 -0.4762
12942SOL    HW139511   0.128   2.464   3.347  0.8322  0.1963  0.2686
12942SOL    HW239512   0.168   2.610   3.350  0.2634  0.3594 -0.1518
12943SOL     OW39513   5.595   7.471   7.672  1.1299 -0.1003  0.2351
12943SOL    HW139514   5.688   7.490   7.674  1.4441 -1.3017 -0.9575
12943SOL    HW239515   5.582   7.427   7.588 -0.6284  0.6006  0.0989
12944SOL     OW39516   2.480   4.765   4.815  0.8900  0.3050  0.4628
12944SOL    HW139517   2.390   4.776   4.846  0.8886  1.4524  0.1187
12944SOL    HW239518   2.477   4.691   4.755 -0.5331  2.2048 -2.0171
12945SOL     OW39519   6.148   4.753   7.610  0.6060  0.0141 -0.3452
12945SOL    HW139520   6.151   4.847   7.595 -1.2203  0.2091  0.2631
12945SOL    HW239521   6.176   4.742   7.701 -1.4372  0.2630  0.3686
12946SOL     OW39522   1.606   6.266   0.967  0.4783 -0.4367  0.2512
12946SOL    HW139523   1.584   6.260   1.060  1.3897 -2.2353  0.3994
12946SOL    HW239524   1.701   6.281   0.965  0.8431 -2.4624 -0.3357
12947SOL     OW39525   2.676   1.371   2.355  0.4183 -0.0499  0.0974
12947SOL    HW139526   2.761   1.329   2.342  0.1254 -0.0697 -2.0454
12947SOL    HW239527   2.613   1.309   2.319 -0.2623  1.0568 -0.6635
12948SOL     OW39528   1.235   6.510   5.733  0.0211 -0.2109  0.4503
12948SOL    HW139529   1.253   6.532   5.824 -0.7542 -0.0739  0.5735
12948SOL    HW239530   1.140   6.509   5.726  0.0437 -1.8155  0.0217
12949SOL     OW39531   0.785   4.867   1.654 -0.0274 -0.2671  0.0560
12949SOL    HW139532   0.767   4.787   1.605  0.3726 -1.6578  2.0784
12949SOL    HW239533   0.819   4.837   1.738  2.0487  2.0567  0.1681
12950SOL     OW39534   4.860   7.236   6.141  0.0789 -0.8340  0.1077
12950SOL    HW139535   4.934   7.242   6.081 -1.0129 -2.4327 -1.4896
12950SOL    HW239536   4.892   7.182   6.213  0.0386 -2.9362 -1.3761
12951SOL     OW39537   5.701   7.072   4.569 -0.3244 -0.0849 -0.3202
12951SOL    HW139538   5.608   7.097   4.574  0.1389  1.6331  0.5591
12951SOL    HW239539   5.740   7.136   4.510  0.7709  0.9371  1.4137
12952SOL     OW39540   1.312   4.965   0.848  0.0471 -0.0534  0.2077
12952SOL    HW139541   1.345   4.876   0.859  0.4037  0.3217  2.7033
12952SOL    HW239542   1.225   4.963   0.887 -0.0451  0.6585  0.0552
12953SOL     OW39543   3.102   6.285   0.855  0.0347  0.9575  0.2241
12953SOL    HW139544   3.015   6.299   0.892 -1.2113 -0.6991 -1.8650
12953SOL    HW239545   3.149   6.367   0.872 -2.2073  2.2429  0.5975
12954SOL     OW39546   4.586   2.215   3.179  0.0546 -0.0434 -0.2240
12954SOL    HW139547   4.564   2.226   3.087  1.2894  1.9761 -0.3246
12954SOL    HW239548   4.643   2.138   3.181 -0.6159 -0.5822 -1.0078
12955SOL     OW39549   2.164   7.265   2.179 -0.4430 -0.1214 -0.2886
12955SOL    HW139550   2.178   7.211   2.256  1.0829 -1.1387 -1.2315
12955SOL    HW239551   2.084   7.315   2.199 -0.4876 -0.8770  1.6209
12956SOL     OW39552   0.975   2.997   4.376 -0.0601  0.4311 -0.4120
12956SOL    HW139553   1.062   3.020   4.344 -0.4836  1.3097 -0.9836
12956SOL    HW239554   0.962   2.907   4.348  1.7143 -0.7008  2.0219
12957SOL     OW39555   0.946   1.481   2.854  0.7166  0.0212 -0.0123
12957SOL    HW139556   1.023   1.538   2.860  2.1713 -1.8794  0.2478
12957SOL    HW239557   0.902   1.492   2.938 -0.0738  2.0808 -0.6268
12958SOL     OW39558   4.920   2.367   1.575  0.2456 -0.0706  0.0020
12958SOL    HW139559   4.988   2.348   1.640  2.1720  0.6409 -1.6910
12958SOL    HW239560   4.899   2.281   1.537 -0.0243 -0.3347  0.7340
12959SOL     OW39561   2.093   1.160   1.567  0.0008  0.5407  0.1774
12959SOL    HW139562   2.083   1.255   1.571  1.4892  0.6743  1.3373
12959SOL    HW239563   2.173   1.147   1.516 -0.5652 -0.1456 -0.5771
12960SOL     OW39564   5.613   2.733   1.749  0.6497  0.1974 -0.5551
12960SOL    HW139565   5.610   2.673   1.823  1.3172  1.4979  0.5784
12960SOL    HW239566   5.658   2.684   1.680 -1.3893 -1.6006 -0.7016
12961SOL     OW39567   1.047   3.463   7.550  0.0101 -0.1126  0.0366
12961SOL    HW139568   0.976   3.468   7.487 -0.8267  2.0404  1.0612
12961SOL    HW239569   1.029   3.383   7.601 -0.8046 -0.4062 -0.6980
12962SOL     OW39570   3.536   4.122   0.228 -0.5471 -0.2199  0.0718
12962SOL    HW139571   3.620   4.164   0.207  0.3441 -1.7049  0.5088
12962SOL    HW239572   3.488   4.123   0.145 -0.1090  0.6554 -0.1852
12963SOL     OW39573   1.057   3.199   6.613  0.5097 -0.0225 -0.0613
12963SOL    HW139574   0.985   3.237   6.663  0.2572  0.7184 -0.9584
12963SOL    HW239575   1.069   3.259   6.539  0.0436 -1.7362 -1.5910
12964SOL     OW39576   4.836   1.552   3.715  0.2882 -0.2512 -0.4372
12964SOL    HW139577   4.918   1.532   3.760  0.3604 -0.4704 -0.6634
12964SOL    HW239578   4.776   1.482   3.742 -0.3098  0.7578  0.9649
12965SOL     OW39579   7.245   7.137   7.376  1.0966  0.2775  0.2438
12965SOL    HW139580   7.278   7.134   7.466  1.0442 -0.3028  0.2473
12965SOL    HW239581   7.181   7.067   7.372  0.5241  0.8109 -0.0299
12966SOL     OW39582   4.303   2.379   5.581 -0.2395 -0.0834  0.4486
12966SOL    HW139583   4.298   2.306   5.520  0.1630  0.0295  0.2767
12966SOL    HW239584   4.243   2.444   5.545  1.6411  0.9137 -1.1232
12967SOL     OW39585   5.795   0.231   6.761  0.2906  0.0058  0.3806
12967SOL    HW139586   5.736   0.162   6.792  1.7675 -1.5578 -0.1187
12967SOL    HW239587   5.747   0.274   6.689 -0.7115 -0.3874  0.7964
12968SOL     OW39588   4.898   7.036   6.399  0.1748 -0.3139 -0.0494
12968SOL    HW139589   4.816   6.994   6.373  0.3334 -0.6675  0.0260
12968SOL    HW239590   4.870   7.114   6.447 -0.1467 -1.7107  2.1402
12969SOL     OW39591   2.732   0.810   6.105  0.8562  0.1742 -0.4323
12969SOL    HW139592   2.739   0.715   6.115  0.8346 -0.0725 -2.2791
12969SOL    HW239593   2.769   0.827   6.018  1.2024  1.9101  0.0262
12970SOL     OW39594   7.219   7.624   4.352 -0.3009 -0.3090  0.1970
12970SOL    HW139595   7.199   7.535   4.321  0.3831  0.1129 -1.6206
12970SOL    HW239596   7.156   7.680   4.306 -1.8526  0.0588  2.6104
12971SOL     OW39597   3.930   5.675   6.324  0.4651 -0.1585 -0.1290
12971SOL    HW139598   3.881   5.756   6.332  1.7722  0.7195 -0.6897
12971SOL    HW239599   3.999   5.682   6.389  1.3581 -0.2229 -1.0352
12972SOL     OW39600   2.968   4.232   3.169  0.3591 -0.7833 -0.2648
12972SOL    HW139601   2.973   4.276   3.084  1.9981 -1.6872 -0.6709
12972SOL    HW239602   2.875   4.232   3.190 -0.1011 -0.6332 -2.1048
12973SOL     OW39603   5.220   2.704   3.586  0.2219  0.1109  0.0486
12973SOL    HW139604   5.180   2.653   3.515 -2.4096 -1.2248  2.3313
12973SOL    HW239605   5.168   2.784   3.590  0.6326  0.3734  0.2539
12974SOL     OW39606   5.887   3.678   0.182  0.0609 -0.2752 -0.0189
12974SOL    HW139607   5.952   3.654   0.117  0.7475 -1.8105  1.1753
12974SOL    HW239608   5.874   3.772   0.170  1.5327 -0.1881 -1.1304
12975SOL     OW39609   6.758   6.756   2.695 -0.0388  0.0792  0.1668
12975SOL    HW139610   6.778   6.663   2.702  0.9940  0.2099 -0.7485
12975SOL    HW239611   6.843   6.798   2.678 -0.5160  1.1576  0.3383
12976SOL     OW39612   1.832   5.109   0.849  0.1884  0.1635  0.2448
12976SOL    HW139613   1.892   5.112   0.924 -0.0730  0.6617  0.4443
12976SOL    HW239614   1.764   5.047   0.875  0.5881 -0.3594  0.0407
12977SOL     OW39615   4.470   5.934   4.317 -0.1492  0.4210  0.4849
12977SOL    HW139616   4.389   5.947   4.267 -0.7675 -2.4179  0.5362
12977SOL    HW239617   4.441   5.932   4.408 -0.0427 -0.4085  0.5139
12978SOL     OW39618   7.054   2.061   2.393  0.1402 -0.4752 -0.4632
12978SOL    HW139619   7.061   1.995   2.324  0.8408 -0.2450 -0.6170
12978SOL    HW239620   7.017   2.138   2.350  0.1584 -0.4770 -0.4820
12979SOL     OW39621   3.921   2.301   4.968 -0.2038 -0.2184  0.0444
12979SOL    HW139622   3.914   2.340   4.881  1.4241 -0.2857 -0.1511
12979SOL    HW239623   3.835   2.314   5.008 -0.5361  1.1045 -1.0388
12980SOL     OW39624   3.466   7.599   2.606  0.8152  0.6645  0.2458
12980SOL    HW139625   3.432   7.652   2.678  0.3088  0.4222  0.1911
12980SOL    HW239626   3.399   7.531   2.593  1.6711 -0.2759  0.6234
12981SOL     OW39627   5.999   5.693   7.282  0.4670 -0.5052  0.2758
12981SOL    HW139628   5.960   5.711   7.367  2.0502 -0.2121  0.9725
12981SOL    HW239629   6.092   5.715   7.293  0.4296  1.1499 -1.9899
12982SOL     OW39630   6.369   4.923   6.713  0.4449  0.2334 -0.3253
12982SOL    HW139631   6.287   4.954   6.752  0.3189  0.4337 -0.7466
12982SOL    HW239632   6.437   4.973   6.758  0.5840 -1.8025  1.9755
12983SOL     OW39633   1.977   5.170   3.940  0.6390 -0.1948  0.6452
12983SOL    HW139634   1.909   5.120   3.895  0.9626 -0.3812  0.3580
12983SOL    HW239635   2.045   5.106   3.961  0.2045 -0.2373  1.9951
12984SOL     OW39636   2.046   6.715   1.641 -0.3061 -0.0019  0.0030
12984SOL    HW139637   2.109   6.644   1.631 -0.7093 -0.3319 -0.1939
12984SOL    HW239638   2.057   6.743   1.732 -0.1153 -0.2825  0.0702
12985SOL     OW39639   5.399   0.955   7.778  0.3231 -0.5335 -0.0333
12985SOL    HW139640   5.324   1.001   7.740  1.6256  2.0291  0.2931
12985SOL    HW239641   5.442   0.914   7.703  0.9673  1.6360 -0.9360
12986SOL     OW39642   5.987   2.790   4.490  0.5484 -0.9149 -0.2843
12986SOL    HW139643   5.915   2.763   4.432  0.0163  1.3422 -0.7448
12986SOL    HW239644   6.043   2.844   4.434  1.7081 -1.2370  0.5357
12987SOL     OW39645   2.561   6.235   5.670 -0.6686 -0.7411 -0.5857
12987SOL    HW139646   2.544   6.178   5.595 -1.7849  0.9456 -1.6934
12987SOL    HW239647   2.487   6.296   5.671 -0.4503 -0.4328  1.6465
12988SOL     OW39648   2.694   3.020   0.659 -0.0537 -0.1133  0.0105
12988SOL    HW139649   2.681   3.115   0.652  1.7898  0.1460 -0.4240
12988SOL    HW239650   2.744   2.997   0.580  0.2358 -1.2959  0.5255
12989SOL     OW39651   4.401   3.583   1.696 -0.1627  0.1175 -0.3337
12989SOL    HW139652   4.347   3.534   1.757  0.5484 -0.1906  0.0609
12989SOL    HW239653   4.364   3.672   1.696 -0.9379 -0.2020 -0.4205
12990SOL     OW39654   4.353   6.926   2.255 -0.4185 -0.0442  0.3321
12990SOL    HW139655   4.337   6.832   2.256 -1.9027  0.1825  0.1620
12990SOL    HW239656   4.446   6.935   2.278 -0.6727 -1.4672  2.1598
12991SOL     OW39657   3.804   2.653   0.038  0.1978  0.2475  0.0917
12991SOL    HW139658   3.865   2.695  -0.022  0.9598  0.0122  0.6811
12991SOL    HW239659   3.771   2.724   0.094 -0.3812  0.4375 -0.4728
12992SOL     OW39660   4.396   4.474   4.136  0.2237 -0.0164 -0.3406
12992SOL    HW139661   4.363   4.402   4.189 -1.2015  0.1195 -1.0020
12992SOL    HW239662   4.406   4.547   4.198  1.3146 -0.6428  0.2533
12993SOL     OW39663   6.098   5.602   3.541 -0.5109 -0.3673  0.2166
12993SOL    HW139664   6.179   5.603   3.591  0.1784 -0.7340 -0.8672
12993SOL    HW239665   6.038   5.550   3.594 -0.4322  0.8737  1.5861
12994SOL     OW39666   4.777   7.414   3.292 -0.4541 -0.2092  0.5018
12994SOL    HW139667   4.867   7.447   3.282 -0.5247  0.3326  1.5372
12994SOL    HW239668   4.788   7.321   3.313 -0.1730 -0.3615 -0.2878
12995SOL     OW39669   5.347   5.138   7.443 -0.0410 -0.2045 -0.9619
12995SOL    HW139670   5.377   5.194   7.514 -1.4766  1.6464 -1.7471
12995SOL    HW239671   5.417   5.141   7.378  0.5242 -0.5142 -0.3712
12996SOL     OW39672   1.854   3.527   2.467  0.2936 -0.0219  0.7273
12996SOL    HW139673   1.947   3.549   2.462  0.4237 -0.5125  0.9749
12996SOL    HW239674   1.811   3.609   2.488  0.2301  1.1750 -3.1830
12997SOL     OW39675   2.768   4.685   2.890 -0.3490  0.1554  0.4451
12997SOL    HW139676   2.786   4.710   2.981 -0.6797  0.7795  0.3495
12997SOL    HW239677   2.757   4.769   2.845  1.3145 -0.0768 -0.4920
12998SOL     OW39678   3.599   3.700   3.857 -0.1852 -0.4156 -0.2837
12998SOL    HW139679   3.608   3.795   3.848  0.5863 -0.5067 -0.5315
12998SOL    HW239680   3.677   3.664   3.814  0.0417 -1.1258  0.6906
12999SOL     OW39681   1.095   0.908   3.262  0.3807  0.5630 -0.1385
12999SOL    HW139682   1.128   0.859   3.186  1.0428  0.5851  0.1327
12999SOL    HW239683   1.172   0.922   3.317 -0.3532 -0.9910  1.4028
13000SOL     OW39684   7.451   5.899   6.141  0.1830 -0.3106 -0.3285
13000SOL    HW139685   7.494   5.835   6.085 -0.0312 -1.0224  0.2971
13000SOL    HW239686   7.518   5.964   6.159  0.0382  0.3518 -2.0226
13001SOL     OW39687   2.886   0.945   0.443  0.3503 -0.1450  0.6325
13001SOL    HW139688   2.819   1.006   0.475 -0.0047 -0.1726 -0.0561
13001SOL    HW239689   2.935   0.995   0.378  0.5541 -0.3474  0.6310
13002SOL     OW39690   3.437   1.425   2.868  0.2217  0.0813 -0.2508
13002SOL    HW139691   3.360   1.461   2.912  0.3486  0.9444 -0.7246
13002SOL    HW239692   3.461   1.490   2.802  1.3835 -0.1401 -0.0850
13003SOL     OW39693   3.564   6.590   6.201  0.0952  0.1195  0.6102
13003SOL    HW139694   3.625   6.577   6.129 -0.9840  0.1245 -0.3431
13003SOL    HW239695   3.523   6.504   6.214 -1.2061  0.5950 -0.2063
13004SOL     OW39696   6.882   6.415   5.229 -0.6487 -0.0524  0.0946
13004SOL    HW139697   6.926   6.399   5.146  1.2333 -0.4809  1.1158
13004SOL    HW239698   6.888   6.509   5.243  0.9110 -0.2193  0.6981
13005SOL     OW39699   4.162   7.048   3.492 -0.3950  0.5101 -0.3733
13005SOL    HW139700   4.140   7.103   3.417 -0.7104 -0.4701 -1.0188
13005SOL    HW239701   4.134   6.960   3.467  1.5350 -0.2551  0.0069
13006SOL     OW39702   3.388   2.342   1.269  0.8275 -0.2698  0.2339
13006SOL    HW139703   3.422   2.396   1.341  0.5893  0.6148 -0.3009
13006SOL    HW239704   3.334   2.276   1.313  1.5021 -0.3741  0.9354
13007SOL     OW39705   7.759   6.997   6.398 -0.5846 -0.0454 -0.2506
13007SOL    HW139706   7.752   6.902   6.390 -0.8442  0.0393 -1.1476
13007SOL    HW239707   7.824   7.011   6.466  0.8501 -0.8763 -1.4100
13008SOL     OW39708   1.257   2.058   2.723  0.0626  0.1751 -0.5343
13008SOL    HW139709   1.295   1.971   2.713  0.3165  0.4229 -1.8854
13008SOL    HW239710   1.261   2.097   2.636 -0.8231  1.2315 -0.1349
13009SOL     OW39711   4.788   0.715   7.328  0.7421 -0.4236 -0.2180
13009SOL    HW139712   4.811   0.806   7.309 -0.4768 -0.0881 -0.1678
13009SOL    HW239713   4.788   0.672   7.242 -0.0181 -0.0481 -0.4101
13010SOL     OW39714   3.236   1.000   7.487 -0.3457  0.1676 -0.5452
13010SOL    HW139715   3.192   1.084   7.479 -1.5679 -0.5065 -1.3491
13010SOL    HW239716   3.320   1.020   7.527 -1.8616  1.3773  2.3814
13011SOL     OW39717   4.457   4.670   4.332  0.6588  0.1627  0.5809
13011SOL    HW139718   4.465   4.657   4.426 -1.4151  0.6777  0.8734
13011SOL    HW239719   4.547   4.681   4.301  1.4248 -0.8549  2.3531
13012SOL     OW39720   3.470   1.929   7.061 -0.7178 -0.2729 -0.0082
13012SOL    HW139721   3.428   2.005   7.100  0.5826  1.0588 -1.0823
13012SOL    HW239722   3.413   1.905   6.988 -2.0067 -1.4281  1.3009
13013SOL     OW39723   4.986   6.912   4.079 -0.2399 -0.0643  0.7160
13013SOL    HW139724   4.923   6.845   4.052  0.5564 -0.4667 -0.1946
13013SOL    HW239725   4.975   6.919   4.174 -2.0080  0.2463  0.5289
13014SOL     OW39726   1.592   2.765   5.752 -0.0922  0.0176 -0.0510
13014SOL    HW139727   1.636   2.733   5.673  1.0233  1.4834 -0.0719
13014SOL    HW239728   1.509   2.800   5.720  0.2466  0.3773 -0.5499
13015SOL     OW39729   5.703   6.503   0.893  0.1804 -0.5854 -0.5664
13015SOL    HW139730   5.618   6.535   0.922  1.2982  0.6488  1.6712
13015SOL    HW239731   5.707   6.413   0.924 -1.1465 -1.4257 -2.6957
13016SOL     OW39732   1.037   6.740   1.373 -0.6931 -0.2704  0.0893
13016SOL    HW139733   0.943   6.757   1.370 -0.7973 -0.7880  0.3260
13016SOL    HW239734   1.069   6.792   1.446 -0.8529 -0.3745  0.2323
13017SOL     OW39735   1.136   4.328   1.682 -0.5678  0.3962 -0.2870
13017SOL    HW139736   1.171   4.417   1.686  0.0940  0.1143  0.8600
13017SOL    HW239737   1.050   4.337   1.642 -1.8494  2.0308  2.5465
13018SOL     OW39738   1.406   5.633   6.267  0.1327  0.2635  0.4289
13018SOL    HW139739   1.312   5.620   6.260  0.2354 -1.0572  1.2613
13018SOL    HW239740   1.419   5.679   6.350  0.3756 -1.8137  1.5973
13019SOL     OW39741   1.424   0.928   2.717 -0.7143 -0.2602 -0.3628
13019SOL    HW139742   1.365   0.860   2.748  1.4050 -1.0642  2.2167
13019SOL    HW239743   1.469   0.889   2.641 -1.0813 -0.8933 -0.2575
13020SOL     OW39744   5.907   4.879   5.231 -0.2214  0.3328 -0.1025
13020SOL    HW139745   5.903   4.790   5.265  3.0504  1.0113  2.6248
13020SOL    HW239746   5.906   4.869   5.136 -0.8027 -2.4881  0.1139
13021SOL     OW39747   5.186   7.120   3.822 -0.3678  0.4888 -0.0568
13021SOL    HW139748   5.153   7.203   3.788 -0.6378  0.4996  0.2243
13021SOL    HW239749   5.112   7.059   3.811 -0.1319  0.2600 -0.3694
13022SOL     OW39750   6.591   7.138   4.766 -0.0318 -0.5126  0.2227
13022SOL    HW139751   6.538   7.124   4.688 -3.2503 -1.7677  2.4386
13022SOL    HW239752   6.611   7.231   4.766  0.2391 -0.5219 -2.1333
13023SOL     OW39753   5.796   0.329   2.921 -0.3753  0.0987  0.7402
13023SOL    HW139754   5.842   0.261   2.971  1.3375  0.5167 -0.1875
13023SOL    HW239755   5.724   0.283   2.880  0.5562 -1.1139  0.4038
13024SOL     OW39756   7.255   3.420   2.586 -0.5544  0.0578  0.2878
13024SOL    HW139757   7.302   3.438   2.667  0.0837 -2.9425  0.6741
13024SOL    HW239758   7.315   3.447   2.517  0.4191 -0.7230  0.8072
13025SOL     OW39759   5.322   2.440   2.972  0.6869 -0.5181 -0.3087
13025SOL    HW139760   5.347   2.357   3.012 -0.6618 -0.6877  0.2670
13025SOL    HW239761   5.335   2.505   3.040  2.5858 -0.0850 -1.0383
13026SOL     OW39762   0.905   2.219   3.146 -0.1339  0.0861  0.3181
13026SOL    HW139763   0.823   2.266   3.133 -0.6264 -0.3141  1.7463
13026SOL    HW239764   0.891   2.134   3.104 -0.7670 -0.2751  1.2203
13027SOL     OW39765   6.327   5.851   5.989 -0.1462 -0.7560 -0.3493
13027SOL    HW139766   6.401   5.908   6.007  1.0346 -2.9625  2.7444
13027SOL    HW239767   6.287   5.835   6.074 -3.3595 -0.8742 -1.7046
13028SOL     OW39768   4.490   2.029   3.360 -0.9328  0.4637 -1.2569
13028SOL    HW139769   4.502   2.093   3.290  1.7993  1.1373 -0.3367
13028SOL    HW239770   4.473   2.082   3.438 -4.3071 -0.2882 -1.3352
13029SOL     OW39771   7.575   2.863   5.961 -0.2945  0.3794 -0.1264
13029SOL    HW139772   7.494   2.865   5.909  0.2038  1.3947 -0.9101
13029SOL    HW239773   7.551   2.815   6.040 -1.5703  0.3430 -0.5016
13030SOL     OW39774   4.277   2.277   1.277  0.1448  0.2718 -0.4243
13030SOL    HW139775   4.262   2.330   1.355 -1.7912 -0.7396 -0.0244
13030SOL    HW239776   4.265   2.337   1.204  1.3442  1.0950  0.0351
13031SOL     OW39777   0.904   5.307   4.649 -0.5100  0.2403 -0.1380
13031SOL    HW139778   0.967   5.344   4.588 -1.2168  0.0350 -1.0214
13031SOL    HW239779   0.824   5.359   4.635 -0.2677  1.1749  1.6869
13032SOL     OW39780   5.774   1.580   3.608  0.2229  0.1850  0.3439
13032SOL    HW139781   5.865   1.581   3.578 -0.8757 -0.1689 -3.6471
13032SOL    HW239782   5.744   1.670   3.597 -0.1745  0.0878  0.6042
13033SOL     OW39783   0.669   6.465   1.800 -0.2548  0.3429  0.1812
13033SOL    HW139784   0.757   6.441   1.830 -0.5074  1.0705  1.6023
13033SOL    HW239785   0.617   6.469   1.880 -0.7266  3.4372 -0.1458
13034SOL     OW39786   3.298   2.166   3.183  0.3521 -0.0934 -0.3641
13034SOL    HW139787   3.360   2.115   3.236  0.1388  0.7778  0.7724
13034SOL    HW239788   3.349   2.192   3.106  0.9727 -0.5775 -0.1315
13035SOL     OW39789   2.781   6.947   7.070  0.0688 -0.3539  0.1357
13035SOL    HW139790   2.737   6.957   6.986 -0.4682  0.3193  0.4818
13035SOL    HW239791   2.860   6.898   7.051 -0.0097 -0.1314 -0.7780
13036SOL     OW39792   6.461   5.257   2.622  0.3153 -0.2734  0.4874
13036SOL    HW139793   6.417   5.268   2.707 -0.6966  1.6094 -0.2195
13036SOL    HW239794   6.502   5.342   2.606 -2.7663  0.8537 -2.6313
13037SOL     OW39795   4.431   1.564   7.474 -0.0058  0.5356  0.6145
13037SOL    HW139796   4.444   1.655   7.499  0.3829  0.6609 -0.0407
13037SOL    HW239797   4.504   1.544   7.416  0.1821 -0.3384  1.1271
13038SOL     OW39798   7.642   2.572   0.014 -0.8386  0.6197 -0.2980
13038SOL    HW139799   7.562   2.625   0.008 -0.6842  0.6825 -2.8964
13038SOL    HW239800   7.713   2.635   0.002 -0.1629  0.8282  3.5217
13039SOL     OW39801   1.343   1.032   3.263  0.5075  0.1013 -0.5343
13039SOL    HW139802   1.432   1.068   3.270  1.3127 -1.6786 -1.0876
13039SOL    HW239803   1.341   0.988   3.179 -0.3493 -1.3385  0.2010
13040SOL     OW39804   0.094   2.970   3.859 -0.1488 -0.3734 -0.1943
13040SOL    HW139805   0.052   2.982   3.944 -1.3021  0.9699 -0.8957
13040SOL    HW239806   0.022   2.975   3.796  0.8143 -0.2063 -1.3184
13041SOL     OW39807   6.293   3.474   3.756  0.2757  0.7631  0.5529
13041SOL    HW139808   6.322   3.467   3.665  0.2825 -1.6865  0.6576
13041SOL    HW239809   6.218   3.533   3.753 -0.8429 -0.6455 -1.3914
13042SOL     OW39810   7.132   7.511   0.239  0.0502  0.0776  0.2674
13042SOL    HW139811   7.191   7.586   0.242  0.3708 -0.0564 -1.4888
13042SOL    HW239812   7.143   7.476   0.150 -1.3085 -1.0576  0.5184
13043SOL     OW39813   0.201   4.780   3.513  0.5843  0.3055  0.0059
13043SOL    HW139814   0.184   4.854   3.571  2.1333  0.1555  0.6961
13043SOL    HW239815   0.117   4.733   3.510  0.1946  0.8478  1.3710
13044SOL     OW39816   5.863   5.965   6.186 -0.4911 -0.2019 -0.2364
13044SOL    HW139817   5.786   5.989   6.238  0.0748 -0.4045  0.7034
13044SOL    HW239818   5.932   6.023   6.217  0.3094 -1.5008  0.4865
13045SOL     OW39819   3.040   6.214   2.638  0.1440 -0.1402 -0.6218
13045SOL    HW139820   3.113   6.265   2.672  0.4479 -1.5029  0.9025
13045SOL    HW239821   3.070   6.181   2.553  2.0480 -2.0934  0.7081
13046SOL     OW39822   2.945   4.906   6.176 -0.0582 -0.0985  0.8691
13046SOL    HW139823   2.906   4.847   6.112  0.0631  0.1430  0.5681
13046SOL    HW239824   2.874   4.929   6.235 -0.1434 -0.4160  0.8925
13047SOL     OW39825   3.805   7.565   5.035  0.4842  0.1881  0.2689
13047SOL    HW139826   3.880   7.556   4.975  0.8406 -1.6082  0.9225
13047SOL    HW239827   3.729   7.546   4.980  0.4949  1.7361 -0.3311
13048SOL     OW39828   3.553   2.884   5.503 -0.1420  0.0871  0.1097
13048SOL    HW139829   3.575   2.946   5.572  1.2015 -1.2368  0.9281
13048SOL    HW239830   3.584   2.926   5.423 -0.0081  0.8219  0.5374
13049SOL     OW39831   2.862   1.083   7.391  0.8320  0.0165  0.0359
13049SOL    HW139832   2.868   1.052   7.481  0.1615 -1.3043 -0.3478
13049SOL    HW239833   2.819   1.012   7.344  0.7243  0.8887 -1.2336
13050SOL     OW39834   2.407   7.481   3.941 -0.2010 -0.4064  0.2542
13050SOL    HW139835   2.438   7.558   3.894 -0.3369 -1.2949 -1.3602
13050SOL    HW239836   2.326   7.456   3.896  0.3972 -2.1053  0.0653
13051SOL     OW39837   2.647   4.730   6.218 -0.0649  0.0676  0.0463
13051SOL    HW139838   2.703   4.673   6.272  2.0480 -1.5594 -3.5318
13051SOL    HW239839   2.565   4.682   6.209  0.1601 -0.4064  0.4659
13052SOL     OW39840   2.703   6.804   7.404 -0.2907 -0.2483  0.4575
13052SOL    HW139841   2.690   6.837   7.493  0.4275 -0.5540  0.6822
13052SOL    HW239842   2.736   6.879   7.356 -1.7091  0.2119  0.1741
13053SOL     OW39843   5.248   0.850   1.905 -0.5150 -0.0600 -0.5620
13053SOL    HW139844   5.314   0.894   1.851  0.8700 -0.2318  0.9069
13053SOL    HW239845   5.223   0.773   1.855 -0.3833  0.5576 -1.6089
13054SOL     OW39846   6.286   0.747   6.587 -0.0130 -0.0703 -0.3429
13054SOL    HW139847   6.372   0.768   6.623  0.8032  1.1105 -2.8095
13054SOL    HW239848   6.241   0.703   6.659  1.6688  1.6364  1.9116
13055SOL     OW39849   2.490   3.823   6.735 -0.1954 -0.1933  0.1744
13055SOL    HW139850   2.521   3.913   6.723 -1.1939  0.3087  1.1744
13055SOL    HW239851   2.394   3.830   6.735 -0.2932 -1.3017 -0.0126
13056SOL     OW39852   0.673   7.300   4.854 -0.1262 -0.2582  0.1027
13056SOL    HW139853   0.692   7.385   4.894 -2.3369  0.2079  0.3013
13056SOL    HW239854   0.758   7.267   4.826  0.7296  2.3392 -0.6236
13057SOL     OW39855   6.356   3.557   4.892  0.5693  0.5767  0.8866
13057SOL    HW139856   6.267   3.590   4.878  0.6458 -0.1115 -1.7650
13057SOL    HW239857   6.408   3.634   4.914  0.0091  1.6719 -1.3530
13058SOL     OW39858   0.054   0.204   2.361  0.2436 -0.6458 -0.4144
13058SOL    HW139859   0.019   0.238   2.278 -1.1934  0.9823  0.7959
13058SOL    HW239860   0.147   0.226   2.358 -0.0490  0.6146 -1.0429
13059SOL     OW39861   3.637   5.411   5.617 -0.1382  0.0444  0.1119
13059SOL    HW139862   3.629   5.368   5.532 -1.2263  1.3316 -0.4744
13059SOL    HW239863   3.579   5.360   5.675 -2.2825  1.2684 -0.8370
13060SOL     OW39864   1.595   1.375   6.575  0.2137  0.2801 -0.0232
13060SOL    HW139865   1.618   1.363   6.483  0.9522 -0.2447  0.2217
13060SOL    HW239866   1.540   1.299   6.596 -0.5193  0.7463 -0.1992
13061SOL     OW39867   0.326   2.744   3.446  0.1444 -0.3200  0.4766
13061SOL    HW139868   0.418   2.765   3.461  0.0227 -0.1926  1.0643
13061SOL    HW239869   0.285   2.829   3.429  0.1719 -0.4004 -0.0226
13062SOL     OW39870   3.392   7.049   6.756 -0.8952  0.0150 -0.4088
13062SOL    HW139871   3.412   7.133   6.714  0.4411  0.0820  0.2979
13062SOL    HW239872   3.456   6.989   6.719 -0.6951 -0.2735  0.3972
13063SOL     OW39873   0.634   5.032   0.154  0.2650  0.1502 -0.0629
13063SOL    HW139874   0.601   5.084   0.227 -0.8453 -1.5637  0.7309
13063SOL    HW239875   0.693   5.091   0.108 -0.3837  1.8702  1.1653
13064SOL     OW39876   2.950   0.949   1.435  0.0439  0.6188 -0.5797
13064SOL    HW139877   3.004   0.978   1.361  3.2200 -2.0349  0.4467
13064SOL    HW239878   2.983   0.998   1.510  0.6691 -0.5625 -0.0513
13065SOL     OW39879   4.888   5.295   6.803 -0.1239  0.1731 -0.4246
13065SOL    HW139880   4.838   5.350   6.864  1.5398  1.4767 -0.1502
13065SOL    HW239881   4.862   5.324   6.716 -1.6499 -0.8978 -0.3658
13066SOL     OW39882   1.296   3.861   2.566 -0.5156 -0.1506 -0.1365
13066SOL    HW139883   1.293   3.912   2.647  0.5109 -0.4179  0.0821
13066SOL    HW239884   1.204   3.839   2.548 -0.6715 -1.0324  1.5500
13067SOL     OW39885   5.584   2.544   4.289  0.0072 -0.2611  0.2787
13067SOL    HW139886   5.490   2.529   4.279 -0.0813  0.1223  0.5200
13067SOL    HW239887   5.624   2.464   4.255 -0.3643 -0.0169 -0.7884
13068SOL     OW39888   6.897   1.001   3.891  0.5462  0.0366  0.2999
13068SOL    HW139889   6.926   1.074   3.945  1.0233 -0.2987  0.5015
13068SOL    HW239890   6.961   0.932   3.907  0.7999 -0.0120 -0.8117
13069SOL     OW39891   2.701   7.549   3.834 -0.3549 -0.3993 -0.2634
13069SOL    HW139892   2.773   7.552   3.771  0.8183 -0.4801  1.0443
13069SOL    HW239893   2.672   7.457   3.832  0.0811 -0.5372 -0.2348
13070SOL     OW39894   1.660   4.070   6.317 -0.6740 -0.2709  0.3340
13070SOL    HW139895   1.596   4.111   6.259 -1.0559  0.1362  1.0203
13070SOL    HW239896   1.714   4.016   6.260 -0.2858  1.0323 -0.5901
13071SOL     OW39897   6.952   5.039   1.853  0.9350  0.1310 -0.3931
13071SOL    HW139898   6.865   5.077   1.839  0.1842 -1.1139  0.6677
13071SOL    HW239899   6.972   4.995   1.770 -0.6115 -1.7309  0.1361
13072SOL     OW39900   3.394   2.840   2.247  0.4018  0.0476  0.1609
13072SOL    HW139901   3.355   2.856   2.161 -1.3770  1.7625  1.1917
13072SOL    HW239902   3.428   2.926   2.274 -0.3512 -0.1040  1.7190
13073SOL     OW39903   0.829   2.103   4.145  0.4098 -0.1514 -0.5389
13073SOL    HW139904   0.905   2.082   4.091  1.6510  0.4743  0.8734
13073SOL    HW239905   0.852   2.187   4.186 -1.5877  0.6742 -1.0116
13074SOL     OW39906   2.264   0.351   2.336  0.1915 -0.2519 -0.2047
13074SOL    HW139907   2.287   0.443   2.319  1.1968  0.0066  2.2199
13074SOL    HW239908   2.344   0.303   2.313 -0.0494 -0.4515 -0.6474
13075SOL     OW39909   3.006   6.121   2.887 -0.4111 -0.5411  0.4441
13075SOL    HW139910   3.029   6.154   2.800 -0.9399 -2.5421 -0.5050
13075SOL    HW239911   3.076   6.061   2.910 -0.9805 -1.0918  0.7734
13076SOL     OW39912   3.397   3.823   2.265  0.3247  0.6999  0.0688
13076SOL    HW139913   3.463   3.887   2.237  1.3777  0.0741  1.0145
13076SOL    HW239914   3.447   3.759   2.316 -0.8261 -0.4821 -0.2514
13077SOL     OW39915   6.885   5.512   2.562 -0.0748  0.4629  0.3692
13077SOL    HW139916   6.980   5.510   2.549 -0.0161  0.6464  0.7492
13077SOL    HW239917   6.872   5.473   2.648 -0.5136 -1.4811 -0.5308
13078SOL     OW39918   4.292   3.807   1.709  0.0617  0.3182 -0.2540
13078SOL    HW139919   4.288   3.859   1.790  1.6142  0.9755 -0.5578
13078SOL    HW239920   4.228   3.849   1.651  0.2049  0.9583  0.0354
13079SOL     OW39921   1.676   0.174   0.291  0.0177 -0.0074 -0.1880
13079SOL    HW139922   1.672   0.135   0.203  1.7350 -1.5629  0.3656
13079SOL    HW239923   1.656   0.102   0.350 -2.2091  1.2686  0.7249
13080SOL     OW39924   5.575   7.487   2.962 -0.1467  0.0208 -0.0595
13080SOL    HW139925   5.644   7.432   3.000  0.5587  2.5637  2.7121
13080SOL    HW239926   5.611   7.514   2.877  1.6371  0.1125  0.6778
13081SOL     OW39927   6.260   0.404   6.327 -0.4777  0.8322 -0.5074
13081SOL    HW139928   6.221   0.431   6.410 -1.7988  1.7531 -1.3961
13081SOL    HW239929   6.351   0.434   6.332 -0.3124  0.1934  0.8981
13082SOL     OW39930   3.179   0.746   6.871 -0.3136  0.3099 -0.6181
13082SOL    HW139931   3.111   0.759   6.938 -0.0734  0.2621 -0.3629
13082SOL    HW239932   3.230   0.672   6.903  0.9214  1.4289  0.0719
13083SOL     OW39933   1.465   5.263   4.547  0.5393  0.1647  0.5189
13083SOL    HW139934   1.432   5.190   4.495  0.2332 -0.3773  1.4438
13083SOL    HW239935   1.532   5.304   4.492 -0.8709  0.5944 -0.9344
13084SOL     OW39936   7.119   6.565   6.916 -0.1197  0.4202 -0.0838
13084SOL    HW139937   7.166   6.621   6.854  0.6757  0.4684  0.5522
13084SOL    HW239938   7.068   6.506   6.860  0.2154  0.7691 -0.7796
13085SOL     OW39939   6.894   7.723   2.088 -0.2537 -0.4275  0.3302
13085SOL    HW139940   6.918   7.785   2.157  1.7433 -0.7493  0.0025
13085SOL    HW239941   6.854   7.776   2.020 -0.6405  0.1581  1.0112
13086SOL     OW39942   4.765   4.595   1.111  0.1474 -0.0786  0.5121
13086SOL    HW139943   4.858   4.613   1.102 -0.1279  0.9502 -0.6231
13086SOL    HW239944   4.724   4.681   1.117 -0.8688 -0.4148 -0.9110
13087SOL     OW39945   0.804   7.228   6.050 -0.1416 -1.1421  0.1605
13087SOL    HW139946   0.893   7.195   6.042  1.7068  3.5446 -1.5303
13087SOL    HW239947   0.790   7.236   6.145  1.2350 -1.8645  0.4421
13088SOL     OW39948   0.901   2.212   0.007 -0.2023 -0.0798 -0.5491
13088SOL    HW139949   0.928   2.212   0.099  0.1793  0.7437 -0.6497
13088SOL    HW239950   0.807   2.229   0.010  0.2497  3.1286 -0.3613
13089SOL     OW39951   1.787   6.673   3.513 -0.0008 -0.1789 -0.2107
13089SOL    HW139952   1.731   6.750   3.499  1.1082  0.7050  0.0053
13089SOL    HW239953   1.734   6.599   3.484 -0.4761  0.8286 -2.0925
13090SOL     OW39954   0.880   7.556   2.230  0.1038 -0.0483 -0.9637
13090SOL    HW139955   0.840   7.519   2.152  1.1270 -1.5066 -0.8318
13090SOL    HW239956   0.871   7.488   2.296  2.1094 -0.1340 -0.7190
13091SOL     OW39957   0.194   1.783   5.248  0.0994  0.3787 -0.1503
13091SOL    HW139958   0.206   1.794   5.153  0.9497  0.0318 -0.0940
13091SOL    HW239959   0.276   1.815   5.286  0.1294 -0.3273  0.4062
13092SOL     OW39960   0.551   5.885   0.054 -0.1051  0.2221  0.0647
13092SOL    HW139961   0.581   5.959   0.001  0.0875 -1.0485 -1.6842
13092SOL    HW239962   0.631   5.836   0.075 -0.4578 -0.8172 -0.9233
13093SOL     OW39963   3.180   4.079   7.718 -0.1451  0.0193 -0.0955
13093SOL    HW139964   3.121   4.153   7.730 -0.3327 -0.4314  2.3206
13093SOL    HW239965   3.132   4.018   7.663 -0.7678  0.8593 -0.4998
13094SOL     OW39966   0.074   1.165   1.024  0.2752 -0.7836 -0.0817
13094SOL    HW139967   0.151   1.139   0.972 -0.1621 -3.5826  0.5184
13094SOL    HW239968   0.083   1.260   1.034  3.3358 -0.9231 -0.5477
13095SOL     OW39969   3.135   6.504   5.001 -0.3394 -0.0821  0.3958
13095SOL    HW139970   3.189   6.564   4.950  0.3363 -0.7415  0.3138
13095SOL    HW239971   3.050   6.506   4.958  0.4976 -1.4327 -1.4484
13096SOL     OW39972   5.794   2.616   4.831 -0.3393 -0.6517 -0.3079
13096SOL    HW139973   5.777   2.705   4.801 -0.6543 -1.2669 -2.0790
13096SOL    HW239974   5.843   2.627   4.912  1.3997  1.1371 -1.5148
13097SOL     OW39975   1.909   2.722   7.366 -0.2260 -0.1872  0.0307
13097SOL    HW139976   1.938   2.759   7.449  0.0985 -1.4812  0.5282
13097SOL    HW239977   1.838   2.663   7.389  0.2112 -0.9609 -0.5257
13098SOL     OW39978   3.510   5.595   6.079 -0.3661 -0.5508  0.1395
13098SOL    HW139979   3.589   5.543   6.062 -0.3494 -0.3852 -0.2938
13098SOL    HW239980   3.482   5.626   5.993 -0.2518  0.3343  0.4041
13099SOL     OW39981   7.504   0.678   3.171  0.3529  0.3062  0.5374
13099SOL    HW139982   7.496   0.628   3.252 -1.7377  0.3699  0.4097
13099SOL    HW239983   7.593   0.659   3.140  0.8489 -0.4834  2.3184
13100SOL     OW39984   3.122   3.883   3.596 -0.0483  0.0449 -0.2973
13100SOL    HW139985   3.213   3.866   3.618 -0.1104  1.5372  1.2965
13100SOL    HW239986   3.117   3.868   3.501  1.6075 -0.9725 -0.2535
13101SOL     OW39987   3.914   2.237   1.402 -0.3576  0.3483  0.2203
13101SOL    HW139988   3.932   2.147   1.427 -0.4492  0.4139  0.5243
13101SOL    HW239989   3.820   2.247   1.410 -0.3941  0.3578 -0.1987
13102SOL     OW39990   0.811   6.446   6.391 -0.3783  0.2316  0.0560
13102SOL    HW139991   0.889   6.430   6.445 -0.2328 -2.1698 -0.7629
13102SOL    HW239992   0.795   6.363   6.347 -2.1576  1.3156 -1.4639
13103SOL     OW39993   4.713   1.911   6.553 -0.0279 -0.3443  0.3646
13103SOL    HW139994   4.714   1.920   6.648  2.5130 -2.7838  0.6846
13103SOL    HW239995   4.747   1.994   6.521 -0.3308  0.2851  1.5918
13104SOL     OW39996   0.192   1.094   1.475  0.2877  0.3701 -0.2869
13104SOL    HW139997   0.182   1.008   1.516  0.6452  2.0166  3.7227
13104SOL    HW239998   0.278   1.091   1.433 -0.1393 -1.4757 -1.1398
13105SOL     OW39999   2.122   0.107   0.861  0.3393 -0.4351  0.0331
13105SOL    HW140000   2.201   0.121   0.809  0.3721 -0.8057 -0.0194
13105SOL    HW240001   2.144   0.143   0.947  0.9556 -1.4826  0.3395
13106SOL     OW40002   7.193   6.231   3.442  0.2837 -0.1850 -0.6527
13106SOL    HW140003   7.210   6.282   3.521  2.9699 -0.8413 -0.7343
13106SOL    HW240004   7.171   6.144   3.474  0.8269 -0.3061 -0.5988
13107SOL     OW40005   5.218   2.486   7.001  0.7724  0.3837  0.4565
13107SOL    HW140006   5.240   2.578   6.984 -2.8662  1.3644  0.2201
13107SOL    HW240007   5.201   2.450   6.914 -0.2040  0.2082  0.7156
13108SOL     OW40008   3.766   5.500   4.666 -0.6130 -0.2101 -0.5737
13108SOL    HW140009   3.817   5.512   4.586 -1.4081  0.3767 -1.0180
13108SOL    HW240010   3.721   5.584   4.678 -1.6088 -0.7678 -0.3138
13109SOL     OW40011   3.090   6.528   0.361  0.1507 -0.4895 -0.2028
13109SOL    HW140012   3.086   6.593   0.432  1.3422  0.5137 -1.0167
13109SOL    HW240013   3.135   6.453   0.399  0.9839  0.1273  0.0522
13110SOL     OW40014   3.723   3.719   6.520  0.3801  0.0857  0.4132
13110SOL    HW140015   3.803   3.668   6.508 -0.4472 -1.2624  0.3579
13110SOL    HW240016   3.657   3.653   6.541 -0.5987  1.2282  0.9967
13111SOL     OW40017   7.508   5.856   2.892  0.0048 -0.2214  0.3187
13111SOL    HW140018   7.571   5.866   2.964 -0.5452 -0.1634  0.7960
13111SOL    HW240019   7.498   5.944   2.857  1.1383 -0.4243 -0.5835
13112SOL     OW40020   0.788   3.848   0.798 -0.0786 -0.3505 -0.2412
13112SOL    HW140021   0.790   3.786   0.871 -0.1917 -1.9085 -1.4914
13112SOL    HW240022   0.765   3.794   0.722 -1.6984  1.5085 -1.1589
13113SOL     OW40023   2.663   4.529   5.833  0.0474 -0.4116 -0.0504
13113SOL    HW140024   2.587   4.566   5.788  0.4799 -0.1987 -0.6342
13113SOL    HW240025   2.664   4.437   5.807  0.6146 -0.1680 -0.9692
13114SOL     OW40026   5.795   2.862   2.531  0.2435 -0.6421  0.2653
13114SOL    HW140027   5.707   2.897   2.545  0.6582  0.8826 -0.6733
13114SOL    HW240028   5.801   2.847   2.437  1.5758  1.0316  0.0395
13115SOL     OW40029   7.515   4.287   3.664 -0.0895  0.7507 -0.0828
13115SOL    HW140030   7.464   4.356   3.707 -2.1881 -0.7256 -0.0007
13115SOL    HW240031   7.449   4.235   3.617  1.2077 -1.8809  0.8205
13116SOL     OW40032   3.701   7.525   2.964 -0.8366 -0.0683 -0.5936
13116SOL    HW140033   3.702   7.439   2.922 -0.3425 -1.1018  1.4110
13116SOL    HW240034   3.608   7.539   2.986 -0.8359 -0.4055 -0.3563
13117SOL     OW40035   6.177   1.310   4.286  0.2822 -0.2314  0.2610
13117SOL    HW140036   6.100   1.363   4.262  0.7410  0.4066  0.1660
13117SOL    HW240037   6.140   1.227   4.316 -0.4480  0.0756  0.2476
13118SOL     OW40038   0.465   1.277   1.622  0.1427 -0.0271  0.3336
13118SOL    HW140039   0.529   1.210   1.644  0.1086  0.0308  0.6239
13118SOL    HW240040   0.432   1.253   1.536 -0.0529 -0.5219  0.5457
13119SOL     OW40041   6.304   0.214   0.705  0.2065  0.2927 -0.5162
13119SOL    HW140042   6.344   0.166   0.778 -2.3410 -2.2786 -0.6269
13119SOL    HW240043   6.340   0.173   0.627 -2.3784 -2.1179 -0.6187
13120SOL     OW40044   4.259   5.640   1.301 -0.5175  0.0394 -0.2362
13120SOL    HW140045   4.185   5.657   1.243 -0.5172  0.8875 -0.0129
13120SOL    HW240046   4.300   5.726   1.311 -0.1611 -0.2179  0.5323
13121SOL     OW40047   1.913   2.278   1.581  0.1712  0.0123 -0.5944
13121SOL    HW140048   1.990   2.295   1.636  1.4896 -0.3324 -2.2513
13121SOL    HW240049   1.879   2.365   1.560  2.1942  0.4096 -2.6104
13122SOL     OW40050   3.763   7.739   4.007 -0.2516  0.3268  0.6465
13122SOL    HW140051   3.842   7.687   4.023  1.8646  3.4751  1.4938
13122SOL    HW240052   3.758   7.745   3.912  0.2334 -0.3286  0.5718
13123SOL     OW40053   2.185   2.927   5.461  0.1278 -0.5324 -0.1146
13123SOL    HW140054   2.237   2.930   5.381  2.8265 -0.5770  1.5145
13123SOL    HW240055   2.187   2.835   5.487 -0.8072 -0.5347 -0.0433
13124SOL     OW40056   1.126   2.452   7.474 -0.0700 -0.1619 -0.6565
13124SOL    HW140057   1.105   2.359   7.488  0.3253 -0.1804 -0.1757
13124SOL    HW240058   1.041   2.495   7.467 -0.2915 -0.2674  1.0699
13125SOL     OW40059   5.018   1.035   1.257 -0.3109 -0.3899  0.6338
13125SOL    HW140060   5.086   1.102   1.253 -0.1135 -0.5397  1.3251
13125SOL    HW240061   5.065   0.952   1.249 -0.5745 -0.4486 -0.4211
13126SOL     OW40062   5.203   4.596   2.116  0.4063  0.0728  0.4537
13126SOL    HW140063   5.175   4.686   2.132  0.5598  0.2430 -0.2312
13126SOL    HW240064   5.283   4.604   2.064 -0.5581 -0.4781 -1.1684
13127SOL     OW40065   7.028   1.586   3.523 -0.0490 -0.3241  0.1356
13127SOL    HW140066   7.103   1.593   3.582  0.2255 -1.7301 -0.0260
13127SOL    HW240067   7.035   1.499   3.485 -1.8788 -0.5730  0.2734
13128SOL     OW40068   7.534   4.330   7.703  0.4340 -0.2444 -0.1881
13128SOL    HW140069   7.519   4.280   7.622  1.5966 -0.4694 -0.2820
13128SOL    HW240070   7.608   4.387   7.682 -0.3310  0.9151  0.1997
13129SOL     OW40071   4.792   4.658   4.625  0.1340 -0.3009 -0.1578
13129SOL    HW140072   4.702   4.647   4.656  0.2212 -0.3804  0.0672
13129SOL    HW240073   4.797   4.602   4.547 -0.4430  0.8339 -1.0384
13130SOL     OW40074   6.717   6.747   3.663 -0.1864  0.3292 -0.1972
13130SOL    HW140075   6.777   6.717   3.594  0.0951  0.8981 -0.2004
13130SOL    HW240076   6.645   6.683   3.660  0.0601  0.0613 -0.6839
13131SOL     OW40077   1.541   7.652   1.424  0.3282 -0.4685  0.0393
13131SOL    HW140078   1.622   7.602   1.410  1.5770  1.4664  0.0139
13131SOL    HW240079   1.569   7.729   1.474 -1.3054  0.8228 -0.9655
13132SOL     OW40080   2.269   5.625   6.654 -0.1662 -0.0244  0.8147
13132SOL    HW140081   2.341   5.687   6.639 -1.6206  1.5029 -0.2625
13132SOL    HW240082   2.257   5.582   6.569  0.2329 -1.1526  1.3150
13133SOL     OW40083   2.873   2.118   4.959 -1.0644 -0.2414  0.0178
13133SOL    HW140084   2.800   2.150   5.013  0.1589 -1.9520  2.9734
13133SOL    HW240085   2.948   2.169   4.989 -0.6011 -0.1926 -1.2084
13134SOL     OW40086   7.759   4.585   0.360 -0.3720 -0.3209 -0.3890
13134SOL    HW140087   7.759   4.588   0.456  1.7557  1.3672 -0.3498
13134SOL    HW240088   7.685   4.529   0.337 -0.5276 -1.3214  2.2443
13135SOL     OW40089   3.931   1.039   5.317 -0.3669 -0.6961  0.2153
13135SOL    HW140090   4.017   1.022   5.353  0.4644 -0.4954 -1.5563
13135SOL    HW240091   3.879   1.070   5.391  1.9504  2.2012  0.8072
13136SOL     OW40092   6.975   0.356   1.930  0.1186 -0.0358  0.2917
13136SOL    HW140093   7.056   0.373   1.978  0.6912 -0.5818 -0.4511
13136SOL    HW240094   6.996   0.378   1.839 -1.1000  1.4648  0.3422
13137SOL     OW40095   0.670   1.317   0.586  0.2362  0.1101  0.0308
13137SOL    HW140096   0.657   1.222   0.580 -0.3474 -0.1023  2.9014
13137SOL    HW240097   0.762   1.330   0.564  0.4572 -1.2138  0.0643
13138SOL     OW40098   0.729   5.073   1.450  0.2375 -0.3524  0.0519
13138SOL    HW140099   0.653   5.132   1.451  0.8041  0.3993 -0.2055
13138SOL    HW240100   0.719   5.020   1.529  0.2633  0.8133  0.8624
13139SOL     OW40101   7.513   4.856   7.679 -0.7918 -0.0745  0.0866
13139SOL    HW140102   7.546   4.795   7.613  0.0216  1.8839 -1.4256
13139SOL    HW240103   7.559   4.832   7.759  0.6226 -0.5193 -0.8269
13140SOL     OW40104   5.519   6.471   0.554  0.5449 -0.4426 -0.3487
13140SOL    HW140105   5.614   6.470   0.542  0.6492  0.2023  0.3560
13140SOL    HW240106   5.486   6.410   0.487  1.1260  2.3074 -3.3786
13141SOL     OW40107   4.437   4.280   6.045 -0.2763 -0.1287 -0.8436
13141SOL    HW140108   4.413   4.309   6.132 -1.0494 -0.2377 -1.0157
13141SOL    HW240109   4.382   4.331   5.986 -1.1352 -1.3970 -1.1763
13142SOL     OW40110   3.266   4.451   3.224  0.2005  0.2112 -0.4376
13142SOL    HW140111   3.307   4.534   3.201 -0.6784  1.0461  0.8958
13142SOL    HW240112   3.189   4.476   3.275  0.3543 -1.4472  0.6650
13143SOL     OW40113   4.299   7.241   5.957 -0.0746  0.0791 -0.9094
13143SOL    HW140114   4.247   7.163   5.975 -3.3487  1.5098 -3.1551
13143SOL    HW240115   4.243   7.314   5.985  2.3587  1.7147  0.0101
13144SOL     OW40116   2.080   5.222   7.055  0.5590 -0.3389  0.2091
13144SOL    HW140117   2.144   5.203   7.123  0.5732  1.1926  0.6523
13144SOL    HW240118   2.130   5.267   6.987  0.1270  0.0727  0.1611
13145SOL     OW40119   1.472   3.030   0.087  0.4533 -0.8764 -0.3558
13145SOL    HW140120   1.503   2.986   0.166  0.0594  0.8311  0.8037
13145SOL    HW240121   1.386   2.991   0.069 -0.1030 -0.2982  0.9275
13146SOL     OW40122   5.719   4.975   7.143 -0.3204 -0.5371  0.0185
13146SOL    HW140123   5.766   4.941   7.067 -1.8177  0.3751 -1.3801
13146SOL    HW240124   5.644   4.916   7.153 -1.1758  0.4421 -0.4309
13147SOL     OW40125   1.835   6.997   7.214 -0.1862 -0.2208 -0.4820
13147SOL    HW140126   1.892   7.052   7.268 -0.6267  0.1065 -0.3420
13147SOL    HW240127   1.754   6.991   7.264 -0.2883 -0.6529 -0.6972
13148SOL     OW40128   0.922   5.157   5.591 -0.0043  0.7134  0.5607
13148SOL    HW140129   1.017   5.150   5.602 -0.2118 -1.0841  1.5865
13148SOL    HW240130   0.911   5.201   5.507  1.7466 -0.5903 -0.4330
13149SOL     OW40131   7.588   0.598   7.368 -0.8335  0.1571  0.1134
13149SOL    HW140132   7.604   0.585   7.274 -1.7888  1.2832 -0.2361
13149SOL    HW240133   7.532   0.676   7.371  0.2740  0.9369  1.6992
13150SOL     OW40134   0.909   1.624   6.249 -0.1946 -0.3564  0.5535
13150SOL    HW140135   0.971   1.647   6.180 -0.3163 -1.6465 -0.0111
13150SOL    HW240136   0.830   1.597   6.203 -0.4106 -0.8634  1.1979
13151SOL     OW40137   2.453   2.419   3.861 -0.2039  0.4689 -0.2884
13151SOL    HW140138   2.495   2.337   3.833  0.3612  0.9192 -0.7943
13151SOL    HW240139   2.361   2.409   3.837  0.0768  0.4291 -1.3956
13152SOL     OW40140   5.128   4.059   5.493  0.2990 -0.8484  0.4013
13152SOL    HW140141   5.115   4.005   5.571 -0.9811 -1.0954  0.0283
13152SOL    HW240142   5.142   4.148   5.527 -2.4515 -0.5263  0.8811
13153SOL     OW40143   5.953   3.100   4.696 -0.6856  0.6097  0.0893
13153SOL    HW140144   5.916   3.020   4.734  0.3971  0.3016  0.5210
13153SOL    HW240145   5.877   3.157   4.683 -1.1698  0.5320  2.2233
13154SOL     OW40146   3.483   5.392   3.364  0.3064  0.2291  0.4337
13154SOL    HW140147   3.452   5.380   3.274  1.2198 -0.9663  0.2532
13154SOL    HW240148   3.429   5.463   3.398 -3.0695 -2.0642  0.3458
13155SOL     OW40149   7.088   7.717   0.542 -0.1232 -0.7133 -0.1581
13155SOL    HW140150   7.105   7.625   0.560 -0.4312 -0.8521 -0.5614
13155SOL    HW240151   7.089   7.759   0.628  0.1373 -1.0714  0.0151
13156SOL     OW40152   4.227   0.530   6.715 -0.0547  0.2567 -0.0103
13156SOL    HW140153   4.225   0.450   6.662  0.8120  0.5750 -0.5425
13156SOL    HW240154   4.283   0.508   6.790 -0.1542  0.2366  0.0585
13157SOL     OW40155   5.456   7.591   5.838  0.7351  0.6313  0.1310
13157SOL    HW140156   5.517   7.517   5.840  1.4862  1.2175 -0.4336
13157SOL    HW240157   5.433   7.605   5.930  0.2988 -0.5195  0.2148
13158SOL     OW40158   1.337   1.129   3.601 -0.3660 -0.1565 -0.3397
13158SOL    HW140159   1.349   1.196   3.668  0.6424 -1.0303  0.3800
13158SOL    HW240160   1.269   1.072   3.636  0.1740 -0.6235 -0.0417
13159SOL     OW40161   5.420   7.004   4.642 -0.1116  0.0221 -0.2232
13159SOL    HW140162   5.418   6.959   4.558  0.4312 -0.4965  0.0315
13159SOL    HW240163   5.487   6.958   4.692 -0.2284  0.5060  0.3923
13160SOL     OW40164   2.076   4.687   1.637  0.2543  0.3372  0.1704
13160SOL    HW140165   2.057   4.779   1.621  2.5495  0.7561 -0.4324
13160SOL    HW240166   2.104   4.683   1.728  0.9199  0.3804 -0.0290
13161SOL     OW40167   6.822   1.338   6.008  0.1663 -0.5571  0.1509
13161SOL    HW140168   6.775   1.276   5.952  0.8098 -2.0477  1.2035
13161SOL    HW240169   6.753   1.390   6.049 -0.3374  0.2674 -1.6443
13162SOL     OW40170   1.845   1.331   1.315  0.0042 -0.1384 -0.1275
13162SOL    HW140171   1.767   1.374   1.349 -0.6781 -0.2090 -1.5114
13162SOL    HW240172   1.813   1.249   1.278  0.4812  0.4657 -1.9773
13163SOL     OW40173   7.388   7.705   4.549  0.2219 -0.2381  0.2135
13163SOL    HW140174   7.330   7.742   4.615 -1.4125 -3.4310  0.7335
13163SOL    HW240175   7.329   7.679   4.478  1.5941  0.3930 -1.2058
13164SOL     OW40176   1.644   2.666   3.515 -0.0571  0.1779 -0.6322
13164SOL    HW140177   1.604   2.602   3.456 -1.3689  0.2575  0.1332
13164SOL    HW240178   1.727   2.627   3.541  0.3006 -0.0917 -2.0949
13165SOL     OW40179   5.727   4.059   5.030  0.2037 -0.1529 -0.2205
13165SOL    HW140180   5.804   4.008   5.053  0.3374 -0.4227 -1.1928
13165SOL    HW240181   5.654   4.012   5.071  0.4027 -0.7338 -0.5234
13166SOL     OW40182   4.240   2.821   1.933 -0.2018  0.4843  0.2062
13166SOL    HW140183   4.280   2.905   1.913  0.0225 -0.0858 -2.0186
13166SOL    HW240184   4.159   2.843   1.979 -0.3916  1.9479 -0.7920
13167SOL     OW40185   5.351   2.219   6.479 -0.2617  0.3895  0.7001
13167SOL    HW140186   5.440   2.254   6.469 -0.7536  2.1796  2.0306
13167SOL    HW240187   5.363   2.137   6.527  0.9891 -1.8551 -3.0680
13168SOL     OW40188   6.185   2.570   2.353 -0.3149  0.3652 -0.6356
13168SOL    HW140189   6.103   2.590   2.399  0.4827  0.3697  0.8231
13168SOL    HW240190   6.214   2.487   2.391  0.0427  0.0309 -1.6030
13169SOL     OW40191   0.357   3.284   0.708  0.0902 -0.0297 -0.3062
13169SOL    HW140192   0.302   3.359   0.686 -0.1373 -0.2996 -0.6747
13169SOL    HW240193   0.406   3.311   0.785 -1.5097 -0.2352  0.8357
13170SOL     OW40194   1.500   5.153   6.605  0.1403  0.4963  0.1690
13170SOL    HW140195   1.417   5.113   6.629 -0.5468 -0.1808 -2.9633
13170SOL    HW240196   1.557   5.080   6.582  1.5654  0.9775  1.8687
13171SOL     OW40197   1.422   0.679   7.234 -0.0801 -0.2601 -0.3319
13171SOL    HW140198   1.447   0.676   7.326  1.6189 -2.3972 -0.7540
13171SOL    HW240199   1.425   0.772   7.211  0.0372  0.2634  1.6049
13172SOL     OW40200   2.450   3.251   7.149  0.5181  0.2124  0.2032
13172SOL    HW140201   2.417   3.320   7.207 -0.7073  0.2345 -0.5037
13172SOL    HW240202   2.539   3.280   7.127 -0.0431  1.6903 -0.2349
13173SOL     OW40203   2.581   2.491   1.847 -0.3141  0.2855 -0.0850
13173SOL    HW140204   2.604   2.582   1.866  1.9787 -0.8054  3.1268
13173SOL    HW240205   2.487   2.486   1.864 -0.2367  1.7894  0.9763
13174SOL     OW40206   1.653   6.551   6.408  0.6563 -0.0971  0.5136
13174SOL    HW140207   1.603   6.567   6.487 -0.8682 -0.3311 -0.3680
13174SOL    HW240208   1.742   6.582   6.429 -0.0646  1.2080  1.8086
13175SOL     OW40209   1.258   1.305   3.771 -0.3475  0.1172 -0.0829
13175SOL    HW140210   1.275   1.373   3.837 -1.1414 -0.8221  1.1359
13175SOL    HW240211   1.178   1.262   3.802 -0.5795 -0.5315 -1.5324
13176SOL     OW40212   0.642   3.228   5.576 -0.2008 -0.2883 -0.6797
13176SOL    HW140213   0.725   3.196   5.542 -0.1614 -1.3029  0.3287
13176SOL    HW240214   0.621   3.170   5.649 -1.2120  0.6756 -0.1644
13177SOL     OW40215   2.896   7.109   5.217  0.3079 -0.1466  0.0606
13177SOL    HW140216   2.934   7.138   5.300 -0.7885  0.1677  0.4663
13177SOL    HW240217   2.951   7.149   5.150  0.5676  0.4749  0.6306
13178SOL     OW40218   7.502   5.960   2.467  0.2012  0.4732 -0.4161
13178SOL    HW140219   7.480   5.984   2.557  0.4683  1.4003 -0.5857
13178SOL    HW240220   7.569   5.893   2.476  0.7441  1.0693  0.0826
13179SOL     OW40221   3.286   6.059   0.515  0.4913 -0.2211 -0.1333
13179SOL    HW140222   3.233   5.981   0.528 -0.2054  0.1494 -0.7096
13179SOL    HW240223   3.280   6.078   0.422 -0.6003  1.3796  0.2219
13180SOL     OW40224   3.708   0.399   1.389 -0.1763  0.2233  0.4555
13180SOL    HW140225   3.619   0.418   1.416 -0.0330  1.3004  0.2316
13180SOL    HW240226   3.750   0.485   1.383  0.1090 -0.0237 -2.0952
13181SOL     OW40227   4.934   4.268   4.156  0.1609 -0.1534 -0.0922
13181SOL    HW140228   4.843   4.239   4.149 -0.4184  1.2731  1.1145
13181SOL    HW240229   4.948   4.321   4.077 -0.0595 -0.3541 -0.2681
13182SOL     OW40230   1.150   5.992   0.305 -0.1580 -0.1120  0.6379
13182SOL    HW140231   1.225   6.032   0.260  1.2633 -0.8587  2.2224
13182SOL    HW240232   1.103   6.066   0.343 -0.5179  0.4038 -0.7804
13183SOL     OW40233   5.527   7.609   0.261  0.2593  0.2914  0.0269
13183SOL    HW140234   5.478   7.554   0.200 -0.8255  2.1545 -0.8698
13183SOL    HW240235   5.596   7.552   0.295 -0.5851 -1.4899 -1.1024
13184SOL     OW40236   2.757   5.543   1.279  0.6033  0.3036  0.4209
13184SOL    HW140237   2.742   5.637   1.278 -0.3786  0.1633 -0.0259
13184SOL    HW240238   2.743   5.517   1.370 -1.2685  0.3063  0.1763
13185SOL     OW40239   1.459   0.390   0.815  0.1906 -0.0177  0.1820
13185SOL    HW140240   1.424   0.306   0.847  3.0536 -1.5384 -0.3902
13185SOL    HW240241   1.537   0.406   0.867  0.4424  1.6494 -0.6310
13186SOL     OW40242   4.903   7.744   0.726  0.2228 -0.9701  0.4792
13186SOL    HW140243   4.864   7.656   0.728  0.3030 -1.0735 -0.9888
13186SOL    HW240244   4.953   7.745   0.644  0.3706  0.3826  0.5762
13187SOL     OW40245   7.255   7.041   4.365  0.0912 -0.0802  0.4473
13187SOL    HW140246   7.184   7.013   4.424  2.0823  0.5246  3.3236
13187SOL    HW240247   7.318   7.084   4.422  1.5186  1.9627 -2.4235
13188SOL     OW40248   0.021   6.891   0.230 -0.1248  0.1144 -0.4180
13188SOL    HW140249  -0.014   6.860   0.147  1.1157  1.0571 -1.3388
13188SOL    HW240250  -0.029   6.971   0.249  1.0083  1.0956 -1.3966
13189SOL     OW40251   5.965   2.685   5.025 -0.1791 -0.0593  0.2289
13189SOL    HW140252   6.055   2.678   4.992 -0.0971 -2.0197  0.7542
13189SOL    HW240253   5.965   2.634   5.106 -2.4612 -2.8420 -1.3374
13190SOL     OW40254   3.918   3.895   5.945  0.0522  0.2512 -0.0936
13190SOL    HW140255   3.880   3.888   5.858  0.5441  1.2323 -0.3987
13190SOL    HW240256   3.853   3.941   5.997  0.3832  1.0322 -0.3540
13191SOL     OW40257   0.892   2.682   1.459  0.3333 -0.1196 -0.1317
13191SOL    HW140258   0.844   2.697   1.541 -0.1817 -0.1633 -0.4185
13191SOL    HW240259   0.944   2.604   1.475  0.8497  0.3285  0.4223
13192SOL     OW40260   4.488   1.272   3.605  0.0268  0.0014 -0.7272
13192SOL    HW140261   4.570   1.293   3.649 -0.6703 -0.1000  0.6734
13192SOL    HW240262   4.471   1.181   3.629 -2.3624  1.0602  2.2300
13193SOL     OW40263   2.282   0.574   6.739  0.3149 -0.6962  0.0426
13193SOL    HW140264   2.366   0.599   6.778 -0.2399 -0.0119  0.8343
13193SOL    HW240265   2.240   0.521   6.807 -0.4649  0.1124  0.1999
13194SOL     OW40266   1.828   6.088   3.613 -0.3109 -0.6698 -0.1358
13194SOL    HW140267   1.806   6.030   3.686 -1.0600  0.1570  0.3109
13194SOL    HW240268   1.745   6.105   3.569 -0.2742  0.7919  0.3049
13195SOL     OW40269   7.689   5.015   1.498 -0.4171 -0.0022  0.0161
13195SOL    HW140270   7.729   5.087   1.449  0.5375  0.5173  1.4931
13195SOL    HW240271   7.597   5.040   1.507 -0.5991 -0.0761 -1.4037
13196SOL     OW40272   6.307   0.994   2.397 -0.7614 -0.3088  0.2526
13196SOL    HW140273   6.284   0.941   2.320 -0.1112  1.1929 -1.0129
13196SOL    HW240274   6.299   0.933   2.470 -1.8558 -1.6744 -0.9280
13197SOL     OW40275   4.507   2.408   5.007 -0.4230  0.0469 -0.3663
13197SOL    HW140276   4.521   2.387   5.099 -2.1111  1.0028  0.1566
13197SOL    HW240277   4.480   2.500   5.007 -0.6666  0.0074 -1.8061
13198SOL     OW40278   6.151   0.032   1.943 -0.3030 -0.2640  0.3207
13198SOL    HW140279   6.088  -0.013   1.888  0.4846  0.0913 -0.9075
13198SOL    HW240280   6.236   0.011   1.906  0.0859  2.9903 -0.9968
13199SOL     OW40281   2.133   2.998   5.973 -0.1352  0.5174 -0.3316
13199SOL    HW140282   2.206   3.058   5.961  0.4027  0.1444  0.9391
13199SOL    HW240283   2.062   3.052   6.008 -0.9822  1.1601 -2.8083
13200SOL     OW40284   5.892   4.298   6.309  0.1463 -0.2375 -0.3871
13200SOL    HW140285   5.824   4.352   6.268  0.0174  1.7575  2.1952
13200SOL    HW240286   5.845   4.241   6.369  0.5739 -0.6090 -0.3980
13201SOL     OW40287   0.457   3.001   0.360 -0.3836 -0.0273 -0.1768
13201SOL    HW140288   0.548   3.018   0.382 -0.5425  1.2695 -0.4249
13201SOL    HW240289   0.408   3.027   0.438 -0.5600 -0.6520 -0.0700
13202SOL     OW40290   5.435   5.200   6.524  0.1284 -0.4719 -0.2265
13202SOL    HW140291   5.399   5.191   6.613  0.8690 -2.1048 -0.0575
13202SOL    HW240292   5.512   5.256   6.535 -0.9050  1.0027 -0.1973
13203SOL     OW40293   1.141   5.543   1.905  0.0171  0.0073 -0.3212
13203SOL    HW140294   1.093   5.582   1.832 -0.7992 -0.7643 -0.2100
13203SOL    HW240295   1.225   5.588   1.905 -1.0081  2.0479  0.0359
13204SOL     OW40296   2.562   7.620   5.542 -0.0960  0.0663 -0.1376
13204SOL    HW140297   2.533   7.710   5.531 -1.2799 -0.3163 -0.2987
13204SOL    HW240298   2.631   7.625   5.609 -1.6922  0.8171  1.5199
13205SOL     OW40299   4.211   2.071   2.260  0.2195 -0.3985  0.3434
13205SOL    HW140300   4.160   2.136   2.212 -0.5848  0.0689  1.7339
13205SOL    HW240301   4.176   1.987   2.231 -1.6897 -0.0883  1.5009
13206SOL     OW40302   2.484   3.445   0.471 -0.1054 -0.3451 -0.0962
13206SOL    HW140303   2.496   3.510   0.401 -0.8977 -0.3186 -0.2244
13206SOL    HW240304   2.440   3.494   0.541  0.1534 -0.5158  0.1865
13207SOL     OW40305   3.054   1.233   1.960 -0.0585  0.5615  0.2564
13207SOL    HW140306   3.072   1.321   1.992  0.3993  0.3012  0.7383
13207SOL    HW240307   2.959   1.224   1.964 -0.1388  1.1758 -0.1886
13208SOL     OW40308   2.863   6.950   2.332  0.1837 -0.3096  0.3419
13208SOL    HW140309   2.825   7.022   2.281 -0.8841  0.2125  1.8173
13208SOL    HW240310   2.788   6.898   2.360  0.6093  0.1125  2.3849
13209SOL     OW40311   6.805   6.319   0.490  0.3789 -0.0581 -0.3603
13209SOL    HW140312   6.821   6.349   0.579  0.5731 -0.5469 -0.2254
13209SOL    HW240313   6.719   6.275   0.495  0.5642 -0.4216 -0.3244
13210SOL     OW40314   0.663   5.490   6.541  0.4193  0.3547 -0.4809
13210SOL    HW140315   0.574   5.519   6.560  0.2952  0.4680 -1.1805
13210SOL    HW240316   0.680   5.525   6.453  1.1979  0.4394 -0.2997
13211SOL     OW40317   6.550   5.152   5.307  0.2991  0.2928 -0.4694
13211SOL    HW140318   6.490   5.131   5.236  0.5126  0.0755 -0.5875
13211SOL    HW240319   6.498   5.139   5.387 -0.3307  1.7684 -0.6001
13212SOL     OW40320   5.179   7.075   7.577 -0.2130 -0.0685  0.0175
13212SOL    HW140321   5.174   7.093   7.671 -0.9132  1.3898 -0.2625
13212SOL    HW240322   5.127   7.145   7.537  0.2230 -0.5607 -1.4706
13213SOL     OW40323   4.942   4.302   4.531 -0.4204  0.1588  0.2851
13213SOL    HW140324   4.869   4.338   4.480 -0.2141  1.9642  1.1829
13213SOL    HW240325   5.017   4.356   4.507  0.3214 -0.7718  0.4472
13214SOL     OW40326   3.799   2.825   6.077 -0.3215  0.6887  0.6094
13214SOL    HW140327   3.759   2.899   6.123  1.1784  1.1022  1.3249
13214SOL    HW240328   3.796   2.753   6.141 -2.4720 -0.1461 -0.3504
13215SOL     OW40329   0.618   2.886   3.705  0.8132  0.1319 -0.4410
13215SOL    HW140330   0.529   2.904   3.673  1.1021  0.1899 -1.2298
13215SOL    HW240331   0.651   2.970   3.734  0.6483  0.1307 -0.2506
13216SOL     OW40332   1.054   5.835   6.692  0.6315  0.1144  0.4704
13216SOL    HW140333   0.975   5.886   6.679 -0.3293 -1.3970  0.1704
13216SOL    HW240334   1.115   5.868   6.625 -0.2335  0.3288 -0.2210
13217SOL     OW40335   7.288   7.235   3.448 -0.2070  0.0550 -0.0528
13217SOL    HW140336   7.359   7.201   3.504 -0.5383 -0.9871 -0.2514
13217SOL    HW240337   7.330   7.303   3.395  1.1229 -1.7854 -1.4756
13218SOL     OW40338   4.311   3.273   3.003  0.0585 -0.1232 -0.1686
13218SOL    HW140339   4.336   3.354   2.959 -0.4212  0.9207  1.3952
13218SOL    HW240340   4.390   3.244   3.048 -0.2743  0.6294  0.9485
13219SOL     OW40341   1.140   4.526   3.431  0.0424 -0.5276 -0.9852
13219SOL    HW140342   1.189   4.473   3.492 -1.1156  0.6831  1.1244
13219SOL    HW240343   1.091   4.463   3.377  0.7274 -1.6129 -0.3631
13220SOL     OW40344   6.351   2.644   1.868  0.6969  0.2526 -0.0038
13220SOL    HW140345   6.417   2.575   1.875 -0.3089 -0.7394  0.0778
13220SOL    HW240346   6.333   2.649   1.774  2.3236  1.9709 -0.2832
13221SOL     OW40347   0.133   3.405   3.126 -0.1878 -0.0350  0.3875
13221SOL    HW140348   0.129   3.493   3.163 -0.9902  0.6500 -1.2023
13221SOL    HW240349   0.079   3.410   3.047 -0.9621 -2.1928  0.7090
13222SOL     OW40350   4.789   0.212   1.087 -0.0535  0.1681 -0.2361
13222SOL    HW140351   4.766   0.304   1.103  0.4604  0.6491 -1.9886
13222SOL    HW240352   4.748   0.192   1.003 -2.4712 -2.1057  1.3400
13223SOL     OW40353   3.926   0.716   0.929  0.7800 -0.0693 -0.8029
13223SOL    HW140354   3.979   0.785   0.969 -0.4605  1.5143 -1.7402
13223SOL    HW240355   3.978   0.686   0.854  1.5993 -0.6189 -0.0323
13224SOL     OW40356   1.457   2.173   3.805  0.2177  0.4369 -0.1624
13224SOL    HW140357   1.513   2.234   3.757  1.0955  0.0506  0.3647
13224SOL    HW240358   1.409   2.229   3.866  0.5276  0.6853 -0.1433
13225SOL     OW40359   7.039   2.606   6.502 -0.3353 -0.7742 -0.1207
13225SOL    HW140360   7.017   2.667   6.572  0.1323  0.5384 -1.0613
13225SOL    HW240361   6.985   2.635   6.428 -0.7239 -2.0439 -0.3511
13226SOL     OW40362   3.928   3.207   4.811  0.1629 -0.3004 -0.1814
13226SOL    HW140363   3.856   3.202   4.747 -0.7952 -0.2152  0.8540
13226SOL    HW240364   4.000   3.161   4.769 -0.9288 -1.5977 -0.7288
13227SOL     OW40365   1.757   4.554   5.841 -0.0246 -0.1403  0.3365
13227SOL    HW140366   1.691   4.623   5.846  1.1418  0.9995  0.8131
13227SOL    HW240367   1.799   4.568   5.756  0.5301  0.0537  0.6369
13228SOL     OW40368   6.624   7.164   5.664 -0.3644 -0.3180  0.9472
13228SOL    HW140369   6.578   7.158   5.580  0.6172  1.2923  0.2448
13228SOL    HW240370   6.713   7.134   5.645  0.6273  2.4985  0.6806
13229SOL     OW40371   1.987   4.826   2.531 -0.1290  0.4856 -0.1118
13229SOL    HW140372   1.913   4.768   2.515  1.8275 -2.4299  0.5200
13229SOL    HW240373   1.968   4.867   2.615 -1.1207 -0.0253 -0.0764
13230SOL     OW40374   1.496   4.636   2.393 -0.6326 -0.0270  0.5691
13230SOL    HW140375   1.508   4.557   2.341  3.0947  0.2923  0.6702
13230SOL    HW240376   1.498   4.707   2.329 -2.4555  0.1203  0.6279
13231SOL     OW40377   7.051   5.253   5.413  0.0823  0.4175  0.2683
13231SOL    HW140378   7.000   5.317   5.463 -0.6378 -0.7453  1.0840
13231SOL    HW240379   7.023   5.265   5.322  1.1300  2.3055  0.1451
13232SOL     OW40380   0.891   5.300   5.367 -0.5967  0.0184  0.5177
13232SOL    HW140381   0.967   5.309   5.308  0.1662 -1.3647  1.2474
13232SOL    HW240382   0.815   5.314   5.310  0.1737  1.1435 -0.2920
13233SOL     OW40383   6.753   4.166   2.799  0.1263 -0.6312  0.0319
13233SOL    HW140384   6.802   4.087   2.820  0.7213 -0.2610  0.0772
13233SOL    HW240385   6.807   4.212   2.735  0.0094 -0.0540  0.3298
13234SOL     OW40386   6.770   1.290   4.056 -0.1627 -0.0489  0.3920
13234SOL    HW140387   6.741   1.249   3.975  1.2945 -1.4207  0.5055
13234SOL    HW240388   6.698   1.275   4.118 -0.6312 -0.3828 -0.2250
13235SOL     OW40389   1.371   0.803   0.272 -0.3307 -0.1356  0.3653
13235SOL    HW140390   1.451   0.779   0.224  0.3690  1.4320  0.7124
13235SOL    HW240391   1.387   0.772   0.361 -0.6777 -1.0005  0.1372
13236SOL     OW40392   6.909   7.665   0.336 -0.1744  0.2559 -0.6163
13236SOL    HW140393   6.944   7.702   0.417  0.7780  0.7491 -1.2220
13236SOL    HW240394   6.978   7.607   0.304 -0.8134 -0.4478 -0.7406
13237SOL     OW40395   0.597   4.246   3.149 -0.1813  0.1440  0.1464
13237SOL    HW140396   0.568   4.314   3.210  1.4926  1.2655 -0.2481
13237SOL    HW240397   0.685   4.221   3.180  0.2931  0.0379 -1.2322
13238SOL     OW40398   3.432   7.012   4.145 -0.2541  0.0842 -0.0403
13238SOL    HW140399   3.461   6.992   4.234 -1.6417 -0.4458  0.3186
13238SOL    HW240400   3.423   7.107   4.143 -0.3321  0.0841  0.4133
13239SOL     OW40401   7.033   5.136   1.291 -0.5470 -0.0381  0.3877
13239SOL    HW140402   6.951   5.122   1.245  0.1676  1.9367 -1.6754
13239SOL    HW240403   7.095   5.076   1.250 -0.4192  0.1559  0.2947
13240SOL     OW40404   7.125   0.328   4.919 -0.4221 -0.4160  0.3895
13240SOL    HW140405   7.040   0.307   4.879 -0.3085 -2.6474  1.1753
13240SOL    HW240406   7.175   0.370   4.850 -1.1131 -1.8814 -1.0696
13241SOL     OW40407   7.728   7.483   1.595  0.2484 -0.1266  0.3083
13241SOL    HW140408   7.703   7.391   1.584 -1.1004  0.1040  1.1430
13241SOL    HW240409   7.821   7.481   1.617  0.1916 -1.2963  0.4832
13242SOL     OW40410   0.414   4.588   4.813 -0.3591 -0.2038 -1.4266
13242SOL    HW140411   0.460   4.506   4.831  1.2719  0.4271 -2.5061
13242SOL    HW240412   0.334   4.561   4.766 -0.1439 -1.2095 -1.2328
13243SOL     OW40413   0.921   2.545   3.261 -0.0511  0.0199  0.3462
13243SOL    HW140414   0.963   2.530   3.176 -2.2560  0.3280 -0.8637
13243SOL    HW240415   0.830   2.520   3.248 -0.2390 -1.0291  2.9815
13244SOL     OW40416   6.149   4.026   1.407 -0.1788 -0.1639 -0.1246
13244SOL    HW140417   6.196   3.992   1.483 -1.3260 -1.6296 -0.0371
13244SOL    HW240418   6.082   4.084   1.443  0.0996  0.1679 -0.1243
13245SOL     OW40419   4.772   7.323   6.836  0.0377  0.8403 -0.0035
13245SOL    HW140420   4.681   7.347   6.820 -0.1788 -0.0186 -0.0823
13245SOL    HW240421   4.822   7.398   6.803 -0.5887  0.8731 -0.9248
13246SOL     OW40422   6.998   5.406   6.409 -0.6704  0.0323 -0.2930
13246SOL    HW140423   7.040   5.329   6.449  0.1369  0.2457 -0.6927
13246SOL    HW240424   7.014   5.477   6.472 -1.0568 -0.0421 -0.1134
13247SOL     OW40425   1.793   5.691   5.006 -0.1509 -0.8713  0.3781
13247SOL    HW140426   1.807   5.761   5.071  3.9503 -2.3238  1.3747
13247SOL    HW240427   1.724   5.637   5.043 -0.8623  0.6772  1.3977
13248SOL     OW40428   2.396   5.869   4.873  0.0861  0.4275 -0.2561
13248SOL    HW140429   2.317   5.822   4.846  0.1904  1.2715 -2.1640
13248SOL    HW240430   2.468   5.821   4.832  0.4304  0.6575  0.0688
13249SOL     OW40431   1.326   6.057   3.420 -0.6417  0.1735  0.2080
13249SOL    HW140432   1.296   6.121   3.356 -0.5494 -0.4193 -0.4411
13249SOL    HW240433   1.255   6.051   3.484 -0.0966  1.8953  1.0228
13250SOL     OW40434   0.478   1.991   6.686 -0.3364 -0.0067  0.1786
13250SOL    HW140435   0.527   1.996   6.604  0.3532 -0.4847  0.5455
13250SOL    HW240436   0.545   2.003   6.754 -1.0808  1.6395  0.6539
13251SOL     OW40437   3.942   0.745   2.794 -0.1350  0.6783 -0.3534
13251SOL    HW140438   3.932   0.831   2.834 -1.0225 -0.1583  1.3646
13251SOL    HW240439   3.997   0.696   2.856  1.9092  0.5115 -2.1898
13252SOL     OW40440   0.080   2.399   7.728  0.0866 -0.1578  0.5170
13252SOL    HW140441   0.058   2.316   7.770  0.9689 -0.6235  0.1009
13252SOL    HW240442   0.016   2.461   7.761 -0.1919 -0.8642  1.3279
13253SOL     OW40443   7.312   0.764   3.501 -0.2158  0.7895 -0.5664
13253SOL    HW140444   7.406   0.754   3.495 -0.0339  1.5351  0.5720
13253SOL    HW240445   7.282   0.684   3.543  0.2444  1.5493  1.3156
13254SOL     OW40446   3.085   3.717   1.615  0.1812 -0.1290 -0.1253
13254SOL    HW140447   3.060   3.725   1.707 -0.4877 -1.1173 -0.2146
13254SOL    HW240448   3.108   3.625   1.603 -2.7099 -0.7672 -1.6446
13255SOL     OW40449   7.041   3.239   5.598  0.1706 -0.3559  0.0535
13255SOL    HW140450   7.005   3.316   5.641  0.9686  0.0077  0.0949
13255SOL    HW240451   6.965   3.189   5.569 -0.3539  0.4232  0.0737
13256SOL     OW40452   4.597   1.371   3.115 -0.3026  0.0251 -0.2071
13256SOL    HW140453   4.504   1.359   3.098 -0.7529  3.1316 -0.6552
13256SOL    HW240454   4.616   1.460   3.083  2.7994 -0.4453 -0.0286
13257SOL     OW40455   4.154   1.301   6.731 -0.0528  0.5475 -0.2731
13257SOL    HW140456   4.070   1.285   6.687  0.3933 -1.5014 -0.4951
13257SOL    HW240457   4.219   1.257   6.676  1.2721  2.4707 -0.3342
13258SOL     OW40458   1.468   5.497   7.335  0.1311  0.1676  0.3010
13258SOL    HW140459   1.550   5.526   7.294 -0.1985  0.3333 -0.2611
13258SOL    HW240460   1.483   5.405   7.357 -0.2304 -0.4356 -1.7343
13259SOL     OW40461   3.324   6.630   5.203 -0.7795 -0.2673 -0.0796
13259SOL    HW140462   3.359   6.637   5.113 -1.0038  0.8092 -0.0901
13259SOL    HW240463   3.290   6.541   5.208  0.3365 -0.7578 -0.6631
13260SOL     OW40464   5.457   4.748   3.422  0.2053  1.1649  0.4355
13260SOL    HW140465   5.480   4.698   3.344 -1.5046  1.3068 -0.1980
13260SOL    HW240466   5.539   4.756   3.470  1.5006  1.8158 -1.7586
13261SOL     OW40467   3.893   3.142   0.041 -0.4806 -0.9531  0.1974
13261SOL    HW140468   3.856   3.148  -0.047 -1.0053 -0.4928  0.4403
13261SOL    HW240469   3.930   3.229   0.057 -1.6808 -0.5556  0.9764
13262SOL     OW40470   1.239   0.494   4.121  0.3958 -0.2268  1.1947
13262SOL    HW140471   1.163   0.531   4.078  1.5955  1.0868  0.1073
13262SOL    HW240472   1.221   0.400   4.126  0.3900 -0.5850 -2.7057
13263SOL     OW40473   1.079   2.465   3.009  0.1505 -0.4791 -0.1327
13263SOL    HW140474   1.081   2.392   2.947  0.7628  0.6742 -1.5409
13263SOL    HW240475   1.165   2.464   3.050  0.8021  0.4502 -1.4153
13264SOL     OW40476   1.989   0.232   0.238 -0.0199  0.1874  0.4810
13264SOL    HW140477   1.895   0.249   0.238  0.1685  1.6007 -1.3774
13264SOL    HW240478   1.997   0.138   0.256 -1.8132 -0.0878  0.0102
13265SOL     OW40479   6.855   2.386   6.288 -0.1384 -0.3681  0.4062
13265SOL    HW140480   6.917   2.327   6.246  0.6192 -0.0860  1.0812
13265SOL    HW240481   6.839   2.454   6.223  0.2846 -0.4354  0.2288
13266SOL     OW40482   2.144   7.724   5.667  0.3058  0.5533  0.4734
13266SOL    HW140483   2.190   7.688   5.592  1.0951  0.4179  1.0117
13266SOL    HW240484   2.077   7.659   5.687  0.5047  0.2875  0.2833
13267SOL     OW40485   7.582   4.355   0.460  0.8882  0.1625 -0.1092
13267SOL    HW140486   7.582   4.305   0.379  0.6415 -0.2566  0.1499
13267SOL    HW240487   7.640   4.306   0.519 -0.9395 -0.9642  0.8404
13268SOL     OW40488   2.325   2.977   7.450 -0.3032  0.6806  0.1154
13268SOL    HW140489   2.326   2.947   7.541 -1.1356  2.0004  0.5851
13268SOL    HW240490   2.327   2.896   7.398 -1.2190 -0.1514  1.3140
13269SOL     OW40491   1.404   2.523   0.572  0.2236 -0.0943  0.2891
13269SOL    HW140492   1.435   2.445   0.617 -1.7807  0.2045  2.3241
13269SOL    HW240493   1.481   2.579   0.566  1.3256 -1.5625  0.2022
13270SOL     OW40494   2.753   7.607   5.243 -0.0509  0.3481 -0.4463
13270SOL    HW140495   2.674   7.554   5.235 -0.5472  0.9154  0.5705
13270SOL    HW240496   2.796   7.575   5.322  0.1939  0.7534 -0.4122
13271SOL     OW40497   5.062   2.418   2.568  0.1485  0.1051 -0.2251
13271SOL    HW140498   5.005   2.473   2.623  0.0331 -0.8899  0.6899
13271SOL    HW240499   5.080   2.471   2.491 -0.3420  1.2384  0.4205
13272SOL     OW40500   3.440   3.181   5.354  0.2706  0.0815  0.1423
13272SOL    HW140501   3.362   3.215   5.311  1.0708 -0.4699 -1.8636
13272SOL    HW240502   3.512   3.234   5.319  1.0798 -1.1025 -0.0339
13273SOL     OW40503   0.716   6.733   2.337 -0.0325  0.3119 -0.1600
13273SOL    HW140504   0.783   6.672   2.369  0.6079  0.9095 -0.3172
13273SOL    HW240505   0.643   6.724   2.398  0.3597 -0.0473  0.2624
13274SOL     OW40506   0.340   5.869   2.788 -0.3344 -0.4559 -0.3692
13274SOL    HW140507   0.375   5.899   2.704 -0.8944  1.6823  0.0866
13274SOL    HW240508   0.400   5.800   2.816  1.3423  0.5303 -1.3631
13275SOL     OW40509   3.362   0.827   6.675  0.1256 -0.3339 -0.3289
13275SOL    HW140510   3.334   0.787   6.757  1.8328  0.3215  0.6423
13275SOL    HW240511   3.316   0.911   6.672 -2.7368 -1.8480 -1.9085
13276SOL     OW40512   3.583   6.984   3.825  0.0435 -0.8435 -0.3217
13276SOL    HW140513   3.628   7.051   3.774 -0.2802  0.0399  0.5224
13276SOL    HW240514   3.633   6.977   3.906 -2.3499  1.6993  1.5980
13277SOL     OW40515   2.992   1.325   0.048 -0.1708 -0.1021  0.5875
13277SOL    HW140516   3.085   1.316   0.027 -0.7665  0.0763 -2.7924
13277SOL    HW240517   2.971   1.416   0.026 -1.1409 -0.1569  1.2345
13278SOL     OW40518   1.727   6.575   0.216  0.3112 -0.0591  0.0447
13278SOL    HW140519   1.658   6.585   0.281  1.2646  0.7743  0.9718
13278SOL    HW240520   1.774   6.495   0.243  1.0133  0.5619  0.6962
13279SOL     OW40521   1.763   6.104   2.321 -0.2191  0.1737 -0.3428
13279SOL    HW140522   1.778   6.198   2.331 -1.4224  0.2136  1.5140
13279SOL    HW240523   1.839   6.063   2.363 -0.0391  0.3170 -0.5275
13280SOL     OW40524   3.121   1.342   5.925 -0.0421 -0.3300 -0.2531
13280SOL    HW140525   3.104   1.381   5.839 -1.8824 -0.4039  0.0204
13280SOL    HW240526   3.124   1.248   5.908 -1.5418 -0.4314 -0.1275
13281SOL     OW40527   0.689   4.715   2.351 -0.1607  0.3916  0.4510
13281SOL    HW140528   0.642   4.796   2.370 -1.5475  0.0487 -1.2661
13281SOL    HW240529   0.635   4.670   2.286  0.9595 -1.5549  0.7642
13282SOL     OW40530   2.073   7.495   4.801 -0.0788  0.2073  0.2390
13282SOL    HW140531   2.167   7.512   4.811  0.1124  0.1369 -1.2333
13282SOL    HW240532   2.041   7.570   4.750 -0.9095  0.4067  1.0233
13283SOL     OW40533   1.319   2.160   0.130  0.2375  0.0373 -0.1625
13283SOL    HW140534   1.343   2.182   0.220  0.3210  0.2346 -0.2314
13283SOL    HW240535   1.236   2.113   0.138 -0.2328  0.8608 -0.0442
13284SOL     OW40536   1.733   3.481   4.584  0.6094 -0.0178  0.2656
13284SOL    HW140537   1.774   3.425   4.649  1.4778  0.7175  0.3590
13284SOL    HW240538   1.735   3.429   4.503 -1.2897 -1.3076  0.9610
13285SOL     OW40539   6.051   0.608   0.658 -0.1852 -0.3164 -0.0128
13285SOL    HW140540   6.019   0.540   0.718 -0.7605  1.1651  1.4282
13285SOL    HW240541   6.103   0.667   0.713  0.3222  0.4065 -1.2276
13286SOL     OW40542   5.920   6.570   6.184 -0.4544 -0.1768 -0.1330
13286SOL    HW140543   5.979   6.532   6.119  0.6317  0.8611  0.2042
13286SOL    HW240544   5.843   6.513   6.183 -0.5401 -0.1246 -2.4175
13287SOL     OW40545   5.081   0.598   3.656  0.0613  0.2262 -0.3821
13287SOL    HW140546   4.996   0.604   3.701 -0.0613  2.4369 -0.8065
13287SOL    HW240547   5.134   0.667   3.696  0.6501  0.8388 -2.1618
13288SOL     OW40548   1.582   3.051   4.163 -0.4427  0.2239 -0.4302
13288SOL    HW140549   1.597   3.066   4.256  1.0263  0.4960 -0.6888
13288SOL    HW240550   1.643   3.110   4.119 -1.7515  0.7715 -1.5996
13289SOL     OW40551   2.074   2.793   7.011 -0.2715  0.0654 -0.0913
13289SOL    HW140552   2.011   2.837   7.068  0.0666 -1.3958  1.4746
13289SOL    HW240553   2.043   2.813   6.922 -2.3137  0.2983  0.6055
13290SOL     OW40554   6.592   0.497   2.540  0.1588  0.2172 -0.0016
13290SOL    HW140555   6.652   0.550   2.488 -0.8056  1.2569 -0.0813
13290SOL    HW240556   6.612   0.521   2.631  0.8112 -0.4850  0.0506
13291SOL     OW40557   0.269   1.759   3.936  0.0994 -0.2989  0.3954
13291SOL    HW140558   0.270   1.712   3.853 -1.1336 -0.3951  0.4194
13291SOL    HW240559   0.336   1.716   3.989  0.6223 -0.4888 -0.4044
13292SOL     OW40560   0.046   5.775   5.213  0.4429 -0.1617 -0.3153
13292SOL    HW140561   0.045   5.865   5.246 -0.6583  0.4312 -1.8566
13292SOL    HW240562  -0.009   5.778   5.135 -2.2357 -2.8530  1.2993
13293SOL     OW40563   2.050   3.923   6.896 -0.4112 -0.1265 -0.2699
13293SOL    HW140564   2.020   3.863   6.964  0.6553  0.0670  0.4103
13293SOL    HW240565   1.992   3.999   6.904 -0.2584 -0.0792  0.4781
13294SOL     OW40566   2.034   0.183   4.139  0.1765 -0.4645 -0.2799
13294SOL    HW140567   2.112   0.217   4.097  0.0973  0.6482  0.4132
13294SOL    HW240568   2.043   0.208   4.231 -1.3891  0.4813 -0.3395
13295SOL     OW40569   5.264   7.531   2.348  0.4434 -0.0918  0.2062
13295SOL    HW140570   5.284   7.505   2.438 -0.4349 -3.9917 -0.5627
13295SOL    HW240571   5.169   7.519   2.340  0.8177 -2.6817 -1.8926
13296SOL     OW40572   4.050   4.205   2.792  0.6224 -0.6090  0.4999
13296SOL    HW140573   4.121   4.231   2.732 -0.1342  0.6608  0.1228
13296SOL    HW240574   4.009   4.129   2.749  0.6428 -0.2547 -0.1569
13297SOL     OW40575   3.536   7.542   0.311 -0.3735  0.0499  0.3017
13297SOL    HW140576   3.555   7.492   0.232  0.8564 -1.8536  1.7192
13297SOL    HW240577   3.587   7.623   0.302  1.9787 -1.3638  0.3378
13298SOL     OW40578   1.954   7.690   6.559 -0.0340 -0.3850 -0.0581
13298SOL    HW140579   2.031   7.743   6.539 -0.1192  0.3862  1.5222
13298SOL    HW240580   1.980   7.600   6.540  1.0015 -0.0480 -0.2548
13299SOL     OW40581   1.640   6.179   5.103 -0.6133 -0.0312 -0.0803
13299SOL    HW140582   1.615   6.255   5.157 -0.3749 -0.6851  0.9856
13299SOL    HW240583   1.564   6.121   5.108 -1.0023  0.3421 -1.3203
13300SOL     OW40584   3.360   6.134   3.070  0.1030  0.3989 -0.2347
13300SOL    HW140585   3.425   6.096   3.130 -1.0064  1.3504  1.6782
13300SOL    HW240586   3.283   6.079   3.081 -0.5652  1.4172  0.3166
13301SOL     OW40587   3.820   5.897   5.538  0.5670  0.2723  0.2794
13301SOL    HW140588   3.820   5.861   5.449  2.6010  2.8764 -0.9292
13301SOL    HW240589   3.796   5.823   5.594  1.2090 -2.0104 -2.2487
13302SOL     OW40590   4.349   6.417   5.113  0.4894 -0.4796  1.1597
13302SOL    HW140591   4.256   6.437   5.120  0.0733 -1.8636 -0.0634
13302SOL    HW240592   4.391   6.474   5.178 -0.9280  1.8759  0.1211
13303SOL     OW40593   6.811   0.085   0.937  0.8389 -0.0204 -0.4210
13303SOL    HW140594   6.773   0.173   0.941  0.3845 -0.2354  0.0403
13303SOL    HW240595   6.762   0.041   0.868  1.5464  0.3031 -1.1567
13304SOL     OW40596   0.220   1.827   6.404 -0.1560  0.1847 -0.1069
13304SOL    HW140597   0.169   1.846   6.484 -2.0450  0.1499 -1.2315
13304SOL    HW240598   0.158   1.782   6.347  1.8894 -2.0875 -0.6635
13305SOL     OW40599   4.899   1.267   2.488 -0.0542 -0.0518 -0.6979
13305SOL    HW140600   4.904   1.173   2.472  2.0994 -0.3341  1.2122
13305SOL    HW240601   4.880   1.274   2.582 -0.7363  1.4402 -0.9237
13306SOL     OW40602   6.805   1.453   5.280 -0.0806 -0.0036  0.4255
13306SOL    HW140603   6.891   1.411   5.273 -0.8441 -1.3719 -2.2419
13306SOL    HW240604   6.822   1.545   5.262  0.6516 -0.6076 -2.5226
13307SOL     OW40605   3.576   5.406   3.064  0.3864  0.1413  0.3489
13307SOL    HW140606   3.642   5.363   3.119  0.2727  1.2163  1.3683
13307SOL    HW240607   3.588   5.500   3.081 -0.9932  0.3922  0.0560
13308SOL     OW40608   7.302   1.957   6.874  0.4401 -0.5121  0.1688
13308SOL    HW140609   7.350   1.947   6.956  0.4382 -0.6374  0.1549
13308SOL    HW240610   7.332   2.041   6.839  0.5685 -0.5389  0.2139
13309SOL     OW40611   6.656   5.979   3.100 -0.5731 -0.2711  0.7434
13309SOL    HW140612   6.707   5.899   3.115  0.9672  0.7716  1.4158
13309SOL    HW240613   6.629   5.974   3.009  1.4860 -0.4994  0.0995
13310SOL     OW40614   7.765   0.371   1.584  0.0481  0.5168  0.2030
13310SOL    HW140615   7.755   0.327   1.669  0.8982 -0.4389 -0.1711
13310SOL    HW240616   7.740   0.304   1.520  1.3123  0.5705 -0.3754
13311SOL     OW40617   5.800   3.222   7.695 -0.2618  0.3437 -0.1745
13311SOL    HW140618   5.728   3.275   7.729 -0.8315  0.0957 -0.9915
13311SOL    HW240619   5.874   3.283   7.689 -0.2504  0.4897  1.1074
13312SOL     OW40620   4.895   1.997   3.698  0.6815 -0.4278 -0.0428
13312SOL    HW140621   4.902   1.921   3.640  1.7158  0.3964 -1.0387
13312SOL    HW240622   4.898   1.960   3.787 -0.4605 -1.6667 -0.4834
13313SOL     OW40623   6.631   3.537   4.964  0.2344 -0.6637  0.0503
13313SOL    HW140624   6.577   3.525   4.885  0.9894 -0.3082 -0.5279
13313SOL    HW240625   6.681   3.456   4.971  0.3372 -0.6002  0.0384
13314SOL     OW40626   4.654   7.422   5.090  0.6616  0.0168 -0.3803
13314SOL    HW140627   4.636   7.491   5.154 -0.8119 -0.1425 -0.5834
13314SOL    HW240628   4.749   7.417   5.086  0.7921  0.5011  1.2953
13315SOL     OW40629   7.440   4.099   6.842 -0.3897  0.3078  0.1779
13315SOL    HW140630   7.403   4.013   6.819  2.8645 -1.1244 -0.3478
13315SOL    HW240631   7.505   4.115   6.773 -0.2828  2.7953  0.7928
13316SOL     OW40632   3.742   6.684   4.664 -0.3780 -0.3021 -0.0398
13316SOL    HW140633   3.800   6.723   4.729 -2.0615 -1.4845  2.3151
13316SOL    HW240634   3.801   6.650   4.596  1.4147  1.5105  0.5237
13317SOL     OW40635   0.952   7.249   0.061 -0.0670 -0.4167  0.7722
13317SOL    HW140636   0.991   7.182   0.118  2.6954  0.4235  0.0050
13317SOL    HW240637   0.962   7.330   0.109  3.0998  0.4530 -1.0716
13318SOL     OW40638   4.106   3.524   1.620  0.3093  0.0040  0.4152
13318SOL    HW140639   4.031   3.583   1.627  0.8117  1.0830 -2.2569
13318SOL    HW240640   4.069   3.436   1.627 -1.1791  0.5294 -0.5616
13319SOL     OW40641   4.474   0.348   5.039  0.7464 -0.2834 -0.1741
13319SOL    HW140642   4.383   0.371   5.062  0.3828 -1.6041 -0.2199
13319SOL    HW240643   4.486   0.384   4.951  0.2476 -0.1649 -0.1985
13320SOL     OW40644   7.260   7.754   0.340  0.2125  0.1791  0.4477
13320SOL    HW140645   7.199   7.748   0.414  1.7669  0.7772  1.8603
13320SOL    HW240646   7.307   7.837   0.354  2.9158 -1.2653  0.7687
13321SOL     OW40647   5.210   4.425   7.289  0.3863  0.2578  0.5650
13321SOL    HW140648   5.238   4.334   7.299  0.5001  0.0159 -1.5709
13321SOL    HW240649   5.122   4.427   7.328  0.1005 -0.9569  0.0387
13322SOL     OW40650   6.827   1.006   7.390 -0.3072 -0.6504  0.1971
13322SOL    HW140651   6.803   1.045   7.306 -1.0345  1.5648  1.3649
13322SOL    HW240652   6.901   0.949   7.370  0.4082  0.8622 -1.7314
13323SOL     OW40653   0.702   2.474   0.526  0.0747  0.2385  0.6203
13323SOL    HW140654   0.631   2.459   0.589 -0.7654  0.7235 -0.1777
13323SOL    HW240655   0.734   2.562   0.547  0.1166  0.2094  0.6785
13324SOL     OW40656   4.027   5.392   6.225 -0.8462 -0.2920  0.3836
13324SOL    HW140657   4.013   5.485   6.206  0.1116 -0.5271 -1.7963
13324SOL    HW240658   4.122   5.384   6.233 -0.9671 -0.9940  1.2876
13325SOL     OW40659   0.169   0.081   0.846 -0.3915  0.2176  0.1427
13325SOL    HW140660   0.188   0.172   0.823 -1.6367  0.5185  0.2509
13325SOL    HW240661   0.192   0.031   0.768  2.1617  0.3416  0.7108
13326SOL     OW40662   6.293   0.720   2.705  0.3578 -0.5932  0.0243
13326SOL    HW140663   6.245   0.723   2.787  1.1942  0.9705  0.4944
13326SOL    HW240664   6.228   0.692   2.640 -0.5662 -0.8416  1.0337
13327SOL     OW40665   3.346   4.884   7.541  0.1087  0.1551 -0.2090
13327SOL    HW140666   3.354   4.815   7.475  0.3868  1.3301 -1.4443
13327SOL    HW240667   3.274   4.855   7.597 -1.4175 -0.0154 -2.1580
13328SOL     OW40668   0.876   3.897   2.354 -0.4672 -0.7140  0.3457
13328SOL    HW140669   0.936   3.896   2.429 -0.8151  0.5876  0.6646
13328SOL    HW240670   0.848   3.806   2.345  1.6029 -1.3980  0.1266
13329SOL     OW40671   6.445   4.887   2.000 -0.4239 -0.0547 -0.0978
13329SOL    HW140672   6.404   4.921   2.080  1.3104  1.2951  0.2713
13329SOL    HW240673   6.482   4.803   2.026 -1.3001 -0.4014  0.0649
13330SOL     OW40674   4.467   0.072   1.143 -0.4965 -0.3664  0.1435
13330SOL    HW140675   4.479   0.161   1.112 -1.0968 -0.1573  0.4891
13330SOL    HW240676   4.552   0.046   1.178 -0.3685  0.1384  0.2084
13331SOL     OW40677   5.349   0.199   5.977  0.2971  0.1989  0.2038
13331SOL    HW140678   5.256   0.218   5.963 -0.0145 -1.7990 -0.8219
13331SOL    HW240679   5.389   0.284   5.992 -2.2303  0.9534  4.4335
13332SOL     OW40680   4.621   4.807   5.295 -0.3912  0.2699 -0.7863
13332SOL    HW140681   4.714   4.798   5.316 -0.6707 -0.4381  0.1715
13332SOL    HW240682   4.621   4.854   5.211  0.7992  1.1200 -0.3428
13333SOL     OW40683   5.036   3.781   2.279 -0.0758 -0.1602  0.5132
13333SOL    HW140684   5.081   3.698   2.262  0.1522  0.0329  0.1538
13333SOL    HW240685   4.953   3.755   2.319 -0.7419 -0.6549 -1.1061
13334SOL     OW40686   7.533   0.449   0.300 -0.7346 -0.2018  0.3499
13334SOL    HW140687   7.583   0.421   0.377  1.1931 -1.0004 -1.1092
13334SOL    HW240688   7.468   0.380   0.287 -0.6325 -0.4005  0.8753
13335SOL     OW40689   7.714   5.582   2.993  0.1081  0.3482 -0.4890
13335SOL    HW140690   7.807   5.594   2.972  0.0991  0.8665 -0.2493
13335SOL    HW240691   7.683   5.517   2.930  0.3465  1.0631 -1.3661
13336SOL     OW40692   0.190   6.023   4.850 -0.3003 -0.4608  0.5092
13336SOL    HW140693   0.114   6.014   4.792  0.0286  0.2279 -0.0463
13336SOL    HW240694   0.154   6.064   4.929 -0.4086  0.4532  0.0006
13337SOL     OW40695   4.722   6.509   4.507  0.4766  0.0938  0.4374
13337SOL    HW140696   4.643   6.561   4.490  0.8387  0.4368 -0.2646
13337SOL    HW240697   4.689   6.422   4.531 -0.1200  0.2327  0.1496
13338SOL     OW40698   4.125   1.272   4.213 -0.1097  0.1842  0.4762
13338SOL    HW140699   4.036   1.302   4.199 -1.2606 -2.3462  1.7293
13338SOL    HW240700   4.138   1.277   4.307  0.8101 -0.1771  0.3780
13339SOL     OW40701   4.472   3.513   5.698 -0.2839 -0.5614 -0.1466
13339SOL    HW140702   4.402   3.533   5.636  0.9970  0.4647 -1.3302
13339SOL    HW240703   4.542   3.575   5.676 -0.1843  0.6899  3.0990
13340SOL     OW40704   0.872   4.824   1.910  0.1421  0.2264  0.3184
13340SOL    HW140705   0.892   4.907   1.953 -0.1728  0.7068 -0.4441
13340SOL    HW240706   0.834   4.770   1.979  0.4052  0.6911  0.8367
13341SOL     OW40707   2.638   4.409   1.272  0.5117  0.5608  0.5313
13341SOL    HW140708   2.590   4.477   1.320 -0.6289 -0.4446  0.8596
13341SOL    HW240709   2.707   4.381   1.332  1.2337  1.6664  0.2501
13342SOL     OW40710   1.478   3.309   0.211 -0.4327 -0.2784 -0.5589
13342SOL    HW140711   1.407   3.248   0.191 -0.0140 -0.2235 -2.4238
13342SOL    HW240712   1.552   3.277   0.160  0.4749  0.4720  0.2543
13343SOL     OW40713   4.419   1.326   6.339 -0.7430  0.5051  0.4190
13343SOL    HW140714   4.452   1.267   6.407 -0.3692 -1.3201 -1.2581
13343SOL    HW240715   4.329   1.297   6.325 -0.1139 -0.7616 -1.4407
13344SOL     OW40716   2.862   3.904   3.656 -0.1554 -0.5937  0.2113
13344SOL    HW140717   2.956   3.915   3.664 -0.2314  0.0663  0.2667
13344SOL    HW240718   2.843   3.922   3.564 -0.4976  1.6103  0.6433
13345SOL     OW40719   0.173   4.538   2.613 -0.1372  0.4297 -0.4336
13345SOL    HW140720   0.265   4.545   2.587 -0.1405 -0.1026 -0.5920
13345SOL    HW240721   0.176   4.521   2.707 -0.1119  1.7156 -0.1780
13346SOL     OW40722   5.001   1.982   5.700 -0.2378 -0.3741 -0.7173
13346SOL    HW140723   5.086   1.992   5.742 -0.8313  1.6697  0.1015
13346SOL    HW240724   5.007   2.034   5.620 -1.1174  0.9413  0.0308
13347SOL     OW40725   3.653   4.677   7.668 -0.1583  0.0685  0.5636
13347SOL    HW140726   3.619   4.623   7.740  0.5768 -2.3914 -0.8413
13347SOL    HW240727   3.640   4.767   7.699 -1.7564 -0.8392  2.8879
13348SOL     OW40728   5.865   3.528   4.774  0.2775 -0.5276  0.2060
13348SOL    HW140729   5.808   3.598   4.744  0.6538 -0.7899 -1.1829
13348SOL    HW240730   5.883   3.549   4.866 -1.0781  0.1852  0.3255
13349SOL     OW40731   0.104   4.806   1.072  0.6072 -0.3580 -0.2325
13349SOL    HW140732   0.085   4.812   1.166  1.3910 -2.7250  0.1227
13349SOL    HW240733   0.028   4.847   1.030  0.0880  0.4451  1.4098
13350SOL     OW40734   5.143   5.089   0.267  0.0194 -0.2618 -0.1211
13350SOL    HW140735   5.107   5.139   0.340 -0.4125  1.2983 -1.3443
13350SOL    HW240736   5.202   5.150   0.223 -0.7328 -0.7168 -1.8303
13351SOL     OW40737   3.727   5.116   3.051 -0.5125 -0.8723  0.2538
13351SOL    HW140738   3.759   5.025   3.052  1.0139 -0.3649  0.8864
13351SOL    HW240739   3.678   5.123   2.969  0.1166 -2.0251 -0.2524
13352SOL     OW40740   5.685   0.683   5.152 -0.4015 -0.3631  0.1483
13352SOL    HW140741   5.742   0.609   5.130 -0.7201 -0.6884  0.4078
13352SOL    HW240742   5.610   0.643   5.195 -1.6331 -0.0999 -1.6667
13353SOL     OW40743   1.018   5.816   2.002  0.3329  0.2211 -0.1010
13353SOL    HW140744   0.976   5.730   2.006 -2.2042  1.3957  0.3537
13353SOL    HW240745   1.073   5.819   2.080 -0.4749 -0.5599  0.5210
13354SOL     OW40746   2.850   4.730   4.608 -0.6814  0.0097  0.7746
13354SOL    HW140747   2.936   4.772   4.617 -0.8106 -0.0141  2.4354
13354SOL    HW240748   2.843   4.674   4.686 -3.3308  2.1039  2.2001
13355SOL     OW40749   2.865   0.786   5.862 -0.1941 -0.3152  0.1025
13355SOL    HW140750   2.889   0.842   5.788 -0.3057 -1.0447 -0.5031
13355SOL    HW240751   2.836   0.704   5.821  0.0318 -0.8382  0.9679
13356SOL     OW40752   3.571   3.676   2.399 -0.2753  0.2992  0.1248
13356SOL    HW140753   3.578   3.667   2.304  0.6887 -0.6549  0.2782
13356SOL    HW240754   3.637   3.617   2.434  0.6567  2.0251  1.3677
13357SOL     OW40755   5.224   3.909   4.191 -0.6658 -0.1869  0.0982
13357SOL    HW140756   5.232   3.958   4.110 -1.5713  1.0836  0.7513
13357SOL    HW240757   5.181   3.969   4.252  2.6885  0.0579  2.5199
13358SOL     OW40758   6.247   3.146   2.754 -0.2898  0.0267  0.1195
13358SOL    HW140759   6.221   3.236   2.734 -0.5890  0.2331  1.3517
13358SOL    HW240760   6.222   3.134   2.846  1.5176 -0.6777  0.5546
13359SOL     OW40761   7.290   2.582   0.562  0.1702  0.6169  0.2433
13359SOL    HW140762   7.343   2.510   0.597 -0.2735 -1.0390 -2.2291
13359SOL    HW240763   7.210   2.540   0.531 -0.2004  2.1945 -1.0703
13360SOL     OW40764   4.484   3.771   7.582  0.1863  0.0780  0.6405
13360SOL    HW140765   4.559   3.805   7.533  0.3459 -0.2413  0.6577
13360SOL    HW240766   4.483   3.677   7.561  0.3128 -0.0812  1.3202
13361SOL     OW40767   1.537   0.891   4.392  0.2622  0.2627 -0.3766
13361SOL    HW140768   1.620   0.895   4.439  0.6225 -1.7630 -0.7696
13361SOL    HW240769   1.498   0.808   4.418 -1.9601  1.4008  0.2499
13362SOL     OW40770   4.378   6.821   7.157  0.2333  1.2856  0.0739
13362SOL    HW140771   4.375   6.730   7.184 -1.9315  0.7123 -1.8161
13362SOL    HW240772   4.460   6.854   7.194 -0.2473 -0.5889  3.1845
13363SOL     OW40773   7.763   4.874   2.171  0.2225 -0.3914 -0.1481
13363SOL    HW140774   7.673   4.843   2.166  0.0388  0.1995 -0.5757
13363SOL    HW240775   7.788   4.893   2.080 -0.1545  2.0214  0.1713
13364SOL     OW40776   2.063   0.160   6.311 -0.4641 -0.6043  0.6296
13364SOL    HW140777   2.120   0.084   6.324  0.5241  0.2260  1.3042
13364SOL    HW240778   1.982   0.124   6.273  0.0315 -1.9621  0.8310
13365SOL     OW40779   3.693   4.935   0.886  0.1116  0.0255  0.7056
13365SOL    HW140780   3.655   4.983   0.959  0.8696 -0.0900  1.1918
13365SOL    HW240781   3.785   4.963   0.885  0.2096 -0.3156  0.0817
13366SOL     OW40782   0.915   2.908   1.329  0.3092  0.4217 -0.0516
13366SOL    HW140783   0.942   2.968   1.398  0.6350 -0.6599  0.7841
13366SOL    HW240784   0.912   2.822   1.371  0.8766 -0.3275 -1.4616
13367SOL     OW40785   3.877   5.099   2.558 -0.1446  0.2275  0.7759
13367SOL    HW140786   3.970   5.119   2.559 -0.1276  0.1599  0.5673
13367SOL    HW240787   3.838   5.165   2.501 -0.0759 -0.3631  0.0132
13368SOL     OW40788   3.781   3.578   4.561  0.2254 -0.2590 -0.5911
13368SOL    HW140789   3.709   3.639   4.578  0.0422 -0.7169  0.3253
13368SOL    HW240790   3.840   3.589   4.635  0.6283 -0.5655 -0.8649
13369SOL     OW40791   7.441   7.651   2.974 -0.2104 -0.0458 -0.3230
13369SOL    HW140792   7.457   7.721   2.911  0.6574  0.7191  0.6877
13369SOL    HW240793   7.495   7.675   3.050  1.6502 -2.7719 -0.6108
13370SOL     OW40794   6.107   6.810   7.600 -0.3356 -0.2648 -0.5219
13370SOL    HW140795   6.183   6.767   7.638 -1.6005 -1.6164  0.5730
13370SOL    HW240796   6.119   6.903   7.621  0.9648 -0.4655 -0.3215
13371SOL     OW40797   0.355   0.370   3.703  0.3262 -0.0735  0.1343
13371SOL    HW140798   0.277   0.327   3.736 -0.3920  0.3713 -0.9294
13371SOL    HW240799   0.355   0.456   3.745 -0.6269  0.5211 -1.0507
13372SOL     OW40800   0.149   6.451   1.959 -0.0930  0.5959 -0.0056
13372SOL    HW140801   0.088   6.377   1.954 -0.5445  0.7533  2.1077
13372SOL    HW240802   0.231   6.418   1.923 -0.3672 -0.8730  0.6426
13373SOL     OW40803   2.917   4.669   1.303 -0.3586  0.3607  0.0771
13373SOL    HW140804   2.919   4.573   1.310  0.0630  0.4444  1.3915
13373SOL    HW240805   2.886   4.686   1.214  0.6028 -1.0082 -0.5651
13374SOL     OW40806   5.200   7.770   3.188  0.6978 -0.4385 -0.2687
13374SOL    HW140807   5.280   7.771   3.135  0.5744 -2.7662 -0.5910
13374SOL    HW240808   5.231   7.760   3.278  0.8016 -1.0951 -0.3702
13375SOL     OW40809   4.110   6.155   2.329 -0.2606 -0.0090 -0.2857
13375SOL    HW140810   4.070   6.167   2.415 -1.6201  2.9088 -1.1919
13375SOL    HW240811   4.046   6.102   2.281 -0.4112 -0.0353 -0.0584
13376SOL     OW40812   3.502   5.975   1.032 -0.7964  0.1301  0.3792
13376SOL    HW140813   3.490   5.880   1.033 -1.7680  0.2318 -0.1667
13376SOL    HW240814   3.466   6.003   0.948  0.4895  0.8649  0.0433
13377SOL     OW40815   1.036   1.910   4.241  0.0921  0.1299  0.4407
13377SOL    HW140816   0.987   1.873   4.314 -0.3230 -0.3198 -0.0578
13377SOL    HW240817   1.058   1.834   4.186 -0.1962  0.5389 -0.2529
13378SOL     OW40818   5.625   2.692   1.369  0.1214 -0.3712 -0.4178
13378SOL    HW140819   5.679   2.667   1.444  1.0909 -1.3556 -1.4065
13378SOL    HW240820   5.616   2.612   1.318 -1.7546 -0.0740 -0.6374
13379SOL     OW40821   6.467   6.342   2.151  0.0339 -0.0469 -0.1515
13379SOL    HW140822   6.508   6.428   2.156  0.1599 -0.1263  0.2224
13379SOL    HW240823   6.516   6.288   2.213 -0.3726 -0.2503 -0.0011
13380SOL     OW40824   4.143   5.907   5.922 -0.2895  0.1987 -0.1389
13380SOL    HW140825   4.232   5.872   5.928 -0.1848  0.5096  0.1436
13380SOL    HW240826   4.104   5.887   6.007 -0.4506  0.1722 -0.2194
13381SOL     OW40827   4.174   4.777   6.524  0.0659  0.3078 -0.0022
13381SOL    HW140828   4.219   4.819   6.598 -1.0726  2.6844 -0.5782
13381SOL    HW240829   4.083   4.804   6.533 -0.8999 -2.5362 -0.1656
13382SOL     OW40830   7.618   7.612   4.421  0.4016  0.1908 -0.5209
13382SOL    HW140831   7.620   7.666   4.342 -2.6493  0.9963 -0.1828
13382SOL    HW240832   7.529   7.624   4.456  1.0061 -1.6972  1.9539
13383SOL     OW40833   6.442   2.484   5.384  0.1837  0.0977  0.4423
13383SOL    HW140834   6.429   2.503   5.291 -1.7668 -0.3253  0.5907
13383SOL    HW240835   6.355   2.494   5.423  0.9663  0.3014  2.2439
13384SOL     OW40836   2.832   6.097   0.120  0.2677  0.1957 -1.0464
13384SOL    HW140837   2.786   6.181   0.122 -1.1680 -0.5673  0.0241
13384SOL    HW240838   2.873   6.090   0.205  0.5756 -0.0910 -1.2188
13385SOL     OW40839   4.132   4.434   6.513  0.4355  0.2297 -0.6365
13385SOL    HW140840   4.096   4.459   6.598  0.0086 -1.0306 -0.4125
13385SOL    HW240841   4.075   4.362   6.484  1.2336 -0.0785 -1.4755
13386SOL     OW40842   5.919   6.781   0.570 -0.6155 -0.0996 -0.4450
13386SOL    HW140843   5.966   6.765   0.489  3.0439 -2.0908  1.8198
13386SOL    HW240844   5.877   6.698   0.591  0.8232 -0.4952  1.0141
13387SOL     OW40845   0.258   1.783   0.758 -0.2344  0.5404  0.0296
13387SOL    HW140846   0.284   1.868   0.794 -0.0167  0.1586  0.7807
13387SOL    HW240847   0.166   1.774   0.781  0.1656 -0.1678  1.4346
13388SOL     OW40848   3.613   1.236   4.351 -0.4410 -0.4300  0.2391
13388SOL    HW140849   3.637   1.240   4.444  3.9432  1.2364 -0.7057
13388SOL    HW240850   3.608   1.142   4.331  0.4801 -0.8457  1.8038
13389SOL     OW40851   1.094   5.438   2.559  0.1139 -0.4247 -0.3526
13389SOL    HW140852   1.089   5.472   2.469 -1.1038 -2.5656 -1.1866
13389SOL    HW240853   1.015   5.385   2.568 -0.2057  0.3643  2.3175
13390SOL     OW40854   0.875   4.353   1.504  0.3964 -0.1797 -0.2026
13390SOL    HW140855   0.945   4.351   1.439 -0.9500 -2.1858 -1.7358
13390SOL    HW240856   0.838   4.441   1.497  3.2129  1.2938  1.3199
13391SOL     OW40857   4.387   6.259   5.824  0.6052 -0.1526 -0.2302
13391SOL    HW140858   4.314   6.320   5.817  0.6671  0.0414  0.6595
13391SOL    HW240859   4.413   6.264   5.916  1.7717 -0.1765 -0.5442
13392SOL     OW40860   6.896   0.411   1.534  0.0895 -0.0857 -0.6476
13392SOL    HW140861   6.870   0.378   1.448  1.0646  1.5650 -1.6382
13392SOL    HW240862   6.963   0.351   1.564  1.9500  0.9327 -2.4826
13393SOL     OW40863   1.097   5.082   7.162  0.0097 -0.1797 -0.1686
13393SOL    HW140864   1.010   5.117   7.183 -0.4637 -0.4442 -1.5508
13393SOL    HW240865   1.104   5.093   7.067  2.5318  2.1956  0.1707
13394SOL     OW40866   7.151   5.508   4.381  0.3801  0.3152 -0.3398
13394SOL    HW140867   7.137   5.478   4.291  0.2224 -1.2483  0.1735
13394SOL    HW240868   7.221   5.573   4.374  0.5213  0.0574 -1.5714
13395SOL     OW40869   2.579   1.954   2.406  0.4094 -0.1783 -0.0523
13395SOL    HW140870   2.638   1.888   2.370  1.6280  0.7647  0.1218
13395SOL    HW240871   2.616   2.038   2.376 -1.4035  0.4163 -0.7299
13396SOL     OW40872   6.245   0.753   7.629  0.9054  0.5185 -0.2274
13396SOL    HW140873   6.182   0.696   7.585 -0.2018  1.6735 -0.2146
13396SOL    HW240874   6.290   0.798   7.557  2.4235 -0.9591 -0.2719
13397SOL     OW40875   4.616   0.826   2.240 -0.0233 -0.1767 -0.0405
13397SOL    HW140876   4.644   0.743   2.279  0.1911 -0.4214 -0.7137
13397SOL    HW240877   4.611   0.809   2.146  1.6904  1.0342 -0.3948
13398SOL     OW40878   0.219   4.016   5.891  0.7825  0.0791  0.1740
13398SOL    HW140879   0.217   4.102   5.849 -3.6457  1.9839  3.4317
13398SOL    HW240880   0.160   3.962   5.838 -2.0697  1.4398  1.6887
13399SOL     OW40881   6.768   7.692   3.414 -0.0733  0.6973 -0.3628
13399SOL    HW140882   6.698   7.727   3.469  0.9095  0.8296  0.8221
13399SOL    HW240883   6.745   7.721   3.325 -0.8735  1.7638  0.1710
13400SOL     OW40884   2.502   3.224   1.234 -0.1411 -0.4622  0.5935
13400SOL    HW140885   2.581   3.170   1.231 -0.1447 -0.4449 -0.0317
13400SOL    HW240886   2.455   3.201   1.153 -0.5918 -0.1968  0.7765
13401SOL     OW40887   4.449   0.937   7.672  0.2240  0.5588 -0.4312
13401SOL    HW140888   4.479   0.944   7.581  1.5225  1.5806  0.0461
13401SOL    HW240889   4.430   1.028   7.697 -3.8778 -0.0030 -0.8301
13402SOL     OW40890   4.403   5.279   0.995 -0.1874  0.2350  0.5656
13402SOL    HW140891   4.486   5.261   0.952 -0.7734 -1.9997  0.2366
13402SOL    HW240892   4.424   5.344   1.062  1.0931  2.4519 -1.7966
13403SOL     OW40893   1.378   3.119   1.653 -0.2554 -0.7162  0.3817
13403SOL    HW140894   1.341   3.098   1.567  1.3852 -0.6157 -0.3908
13403SOL    HW240895   1.418   3.205   1.642  2.8735 -2.0375  0.1810
13404SOL     OW40896   5.869   4.901   1.753 -0.2651 -0.0572 -0.2159
13404SOL    HW140897   5.956   4.881   1.788  0.1401 -1.3101 -1.8000
13404SOL    HW240898   5.820   4.935   1.827  1.6695  0.9998  0.6628
13405SOL     OW40899   3.406   2.986   4.641 -0.1282  0.5594  0.1570
13405SOL    HW140900   3.448   3.052   4.696  0.8315 -0.8488  1.1639
13405SOL    HW240901   3.341   2.945   4.698  0.3300 -0.3906  0.0050
13406SOL     OW40902   0.458   0.243   0.569 -0.7128 -0.3170 -0.2116
13406SOL    HW140903   0.494   0.331   0.555  2.7348 -1.5630 -0.2726
13406SOL    HW240904   0.433   0.214   0.481 -0.7383  0.1628 -0.3684
13407SOL     OW40905   3.029   5.615   4.559 -0.1772 -0.2449  0.3476
13407SOL    HW140906   3.114   5.646   4.528 -0.3953 -1.0268 -1.1269
13407SOL    HW240907   3.039   5.520   4.563 -0.8593 -0.3104  0.5381
13408SOL     OW40908   7.744   5.845   6.335 -0.2503  0.4432  0.0556
13408SOL    HW140909   7.816   5.800   6.291  0.1566  0.5413  0.6158
13408SOL    HW240910   7.704   5.898   6.266  0.9005  1.2479 -0.0307
13409SOL     OW40911   6.885   0.630   3.412  0.3422 -0.3067 -0.1680
13409SOL    HW140912   6.845   0.582   3.340 -0.5806 -0.2710  0.3069
13409SOL    HW240913   6.943   0.694   3.369  0.6607 -1.0254 -0.8349
13410SOL     OW40914   7.611   4.650   6.348 -0.0950 -0.1998 -0.3774
13410SOL    HW140915   7.649   4.678   6.431  1.2896 -2.4374 -0.1651
13410SOL    HW240916   7.687   4.622   6.296 -1.0024  0.5024 -2.1321
13411SOL     OW40917   0.990   3.421   1.177 -0.4418 -0.2198 -0.5211
13411SOL    HW140918   1.069   3.376   1.148 -0.4518 -0.8878  0.4318
13411SOL    HW240919   0.935   3.427   1.099  0.1862 -0.5087 -0.9941
13412SOL     OW40920   0.705   7.664   2.462  0.2727 -0.6246  0.5605
13412SOL    HW140921   0.778   7.604   2.478  0.1008 -0.3945  2.3194
13412SOL    HW240922   0.693   7.710   2.544  0.0937  1.5192 -0.6047
13413SOL     OW40923   5.161   6.155   2.603 -0.3703 -0.8488 -0.2514
13413SOL    HW140924   5.154   6.136   2.696  1.1007  1.3652  0.3766
13413SOL    HW240925   5.251   6.132   2.580 -0.1685  0.2968 -0.6737
13414SOL     OW40926   1.748   0.695   0.877 -0.3522 -0.1923  0.3393
13414SOL    HW140927   1.827   0.712   0.928  0.3634 -0.5707 -0.6182
13414SOL    HW240928   1.679   0.742   0.924  0.6362  1.0586  0.5827
13415SOL     OW40929   3.758   7.020   7.551  0.0742  0.8148 -0.7130
13415SOL    HW140930   3.814   7.097   7.559 -0.5030  1.1873 -0.1786
13415SOL    HW240931   3.730   7.001   7.641  0.0827  0.0784 -0.8587
13416SOL     OW40932   0.032   7.680   1.352 -0.0249 -0.1389  0.5919
13416SOL    HW140933   0.002   7.590   1.345  2.6835 -1.1391  0.7887
13416SOL    HW240934   0.019   7.717   1.264 -1.3397 -0.6126  0.5672
13417SOL     OW40935   2.003   2.337   2.728  0.2170 -0.4287  0.5717
13417SOL    HW140936   1.938   2.334   2.657 -0.2618  0.8176  0.9323
13417SOL    HW240937   2.084   2.366   2.685  0.2818 -1.0273  0.2913
13418SOL     OW40938   1.119   4.516   4.299 -0.6529 -0.1626  0.2209
13418SOL    HW140939   1.126   4.503   4.394  1.5276  0.8858  0.2564
13418SOL    HW240940   1.103   4.428   4.265  0.7756 -0.9386  1.4153
13419SOL     OW40941   5.434   5.713   2.572 -0.6166 -0.5174 -0.3063
13419SOL    HW140942   5.414   5.775   2.501  0.0549 -0.5190 -0.5026
13419SOL    HW240943   5.371   5.734   2.641 -1.1409 -0.3730 -0.8186
13420SOL     OW40944   1.608   6.011   7.414 -0.7991 -0.0285  0.6566
13420SOL    HW140945   1.602   5.952   7.489 -2.3771  1.2009  1.5657
13420SOL    HW240946   1.701   6.030   7.406 -0.5405 -0.6293  1.9530
13421SOL     OW40947   3.677   7.167   6.287  0.2060 -0.0114  1.0840
13421SOL    HW140948   3.654   7.180   6.380 -1.3646 -0.1548  0.7489
13421SOL    HW240949   3.623   7.093   6.260  0.4187  0.2373 -0.0368
13422SOL     OW40950   7.298   1.203   2.904 -0.4766  0.0873 -0.3592
13422SOL    HW140951   7.277   1.156   2.823  1.2023 -0.0692 -0.7365
13422SOL    HW240952   7.213   1.231   2.938 -1.1064  2.0826 -3.2878
13423SOL     OW40953   6.346   3.864   0.533 -0.0833 -0.4685  0.0251
13423SOL    HW140954   6.430   3.820   0.533  0.9087  1.3349 -0.0052
13423SOL    HW240955   6.314   3.856   0.443  1.1520  0.7518 -0.5600
13424SOL     OW40956   3.244   2.936   4.881  0.3081 -0.5051  0.4443
13424SOL    HW140957   3.215   3.027   4.891 -0.3215 -0.7415  0.7630
13424SOL    HW240958   3.323   2.930   4.936  1.3445  0.2913 -0.8821
13425SOL     OW40959   4.496   6.429   0.553  0.4873 -0.1747 -0.1705
13425SOL    HW140960   4.462   6.474   0.630 -0.1121 -1.6870  0.4828
13425SOL    HW240961   4.451   6.345   0.552 -0.6540  0.3337 -3.0064
13426SOL     OW40962   4.728   7.462   3.641  0.0401  0.5796  0.4365
13426SOL    HW140963   4.821   7.454   3.621 -0.1936  0.7131 -0.8154
13426SOL    HW240964   4.706   7.552   3.619 -1.4536 -0.6713 -4.5656
13427SOL     OW40965   6.304   3.780   1.565  0.7583  0.2696 -0.4657
13427SOL    HW140966   6.212   3.761   1.544  0.6185  0.5080 -0.0678
13427SOL    HW240967   6.301   3.829   1.647  1.2134  0.7031 -0.7023
13428SOL     OW40968   2.040   2.882   1.514 -0.8511  0.1288  0.3298
13428SOL    HW140969   2.120   2.855   1.468  0.0063 -1.7081  2.6574
13428SOL    HW240970   2.036   2.977   1.501  0.4512 -0.0176 -1.6854
13429SOL     OW40971   1.663   3.169   4.908  0.1750  0.5202  0.0762
13429SOL    HW140972   1.751   3.185   4.943  0.5396  0.8688 -0.9671
13429SOL    HW240973   1.632   3.092   4.956  1.1843  0.1903  0.2268
13430SOL     OW40974   6.188   1.170   0.008  0.4079 -0.0081  0.0773
13430SOL    HW140975   6.271   1.131  -0.020  0.7342  0.2723  0.6285
13430SOL    HW240976   6.152   1.106   0.070  0.8323  0.4500  0.8063
13431SOL     OW40977   4.229   3.665   5.972 -0.8087 -0.4949 -0.1281
13431SOL    HW140978   4.285   3.723   5.922 -0.0059 -1.0837  0.0689
13431SOL    HW240979   4.215   3.589   5.916  1.2375 -1.7920  1.0083
13432SOL     OW40980   3.030   7.035   1.125 -0.0416  0.2832 -0.0872
13432SOL    HW140981   3.072   7.089   1.193 -0.2993  0.2695  0.0828
13432SOL    HW240982   2.973   6.975   1.174 -0.2991  0.3376 -0.3207
13433SOL     OW40983   2.067   0.803   5.227  0.4160 -0.5638  0.3339
13433SOL    HW140984   2.145   0.756   5.197  1.9764  2.8304 -1.4593
13433SOL    HW240985   1.997   0.775   5.168  1.1265 -1.0987 -0.2701
13434SOL     OW40986   0.326   7.500   3.570  0.3157  0.3973  0.2577
13434SOL    HW140987   0.387   7.476   3.499 -1.9308 -1.6690 -1.1314
13434SOL    HW240988   0.322   7.422   3.625 -1.3995  0.2882  0.0288
13435SOL     OW40989   0.032   6.482   3.946  0.3144  0.5176  0.2236
13435SOL    HW140990   0.049   6.389   3.928 -1.0730  0.2061  0.4092
13435SOL    HW240991   0.053   6.526   3.864 -2.1222 -0.4038 -1.0157
13436SOL     OW40992   0.503   5.327   7.653  0.4811  0.0195  0.3705
13436SOL    HW140993   0.522   5.420   7.640  2.1729 -0.4005 -0.3421
13436SOL    HW240994   0.419   5.326   7.700 -0.2614  1.8654 -0.7997
13437SOL     OW40995   0.488   4.847   4.716 -0.5977  0.2055  0.2813
13437SOL    HW140996   0.580   4.865   4.736 -0.1961  0.6158 -1.7233
13437SOL    HW240997   0.474   4.758   4.749  0.3644  0.3047  1.0356
13438SOL     OW40998   6.891   5.460   0.651 -0.0633 -0.0932  0.1279
13438SOL    HW140999   6.968   5.435   0.703  0.0218 -0.3205 -0.0997
13438SOL    HW241000   6.917   5.440   0.561  0.5131  2.0576 -0.2343
13439SOL     OW41001   0.168   1.589   5.457  0.0770 -0.4736 -0.2217
13439SOL    HW141002   0.138   1.519   5.398  1.1413 -1.3751  0.2711
13439SOL    HW241003   0.166   1.668   5.404 -2.3558 -0.6142 -0.4489
13440SOL     OW41004   5.560   0.248   7.541  0.0836  0.5761  0.7222
13440SOL    HW141005   5.576   0.267   7.633  1.7341  0.2938  0.5280
13440SOL    HW241006   5.646   0.257   7.499 -0.3881 -0.5393 -0.5630
13441SOL     OW41007   7.027   0.027   4.299  0.0317 -0.5815 -0.6117
13441SOL    HW141008   6.961  -0.036   4.328 -2.0481  2.4611  2.0500
13441SOL    HW241009   7.050   0.076   4.379  3.3716  0.4233 -2.0362
13442SOL     OW41010   4.955   1.055   2.972 -0.2319  0.5373  0.2108
13442SOL    HW141011   4.979   1.147   2.959 -1.7953  1.1219  1.1268
13442SOL    HW241012   4.861   1.057   2.990 -0.6244 -1.4182 -1.3064
13443SOL     OW41013   1.121   1.126   5.154 -0.0097 -0.0086  0.1594
13443SOL    HW141014   1.074   1.090   5.080  1.8153  1.8812 -2.0658
13443SOL    HW241015   1.078   1.210   5.172 -0.7573 -0.6748  1.6251
13444SOL     OW41016   6.600   5.574   1.391 -0.3725  0.1652 -0.3508
13444SOL    HW141017   6.570   5.537   1.475  0.3711  1.4447  0.5160
13444SOL    HW241018   6.564   5.515   1.325  0.6311 -2.0389  0.9341
13445SOL     OW41019   1.617   0.110   2.603 -0.3641  0.2841  0.1940
13445SOL    HW141020   1.652   0.113   2.692 -0.4305  0.7399  0.2086
13445SOL    HW241021   1.550   0.041   2.605  0.9769 -1.0807 -0.0069
13446SOL     OW41022   4.117   3.325   5.601 -0.0260  0.2022  0.5153
13446SOL    HW141023   4.076   3.247   5.638  0.0514 -0.3269 -0.4954
13446SOL    HW241024   4.116   3.311   5.507  2.0248  0.3917  0.4159
13447SOL     OW41025   2.211   0.129   5.863 -0.1299  0.3828 -0.2355
13447SOL    HW141026   2.293   0.087   5.890 -0.9898 -1.7260 -0.6553
13447SOL    HW241027   2.194   0.094   5.776 -1.0234  1.5121 -0.5285
13448SOL     OW41028   2.707   5.033   0.715 -0.0433  0.3232 -0.2161
13448SOL    HW141029   2.655   5.059   0.640  0.5696  1.5119 -0.2524
13448SOL    HW241030   2.749   4.951   0.688  0.4359  0.9065 -1.3094
13449SOL     OW41031   3.113   6.857   5.939  0.2272 -0.5853  0.0533
13449SOL    HW141032   3.131   6.803   5.862  0.6812 -0.8154  0.3172
13449SOL    HW241033   3.076   6.797   6.003  1.3530 -0.7350  0.5845
13450SOL     OW41034   5.912   5.864   4.046 -0.1255  0.3359  0.6689
13450SOL    HW141035   5.923   5.810   3.968  0.3753  0.2616  0.7841
13450SOL    HW241036   5.835   5.917   4.028 -1.4039 -1.2924  1.0516
13451SOL     OW41037   6.085   3.383   5.004 -0.4246 -0.2471 -0.1660
13451SOL    HW141038   5.998   3.395   5.042 -0.1371 -2.0975  1.1839
13451SOL    HW241039   6.101   3.289   5.009  1.0603 -0.1410 -1.7984
13452SOL     OW41040   7.077   4.783   0.670 -0.0139 -0.1464 -0.4300
13452SOL    HW141041   7.006   4.733   0.710  0.6693 -2.2055 -1.5906
13452SOL    HW241042   7.034   4.842   0.608 -0.8072 -0.1007  0.1603
13453SOL     OW41043   3.208   5.958   4.656 -0.1818  0.1715 -0.9091
13453SOL    HW141044   3.191   5.894   4.587 -0.7121  0.2081 -0.8128
13453SOL    HW241045   3.250   5.908   4.726 -1.1644 -0.2022 -0.5764
13454SOL     OW41046   5.011   6.735   6.608 -0.0966 -0.1317  0.6127
13454SOL    HW141047   4.923   6.772   6.603  0.1520  0.3352 -1.0955
13454SOL    HW241048   5.027   6.699   6.520  1.7044  0.4916  0.6471
13455SOL     OW41049   3.069   2.130   4.742 -0.2118 -0.0810 -0.2524
13455SOL    HW141050   3.111   2.062   4.795  1.1865  0.0373 -1.1474
13455SOL    HW241051   2.987   2.089   4.712 -0.5430 -0.4934  1.1552
13456SOL     OW41052   4.663   4.504   4.003  0.0896  0.3704 -0.0735
13456SOL    HW141053   4.607   4.484   3.928 -2.0443  1.5430  1.0972
13456SOL    HW241054   4.730   4.563   3.968 -1.7148  2.0794 -0.8439
13457SOL     OW41055   4.155   7.269   3.937  0.5994  0.6552 -0.0394
13457SOL    HW141056   4.084   7.206   3.925 -2.1198  3.8176 -2.7390
13457SOL    HW241057   4.188   7.253   4.025 -2.3062 -2.0998  0.7136
13458SOL     OW41058   5.070   7.328   1.504  0.4281 -0.1720  0.0845
13458SOL    HW141059   5.111   7.365   1.426 -0.8499  2.0263  0.3530
13458SOL    HW241060   5.143   7.306   1.561  1.3218  0.2126 -0.8730
13459SOL     OW41061   6.896   6.917   0.851 -0.0016 -0.3749 -0.1280
13459SOL    HW141062   6.836   6.852   0.886  1.3164 -1.1047  0.8744
13459SOL    HW241063   6.966   6.923   0.916  2.0089 -0.9901 -2.0938
13460SOL     OW41064   2.678   0.795   1.235 -0.8267  0.5028  0.1344
13460SOL    HW141065   2.656   0.883   1.205  0.7057  0.8646 -0.0272
13460SOL    HW241066   2.672   0.799   1.330 -1.7087  0.4956  0.0858
13461SOL     OW41067   2.309   6.371   5.537  1.0234 -0.0509  0.4187
13461SOL    HW141068   2.272   6.337   5.456  1.6792 -0.9997  0.5064
13461SOL    HW241069   2.236   6.373   5.599  0.1049  2.1965 -0.5940
13462SOL     OW41070   7.458   3.377   1.193 -0.3050 -0.1098 -0.2254
13462SOL    HW141071   7.432   3.296   1.236 -0.5487 -0.7711 -1.5690
13462SOL    HW241072   7.424   3.446   1.250  0.9153 -0.8934  1.5640
13463SOL     OW41073   6.948   0.605   2.116 -0.6617 -0.2950 -0.4145
13463SOL    HW141074   6.913   0.690   2.089  3.5020  1.5136 -0.8475
13463SOL    HW241075   6.972   0.562   2.034  0.7327 -0.1516 -0.1104
13464SOL     OW41076   0.192   6.009   1.337 -0.2166 -0.1190 -0.0786
13464SOL    HW141077   0.261   6.069   1.307  0.2313 -0.1496  0.8630
13464SOL    HW241078   0.195   5.936   1.275 -0.1751  0.4090 -0.7134
13465SOL     OW41079   0.395   1.763   0.167  0.5124 -0.2078  0.6994
13465SOL    HW141080   0.374   1.682   0.122  1.3608  0.2225 -0.5471
13465SOL    HW241081   0.413   1.737   0.257  0.5371 -1.3689  0.3765
13466SOL     OW41082   6.803   1.590   2.698  0.1360 -0.3413 -0.0300
13466SOL    HW141083   6.711   1.579   2.676  0.1756  0.3280 -0.5316
13466SOL    HW241084   6.825   1.679   2.671  0.6068 -0.0436  1.2193
13467SOL     OW41085   6.016   1.387   3.493  0.1779 -0.3911  0.2790
13467SOL    HW141086   6.097   1.351   3.530  1.4553  3.0535  1.2775
13467SOL    HW241087   6.035   1.397   3.400  0.4960 -0.5485  0.3236
13468SOL     OW41088   0.116   0.848   4.251  0.3658  0.3443  0.1956
13468SOL    HW141089   0.025   0.877   4.261 -0.5372 -2.1933  0.1597
13468SOL    HW241090   0.112   0.780   4.183  2.1617 -0.3012  0.6796
13469SOL     OW41091   0.112   0.105   5.466 -0.7943  0.6460 -0.3466
13469SOL    HW141092   0.091   0.163   5.393  0.0036 -0.2114 -1.3020
13469SOL    HW241093   0.189   0.145   5.507  0.3682 -0.1920 -1.6119
13470SOL     OW41094   5.645   0.007   6.833 -0.6082  0.1573  0.1814
13470SOL    HW141095   5.641  -0.058   6.763  0.2011 -0.5419  0.7601
13470SOL    HW241096   5.556   0.010   6.868 -0.4730 -1.2552  0.6898
13471SOL     OW41097   4.169   1.305   7.336  0.3408 -0.3143 -0.8847
13471SOL    HW141098   4.084   1.336   7.305  0.2101 -1.5308 -1.8211
13471SOL    HW241099   4.233   1.348   7.278  0.3978  0.7482 -0.0598
13472SOL     OW41100   5.455   6.658   0.934  0.3640  0.4704 -0.0962
13472SOL    HW141101   5.419   6.677   0.847 -0.4122  2.4032  0.5851
13472SOL    HW241102   5.381   6.624   0.984  0.2133  1.4761  0.4085
13473SOL     OW41103   4.236   5.060   7.364 -0.3964  0.2123 -0.2802
13473SOL    HW141104   4.323   5.100   7.367  0.5667 -1.5835 -1.8790
13473SOL    HW241105   4.180   5.127   7.325  0.7080  0.7410 -1.0155
13474SOL     OW41106   6.803   5.860   4.594 -0.0293  0.1584  0.2402
13474SOL    HW141107   6.777   5.943   4.633  1.0681 -0.0707  1.5503
13474SOL    HW241108   6.863   5.821   4.658 -1.1325 -2.0272  0.0337
13475SOL     OW41109   3.031   4.094   5.677  0.4885  0.2124  0.2224
13475SOL    HW141110   3.076   4.037   5.740  0.0543  1.3030  1.5746
13475SOL    HW241111   3.060   4.063   5.591  0.8545 -1.5379  0.9314
13476SOL     OW41112   6.219   5.622   0.367 -0.2322  0.0611 -0.1936
13476SOL    HW141113   6.275   5.642   0.292  0.4713 -2.0121 -0.2897
13476SOL    HW241114   6.160   5.697   0.374  1.0119  1.2296 -1.5542
13477SOL     OW41115   7.704   4.828   1.876 -0.2851  0.2775 -0.3490
13477SOL    HW141116   7.707   4.870   1.790 -0.9382 -1.2390 -1.1478
13477SOL    HW241117   7.794   4.802   1.894 -0.1824  0.4062 -0.6749
13478SOL     OW41118   5.083   6.657   6.358  0.4165  0.3947 -0.0236
13478SOL    HW141119   5.094   6.664   6.263 -1.3603 -0.0095 -0.2962
13478SOL    HW241120   5.048   6.569   6.372  0.2455  0.6014  0.9546
13479SOL     OW41121   2.893   4.323   1.988 -0.8630 -0.5694  0.2602
13479SOL    HW141122   2.976   4.281   1.968 -0.6034  0.2992 -0.5400
13479SOL    HW241123   2.830   4.282   1.928 -0.7622 -0.3348 -0.0034
13480SOL     OW41124   4.454   1.783   3.480  0.0771 -0.0090  0.2371
13480SOL    HW141125   4.423   1.712   3.423  0.5873 -1.5480  1.7969
13480SOL    HW241126   4.466   1.857   3.420  1.2346 -1.7238 -1.8157
13481SOL     OW41127   3.562   7.303   2.154  0.4107 -0.1305 -0.1307
13481SOL    HW141128   3.633   7.305   2.090  0.6177 -0.5271  0.0787
13481SOL    HW241129   3.492   7.355   2.115  0.2218 -1.0384 -1.0553
13482SOL     OW41130   5.957   5.231   6.438 -0.2620  0.4556  1.0930
13482SOL    HW141131   5.969   5.139   6.462 -1.0703  0.5542  1.9485
13482SOL    HW241132   5.912   5.269   6.514 -0.2826  1.4646  0.5853
13483SOL     OW41133   0.606   2.732   3.469 -0.4684 -0.2379 -0.1580
13483SOL    HW141134   0.605   2.736   3.565 -0.1008  1.0282 -0.1866
13483SOL    HW241135   0.651   2.812   3.443 -0.4737 -0.6273 -1.3928
13484SOL     OW41136   7.120   3.599   0.672  0.0455  0.4615 -0.2953
13484SOL    HW141137   7.111   3.552   0.755 -2.2596 -1.5021 -1.5475
13484SOL    HW241138   7.212   3.588   0.649 -0.1106 -2.4411  0.1090
13485SOL     OW41139   5.107   1.237   3.402  0.1551  0.6522  0.0490
13485SOL    HW141140   5.115   1.157   3.455 -0.3351  0.7714  0.3148
13485SOL    HW241141   5.035   1.285   3.443  0.9130  1.5755  0.3376
13486SOL     OW41142   7.623   1.165   4.839  0.6611  0.3366  0.0329
13486SOL    HW141143   7.698   1.147   4.895  0.3745 -0.0941  0.2820
13486SOL    HW241144   7.599   1.256   4.861  1.6451  0.7935 -0.6906
13487SOL     OW41145   5.421   5.279   4.728  0.0230  0.0423  0.4755
13487SOL    HW141146   5.388   5.330   4.802  1.5525  0.0760  1.1775
13487SOL    HW241147   5.491   5.334   4.691 -0.8520  0.1279 -1.1494
13488SOL     OW41148   4.157   0.586   5.090  0.1023  0.3087 -0.2321
13488SOL    HW141149   4.194   0.604   5.004 -0.7290 -0.5584 -0.7904
13488SOL    HW241150   4.155   0.671   5.134  0.4101  0.7813 -1.1197
13489SOL     OW41151   4.613   3.258   2.781  0.1525  0.1686  0.1319
13489SOL    HW141152   4.688   3.204   2.804  0.6850  0.3799 -1.0419
13489SOL    HW241153   4.543   3.228   2.838  0.7285 -1.0557  0.2112
13490SOL     OW41154   3.520   5.184   2.506 -0.0582  0.4052 -0.4463
13490SOL    HW141155   3.534   5.164   2.413 -1.2731 -1.4723 -0.2756
13490SOL    HW241156   3.430   5.157   2.523  0.0099  1.1018  1.2044
13491SOL     OW41157   3.023   4.488   6.455 -0.2791  0.2612 -0.6800
13491SOL    HW141158   3.075   4.557   6.414  0.6744 -0.5885 -0.9378
13491SOL    HW241159   3.042   4.495   6.548 -2.1722  1.9630 -0.3283
13492SOL     OW41160   2.129   2.332   1.717  0.2216 -0.6947  0.3472
13492SOL    HW141161   2.107   2.333   1.810  0.1148 -0.3409  0.3212
13492SOL    HW241162   2.212   2.379   1.711  0.7401 -1.6036  0.3843
13493SOL     OW41163   3.713   6.128   1.125  0.0633  0.5311 -0.2025
13493SOL    HW141164   3.637   6.072   1.108  1.7069 -1.7131 -0.5789
13493SOL    HW241165   3.679   6.197   1.183 -2.1726 -0.5557 -0.1056
13494SOL     OW41166   7.686   7.547   2.271 -0.0552 -0.0165 -0.1472
13494SOL    HW141167   7.763   7.530   2.327  0.2525  3.0008  0.5263
13494SOL    HW241168   7.613   7.509   2.319  0.5457  0.3611  1.1086
13495SOL     OW41169   6.729   6.033   3.484 -0.6498  0.8469 -0.6501
13495SOL    HW141170   6.691   6.089   3.551 -0.5371 -1.0767  1.1073
13495SOL    HW241171   6.778   5.966   3.532  2.0375  1.1246 -2.7238
13496SOL     OW41172   4.538   2.189   1.221  0.1515  0.4235 -0.3027
13496SOL    HW141173   4.572   2.277   1.205  0.4780  0.0235 -1.9631
13496SOL    HW241174   4.454   2.204   1.264  0.6737  1.5081  0.3980
13497SOL     OW41175   5.708   1.289   5.425 -0.1104  0.0035  0.4613
13497SOL    HW141176   5.613   1.286   5.413 -0.0881 -0.4777  0.3743
13497SOL    HW241177   5.723   1.361   5.485 -0.3230  1.8191 -1.5527
13498SOL     OW41178   6.903   6.437   1.747 -0.5644  0.3942 -0.2107
13498SOL    HW141179   6.851   6.454   1.669 -1.4198 -1.3722 -0.0755
13498SOL    HW241180   6.858   6.484   1.817  0.2536  2.0563 -0.7257
13499SOL     OW41181   5.393   5.436   6.776 -0.0915  0.0094  0.0663
13499SOL    HW141182   5.419   5.346   6.797  0.1527  0.0099 -0.2340
13499SOL    HW241183   5.468   5.489   6.803  0.0455  0.0541 -0.3950
13500SOL     OW41184   3.133   5.301   5.194 -0.3538 -0.3328 -0.3054
13500SOL    HW141185   3.134   5.396   5.205  1.0720 -0.1760 -1.4546
13500SOL    HW241186   3.068   5.287   5.125  0.0829 -0.0808 -0.7824
13501SOL     OW41187   1.349   3.966   4.843  0.0963  0.1073 -0.1033
13501SOL    HW141188   1.275   3.974   4.903  0.8413  1.5451  0.6822
13501SOL    HW241189   1.325   3.894   4.784 -2.6299  1.4845 -0.8586
13502SOL     OW41190   2.450   1.641   2.396  0.0810 -0.1854  0.1396
13502SOL    HW141191   2.414   1.562   2.437 -0.4747  0.2441  0.4795
13502SOL    HW241192   2.542   1.642   2.426  0.4533 -1.3724 -0.8775
13503SOL     OW41193   0.409   5.468   2.116 -0.3755  0.3908 -0.6369
13503SOL    HW141194   0.495   5.477   2.076  1.0547 -1.8523  1.6715
13503SOL    HW241195   0.380   5.558   2.132  0.5610  1.2512 -3.2290
13504SOL     OW41196   5.003   5.460   7.179 -1.1861 -0.7007 -0.0027
13504SOL    HW141197   5.040   5.428   7.262 -3.3585 -0.4842  1.1187
13504SOL    HW241198   5.078   5.462   7.119  0.7165  0.1336  2.2198
13505SOL     OW41199   4.387   5.660   1.916  0.3372 -0.3198 -0.3891
13505SOL    HW141200   4.380   5.643   1.822  0.0831 -0.3881 -0.3580
13505SOL    HW241201   4.474   5.627   1.940  0.8981  0.8184 -0.8356
13506SOL     OW41202   7.051   2.939   4.107  0.0240  0.1602 -0.4385
13506SOL    HW141203   7.058   2.984   4.023 -1.6086  1.7256  0.2035
13506SOL    HW241204   6.994   2.996   4.160 -0.5658 -1.7341  1.0674
13507SOL     OW41205   5.173   4.180   3.020  0.1611 -0.0531  0.4099
13507SOL    HW141206   5.207   4.165   2.932 -0.4569  0.1902  0.1197
13507SOL    HW241207   5.172   4.094   3.060  0.6730 -0.1304  0.2620
13508SOL     OW41208   7.294   0.938   4.769  0.2566 -0.6875  0.1543
13508SOL    HW141209   7.209   0.907   4.801  0.6071 -2.9515 -0.9456
13508SOL    HW241210   7.272   1.000   4.700 -0.4691  0.5310  1.4207
13509SOL     OW41211   5.907   7.048   3.775  0.2680  0.3993 -0.6114
13509SOL    HW141212   5.976   7.027   3.839  1.2377  0.8335 -1.4873
13509SOL    HW241213   5.931   6.998   3.697 -0.2975  0.7205 -0.9944
13510SOL     OW41214   3.224   1.309   2.354  0.0197  0.0734 -0.6367
13510SOL    HW141215   3.256   1.397   2.371 -0.4999  0.3246 -0.9424
13510SOL    HW241216   3.200   1.275   2.441 -2.1466  1.1652 -0.7676
13511SOL     OW41217   6.969   6.745   6.499  0.1982 -0.1195  0.1689
13511SOL    HW141218   7.038   6.782   6.444 -0.1366 -0.5504 -0.5475
13511SOL    HW241219   6.902   6.714   6.438 -0.1020 -0.7673  0.7999
13512SOL     OW41220   3.852   4.854   2.983 -0.4152  0.3722 -0.3211
13512SOL    HW141221   3.939   4.871   3.019 -0.3306 -1.6652  0.5655
13512SOL    HW241222   3.868   4.800   2.905 -0.8211  1.3868 -1.1352
13513SOL     OW41223   3.899   6.404   5.480 -0.5204 -0.2995  0.5924
13513SOL    HW141224   3.841   6.470   5.442 -0.5626 -0.3705  0.5326
13513SOL    HW241225   3.948   6.369   5.406  0.4225  0.5489  0.7821
13514SOL     OW41226   2.984   2.848   6.686 -0.1969 -0.2851 -0.0392
13514SOL    HW141227   3.054   2.856   6.751  0.8689 -0.0260 -1.1965
13514SOL    HW241228   3.026   2.865   6.602 -1.5585 -0.5774 -0.8146
13515SOL     OW41229   5.056   4.061   5.184 -0.3314  0.8728 -0.1589
13515SOL    HW141230   5.089   4.099   5.266  0.4914 -0.5231  0.1758
13515SOL    HW241231   5.124   4.080   5.120  0.1140 -0.0683  0.0246
13516SOL     OW41232   6.753   4.751   1.402  0.1827 -0.2987 -0.1099
13516SOL    HW141233   6.827   4.772   1.345  0.8272 -0.5806  0.6059
13516SOL    HW241234   6.732   4.834   1.446 -1.6062  0.4514 -2.1381
13517SOL     OW41235   5.186   1.294   2.411  0.1081 -0.4180 -0.4066
13517SOL    HW141236   5.194   1.201   2.432 -0.3275 -0.4484 -0.3704
13517SOL    HW241237   5.092   1.312   2.413  0.1453 -0.1261 -1.0585
13518SOL     OW41238   2.792   0.012   3.714  0.2707  0.4609  0.2815
13518SOL    HW141239   2.782   0.096   3.758  1.3597  0.0303  1.4033
13518SOL    HW241240   2.711  -0.036   3.734 -0.3494  1.2105 -0.3556
13519SOL     OW41241   2.910   2.274   6.573  0.0971 -0.4767  0.5140
13519SOL    HW141242   2.820   2.248   6.554  0.3346  0.5220 -2.3981
13519SOL    HW241243   2.905   2.368   6.589  0.5172 -0.5900  1.3673
13520SOL     OW41244   0.948   0.470   0.671  0.1399  0.8421  0.9138
13520SOL    HW141245   0.987   0.392   0.712 -0.7038 -0.2450 -0.2917
13520SOL    HW241246   0.871   0.489   0.724 -0.5022 -0.0819  0.3365
13521SOL     OW41247   1.450   4.913   3.058 -0.4442  0.0595  0.0113
13521SOL    HW141248   1.407   4.838   3.099 -0.4013 -0.3991 -0.7642
13521SOL    HW241249   1.433   4.902   2.965  1.2090 -0.0439 -0.3038
13522SOL     OW41250   3.043   6.307   4.673 -0.0388 -0.0146 -0.4335
13522SOL    HW141251   3.128   6.281   4.639 -0.8287 -1.0801 -1.6715
13522SOL    HW241252   3.026   6.392   4.632  0.1785 -0.0617 -0.6192
13523SOL     OW41253   4.608   2.970   6.919 -0.5468  0.2239  0.0374
13523SOL    HW141254   4.585   2.976   6.826  0.7711 -0.0224 -0.3294
13523SOL    HW241255   4.615   2.876   6.936  2.2965  0.2302 -0.4883
13524SOL     OW41256   7.581   1.406   3.613 -0.0444 -0.6434 -0.2388
13524SOL    HW141257   7.619   1.376   3.530 -1.2512 -0.2661 -0.9426
13524SOL    HW241258   7.512   1.342   3.632 -1.4289  0.6187 -0.8209
13525SOL     OW41259   1.792   3.117   3.723  0.1263 -0.2318  0.1066
13525SOL    HW141260   1.799   3.138   3.816  0.9373 -0.8464  0.1938
13525SOL    HW241261   1.870   3.155   3.683  1.9831 -3.4154  0.3732
13526SOL     OW41262   3.520   5.163   0.199  0.8592  0.3513 -0.1584
13526SOL    HW141263   3.552   5.237   0.250  2.7256 -0.1493 -0.5395
13526SOL    HW241264   3.561   5.087   0.240 -1.6505 -0.6306  0.7491
13527SOL     OW41265   1.044   0.950   2.162  0.3415 -0.2119 -0.1946
13527SOL    HW141266   0.960   0.996   2.159  0.3058 -0.3381 -1.4539
13527SOL    HW241267   1.087   0.986   2.240 -0.9730 -0.3342  0.6317
13528SOL     OW41268   6.730   2.208   3.849 -0.6698  0.0658 -0.6392
13528SOL    HW141269   6.682   2.174   3.924 -0.2962 -0.1966 -0.5180
13528SOL    HW241270   6.820   2.218   3.880  0.3485 -3.3263 -1.9945
13529SOL     OW41271   6.902   4.757   6.452  0.0872  0.6915  0.3137
13529SOL    HW141272   6.820   4.759   6.502 -1.0804  1.3659 -1.5058
13529SOL    HW241273   6.888   4.820   6.381  1.5816 -0.3433 -0.9567
13530SOL     OW41274   1.089   1.728   2.690 -0.0603  0.2631 -0.0943
13530SOL    HW141275   1.125   1.669   2.755  1.0300  0.1520 -0.7661
13530SOL    HW241276   0.996   1.708   2.688 -0.1412  0.3517  1.4889
13531SOL     OW41277   6.041   0.555   7.182 -0.0512  0.4892 -0.4897
13531SOL    HW141278   6.047   0.502   7.103 -1.4605 -0.4237 -0.0244
13531SOL    HW241279   6.123   0.605   7.184  0.6629 -0.5743 -1.7297
13532SOL     OW41280   4.397   2.674   5.005  1.1630 -0.1231  0.0520
13532SOL    HW141281   4.465   2.735   5.031 -1.3180  2.1643  1.6962
13532SOL    HW241282   4.345   2.722   4.941 -0.0919 -1.0157  0.3606
13533SOL     OW41283   1.406   7.757   0.035  0.1595 -0.3624 -0.0259
13533SOL    HW141284   1.493   7.718   0.037  0.4456  0.2704  1.7906
13533SOL    HW241285   1.372   7.736  -0.052  1.4768 -2.0090 -0.1888
13534SOL     OW41286   1.864   0.713   4.464 -0.2289 -0.3417 -0.1457
13534SOL    HW141287   1.955   0.742   4.455  0.0607 -1.0903  0.3286
13534SOL    HW241288   1.857   0.637   4.406 -0.5422 -0.3182 -0.1423
13535SOL     OW41289   6.215   1.852   6.813  0.2600 -0.3260  0.3772
13535SOL    HW141290   6.209   1.946   6.798 -1.5485 -0.7212 -1.7784
13535SOL    HW241291   6.215   1.843   6.909 -0.7368  1.7976  0.6334
13536SOL     OW41292   2.758   2.834   5.350  0.4222  0.2017  0.0899
13536SOL    HW141293   2.766   2.745   5.316  1.5440  0.4569 -0.3696
13536SOL    HW241294   2.833   2.844   5.408  0.2043  0.7868  0.2765
13537SOL     OW41295   3.052   4.717   1.547  0.0063  0.0114  0.0256
13537SOL    HW141296   3.064   4.650   1.481 -1.4419  0.2856 -0.5443
13537SOL    HW241297   3.138   4.758   1.556  0.3840 -0.4923 -1.1789
13538SOL     OW41298   4.858   3.009   2.902  0.4556  0.4245  0.3719
13538SOL    HW141299   4.901   3.065   2.837 -1.1908 -0.2886 -1.4193
13538SOL    HW241300   4.887   2.920   2.879 -2.1919 -0.1416 -1.2234
13539SOL     OW41301   5.632   0.683   4.411 -0.7662  0.9482  0.1362
13539SOL    HW141302   5.678   0.722   4.337  0.6058  1.0673  1.0276
13539SOL    HW241303   5.651   0.740   4.484 -3.4303  1.7472  0.3215
13540SOL     OW41304   4.892   7.552   6.489  0.1497  0.5115  0.3897
13540SOL    HW141305   4.823   7.606   6.452 -0.2183 -0.0745  0.2255
13540SOL    HW241306   4.956   7.616   6.522 -0.5310  1.0612  0.6857
13541SOL     OW41307   4.895   4.028   6.707 -0.0429 -0.3852  0.1582
13541SOL    HW141308   4.835   3.955   6.696 -0.7359  0.2474 -0.4512
13541SOL    HW241309   4.881   4.057   6.797 -0.0962 -0.7197  0.2594
13542SOL     OW41310   5.646   6.971   1.632  0.2699  0.7763 -0.1673
13542SOL    HW141311   5.727   6.975   1.683  0.5084  0.0312 -0.4711
13542SOL    HW241312   5.670   6.922   1.553  0.0038  2.2051 -1.1878
13543SOL     OW41313   4.229   3.624   1.984  0.1089 -0.2270  0.1469
13543SOL    HW141314   4.138   3.650   2.000 -0.1353 -0.9364 -0.0774
13543SOL    HW241315   4.269   3.702   1.945 -0.5396 -0.0779 -0.2399
13544SOL     OW41316   4.195   5.551   2.129  0.0717  0.1771 -0.1057
13544SOL    HW141317   4.280   5.588   2.105  1.1940 -1.7526  0.6690
13544SOL    HW241318   4.140   5.563   2.051  1.0873  1.2555 -0.6900
13545SOL     OW41319   4.010   4.915   1.845  0.0328  0.1473 -0.3679
13545SOL    HW141320   3.957   4.978   1.797 -0.8942  1.4860  2.1857
13545SOL    HW241321   4.099   4.950   1.841 -0.2535  0.9263 -0.0654
13546SOL     OW41322   4.291   5.342   5.118  0.6404  0.1473  0.6810
13546SOL    HW141323   4.209   5.299   5.092  0.7537  1.0030 -1.2516
13546SOL    HW241324   4.269   5.389   5.199 -1.1951  1.4765 -0.5272
13547SOL     OW41325   0.275   3.177   1.710 -0.2442  0.0631 -0.0448
13547SOL    HW141326   0.358   3.181   1.661 -0.7488  3.0352 -0.8818
13547SOL    HW241327   0.254   3.084   1.714  3.4751 -0.9131  0.8867
13548SOL     OW41328   2.645   2.393   7.723  0.8837 -0.3288 -0.5519
13548SOL    HW141329   2.641   2.343   7.805  1.2327  0.9435  0.2741
13548SOL    HW241330   2.570   2.452   7.728 -0.3659 -1.6770 -2.1734
13549SOL     OW41331   4.699   1.819   7.076 -0.1636  0.0962  0.5070
13549SOL    HW141332   4.760   1.839   7.147 -1.1254  1.2894  1.0198
13549SOL    HW241333   4.696   1.723   7.074  3.0716 -0.0987 -0.7335
13550SOL     OW41334   1.582   5.027   7.322 -0.1021  0.0718  0.1551
13550SOL    HW141335   1.580   5.028   7.418 -0.3252 -0.4504  0.1580
13550SOL    HW241336   1.638   4.952   7.300  1.7399  1.4535 -0.1122
13551SOL     OW41337   4.813   3.969   4.183 -0.1365  0.1962  0.3057
13551SOL    HW141338   4.824   3.886   4.230  0.7038 -0.0542 -0.3009
13551SOL    HW241339   4.885   4.024   4.214  0.3518  0.0727 -0.5783
13552SOL     OW41340   5.728   6.281   4.236 -0.2499  0.2411 -0.1997
13552SOL    HW141341   5.814   6.267   4.276 -0.0992  1.9182  0.1413
13552SOL    HW241342   5.729   6.228   4.157  1.5580  1.1291 -0.8226
13553SOL     OW41343   3.549   7.220   0.419  0.1335  0.0065  0.9817
13553SOL    HW141344   3.530   7.301   0.467  0.5012 -0.2572  1.5908
13553SOL    HW241345   3.565   7.155   0.488 -0.7339 -0.7304  0.4995
13554SOL     OW41346   2.343   7.003   2.104  0.0175  0.1032  0.2306
13554SOL    HW141347   2.406   6.992   2.033 -1.8433  0.0885 -1.5221
13554SOL    HW241348   2.390   7.056   2.169  1.8344  0.0435 -0.9417
13555SOL     OW41349   5.906   5.914   4.658 -0.1839 -0.6450 -0.3129
13555SOL    HW141350   5.891   5.887   4.748  3.4687 -1.0516  0.3300
13555SOL    HW241351   5.857   5.996   4.649  1.6183  1.0576  3.1040
13556SOL     OW41352   5.637   4.050   1.657  0.1806  0.4136 -0.1712
13556SOL    HW141353   5.590   4.022   1.736  0.0327 -0.4140 -0.5442
13556SOL    HW241354   5.580   4.025   1.585  1.2072 -0.6630 -0.6386
13557SOL     OW41355   1.389   6.540   3.042 -0.0265  0.1786 -0.2220
13557SOL    HW141356   1.371   6.565   2.952  1.5995 -1.0349 -0.9423
13557SOL    HW241357   1.344   6.606   3.095  0.1010  1.7176 -1.9274
13558SOL     OW41358   3.201   3.959   4.346  0.0419 -0.1059  0.4265
13558SOL    HW141359   3.139   3.890   4.322 -0.5341  0.4723  0.2358
13558SOL    HW241360   3.192   4.025   4.278 -0.8066  1.0422  1.5987
13559SOL     OW41361   2.229   2.169   6.773 -0.1819 -0.2966  0.4589
13559SOL    HW141362   2.182   2.126   6.844  1.7361 -2.0357  0.7630
13559SOL    HW241363   2.320   2.173   6.802  0.1186  2.0763 -0.4979
13560SOL     OW41364   4.035   2.637   4.212  0.9593  0.2632  0.4688
13560SOL    HW141365   3.953   2.592   4.192  0.4072  0.5287  1.9726
13560SOL    HW241366   4.046   2.700   4.140  0.2321 -0.2747 -0.1283
13561SOL     OW41367   2.146   3.362   1.366 -0.0696 -0.0957  0.3336
13561SOL    HW141368   2.234   3.396   1.349  0.6831 -1.5969  1.0512
13561SOL    HW241369   2.111   3.341   1.280  0.4271  0.1543  0.0693
13562SOL     OW41370   0.339   4.143   0.301 -0.6188 -0.2172  0.5055
13562SOL    HW141371   0.346   4.068   0.360 -0.3058 -0.0633  0.6692
13562SOL    HW241372   0.426   4.183   0.303 -0.3940 -0.6409 -0.6544
13563SOL     OW41373   5.133   0.528   0.664  0.5257  0.3929 -0.2062
13563SOL    HW141374   5.200   0.497   0.725  0.7388  1.1250 -0.0524
13563SOL    HW241375   5.097   0.606   0.706 -1.8371 -1.0612  0.6706
13564SOL     OW41376   6.945   3.972   5.441  0.3568 -0.1243  0.6176
13564SOL    HW141377   6.969   4.045   5.384 -1.0290  0.1956  0.3982
13564SOL    HW241378   6.982   3.993   5.526 -0.2213  0.9692  0.6163
13565SOL     OW41379   2.179   4.369   5.543 -0.3429  0.3015 -0.1095
13565SOL    HW141380   2.139   4.284   5.561  0.5198  0.1665  1.3894
13565SOL    HW241381   2.271   4.349   5.525  0.0097  0.9407  0.8767
13566SOL     OW41382   0.610   7.472   5.557 -0.0675 -0.1198  0.1056
13566SOL    HW141383   0.639   7.419   5.631  1.4634 -0.1702 -0.4970
13566SOL    HW241384   0.551   7.416   5.508  0.5393 -0.8343  0.1769
13567SOL     OW41385   2.403   2.226   5.389 -0.1199  0.0450  0.6916
13567SOL    HW141386   2.390   2.321   5.379  2.2161  0.3223 -0.3922
13567SOL    HW241387   2.321   2.188   5.358 -0.4586  1.6649 -0.5609
13568SOL     OW41388   0.231   1.088   5.853 -0.1489 -0.0580  0.4192
13568SOL    HW141389   0.270   1.164   5.897 -0.1164 -0.7359  1.5890
13568SOL    HW241390   0.146   1.076   5.896 -2.1528  1.8586 -2.5905
13569SOL     OW41391   5.170   3.204   5.449  0.1067 -0.3893 -0.0229
13569SOL    HW141392   5.174   3.273   5.514 -3.4363  1.4812 -1.5359
13569SOL    HW241393   5.175   3.123   5.500  3.4874  0.7775  1.8747
13570SOL     OW41394   7.018   2.149   1.568 -0.2570  0.1869 -0.2633
13570SOL    HW141395   6.996   2.116   1.480 -1.4488 -0.1958  0.1564
13570SOL    HW241396   6.996   2.242   1.564 -1.5768 -0.0874 -0.0066
13571SOL     OW41397   3.881   4.408   2.275  0.6000 -0.7658 -0.5166
13571SOL    HW141398   3.847   4.467   2.343 -0.1654 -0.6994 -0.9388
13571SOL    HW241399   3.848   4.322   2.301 -0.7769 -0.5617 -1.4486
13572SOL     OW41400   6.521   7.677   0.281  0.1428  0.0828  0.0950
13572SOL    HW141401   6.553   7.680   0.191 -1.8267 -1.8528 -0.7697
13572SOL    HW241402   6.583   7.620   0.327  0.2763 -0.2313 -0.4636
13573SOL     OW41403   4.828   0.977   5.666  0.1109  0.0034 -0.1625
13573SOL    HW141404   4.855   0.886   5.679  0.3242  0.0456 -0.3001
13573SOL    HW241405   4.862   1.000   5.580 -0.6543 -0.0399 -0.4787
13574SOL     OW41406   5.790   5.167   4.796  0.2327  0.1243  0.7318
13574SOL    HW141407   5.861   5.201   4.740  1.2573 -2.2904  0.4624
13574SOL    HW241408   5.735   5.116   4.737 -0.7893  0.5661  1.2782
13575SOL     OW41409   4.333   3.958   7.683  0.6331 -0.0330  0.7654
13575SOL    HW141410   4.414   3.922   7.648 -0.3520 -1.3663 -0.2471
13575SOL    HW241411   4.264   3.912   7.636 -0.7270  1.9696  0.6794
13576SOL     OW41412   4.287   4.884   6.750 -0.3965  0.6141 -0.1790
13576SOL    HW141413   4.308   4.806   6.800 -0.5117  0.7776  0.1312
13576SOL    HW241414   4.209   4.920   6.794 -0.2537  0.9836 -0.2247
13577SOL     OW41415   2.176   2.430   3.833 -0.4537 -0.0641 -0.4027
13577SOL    HW141416   2.182   2.487   3.910  0.9827  0.6776 -1.0192
13577SOL    HW241417   2.115   2.361   3.859  0.5626 -0.2542  1.6763
13578SOL     OW41418   6.466   3.863   6.872 -0.3148 -0.0873  0.4687
13578SOL    HW141419   6.391   3.921   6.864  1.3759  2.5657  2.2682
13578SOL    HW241420   6.458   3.825   6.960 -1.0128 -2.1055 -0.4155
13579SOL     OW41421   5.782   7.213   2.594  0.3193  0.0413 -0.3479
13579SOL    HW141422   5.733   7.260   2.661  1.2622 -0.2936  0.5882
13579SOL    HW241423   5.720   7.148   2.560 -0.0698  0.0186  0.3946
13580SOL     OW41424   3.306   6.727   0.564  0.4913 -0.5161  0.3348
13580SOL    HW141425   3.349   6.646   0.593 -0.1803 -1.3714 -0.9636
13580SOL    HW241426   3.223   6.728   0.611 -0.0109 -1.2055 -0.5141
13581SOL     OW41427   6.915   0.500   3.657 -0.0290 -0.8610 -0.1747
13581SOL    HW141428   6.920   0.567   3.589 -0.1031 -1.3169 -0.6370
13581SOL    HW241429   6.994   0.447   3.645  0.0745 -0.8042  0.2443
13582SOL     OW41430   2.841   7.728   0.688  0.0616  0.1786  0.4662
13582SOL    HW141431   2.932   7.757   0.696  0.2778  0.2613 -1.6932
13582SOL    HW241432   2.796   7.801   0.647 -0.6552 -0.4264  0.1511
13583SOL     OW41433   2.345   3.370   2.039 -0.2107  0.6479 -0.4806
13583SOL    HW141434   2.407   3.354   1.968  0.3429 -1.8606  0.4930
13583SOL    HW241435   2.261   3.382   1.994  0.3143  0.2761 -1.6056
13584SOL     OW41436   0.914   5.826   5.217  0.0429 -0.9898  0.3909
13584SOL    HW141437   0.901   5.784   5.132 -1.9199  1.5894 -0.7454
13584SOL    HW241438   0.988   5.886   5.203 -0.6820 -0.1049  0.2688
13585SOL     OW41439   3.901   5.442   7.265 -0.0584  0.0366  0.0196
13585SOL    HW141440   3.852   5.381   7.210  0.8973 -0.8496  0.1177
13585SOL    HW241441   3.861   5.433   7.352 -1.1149  0.9254 -0.3571
13586SOL     OW41442   6.864   4.655   7.207  0.0490 -0.4663  1.0234
13586SOL    HW141443   6.810   4.621   7.279 -0.7659  0.3487  0.8182
13586SOL    HW241444   6.953   4.626   7.228  0.0043  0.6195  2.9020
13587SOL     OW41445   3.649   4.087   4.441  0.4968  0.5886  0.2254
13587SOL    HW141446   3.567   4.135   4.431 -0.3177 -0.6777  0.5893
13587SOL    HW241447   3.685   4.082   4.352 -0.3854  0.2057 -0.1183
13588SOL     OW41448   5.125   3.795   0.850 -0.5701 -0.1931  0.3888
13588SOL    HW141449   5.076   3.877   0.844 -0.5479 -0.2120 -0.1449
13588SOL    HW241450   5.061   3.730   0.879 -0.6818 -0.0683  0.4201
13589SOL     OW41451   5.420   5.882   2.355  0.1298  0.2092 -0.4014
13589SOL    HW141452   5.467   5.930   2.287 -2.8376  0.8659 -2.2093
13589SOL    HW241453   5.361   5.823   2.307 -0.9101 -0.5248  1.6333
13590SOL     OW41454   7.723   0.425   5.883  0.7686  0.1700 -0.1482
13590SOL    HW141455   7.793   0.449   5.823 -0.0883  0.0253 -1.2429
13590SOL    HW241456   7.741   0.333   5.906  1.6473  0.5163  0.6343
13591SOL     OW41457   2.903   6.735   2.574  0.1048  0.1107 -0.3478
13591SOL    HW141458   2.992   6.708   2.598  0.1201  0.7931  0.4078
13591SOL    HW241459   2.914   6.824   2.540 -0.1571 -0.1961 -1.2598
13592SOL     OW41460   0.634   0.812   1.096  0.1197  0.4443 -0.2385
13592SOL    HW141461   0.685   0.891   1.077  0.0106  0.6345  0.2287
13592SOL    HW241462   0.672   0.778   1.177  0.0269  0.1361 -0.3227
13593SOL     OW41463   5.637   6.981   7.331  0.2316 -0.3130 -0.4084
13593SOL    HW141464   5.642   6.885   7.327 -2.3752 -0.6064  0.9069
13593SOL    HW241465   5.544   6.999   7.347  0.9944  2.3406  1.8019
13594SOL     OW41466   2.435   5.287   4.824  0.1949  0.3596 -0.1667
13594SOL    HW141467   2.444   5.207   4.876  3.0624  0.3494 -0.5364
13594SOL    HW241468   2.341   5.304   4.822 -0.3268 -1.9149  1.5440
13595SOL     OW41469   2.289   2.137   7.669 -0.3571  0.5637 -0.4862
13595SOL    HW141470   2.291   2.049   7.633  2.4099  0.5021 -0.4101
13595SOL    HW241471   2.343   2.189   7.609  1.7733  1.1623  1.7641
13596SOL     OW41472   4.522   0.727   6.564  0.0583 -0.4857 -0.2496
13596SOL    HW141473   4.476   0.699   6.485 -0.9005 -1.1610  0.4977
13596SOL    HW241474   4.451   0.751   6.625  0.7975  0.7550  0.1379
13597SOL     OW41475   1.353   6.985   0.606  0.6588  0.1280 -0.0452
13597SOL    HW141476   1.443   6.986   0.572  0.8137 -0.5083  0.3267
13597SOL    HW241477   1.359   7.030   0.690  1.1435 -1.9879  1.1464
13598SOL     OW41478   4.633   7.477   0.923  0.1085 -0.2834  0.3718
13598SOL    HW141479   4.669   7.493   0.835  0.8725  0.6104  0.8334
13598SOL    HW241480   4.582   7.555   0.943  1.2212  0.2355  1.3339
13599SOL     OW41481   0.518   7.769   4.092  0.5008  0.1093  0.1899
13599SOL    HW141482   0.497   7.689   4.141 -0.2050  0.3546  0.3032
13599SOL    HW241483   0.597   7.802   4.133 -0.3153  0.5420  1.4748
13600SOL     OW41484   6.081   5.291   0.081  0.3911 -0.1026 -0.4474
13600SOL    HW141485   6.129   5.354   0.027 -1.4303  2.4135  0.6655
13600SOL    HW241486   6.095   5.321   0.171  1.3480 -2.7408  0.3847
13601SOL     OW41487   2.387   2.988   0.510 -0.2691 -0.0944 -0.1371
13601SOL    HW141488   2.451   2.919   0.493 -0.1253  0.0004  0.0098
13601SOL    HW241489   2.304   2.942   0.525 -0.4066 -0.1763 -1.1189
13602SOL     OW41490   6.785   7.255   2.144 -1.3061 -0.1882  0.0212
13602SOL    HW141491   6.780   7.349   2.161  0.4019  0.2969 -1.7791
13602SOL    HW241492   6.863   7.226   2.192 -1.8095 -0.7058  0.5462
13603SOL     OW41493   2.986   6.171   7.662 -0.0778 -0.2808 -0.1492
13603SOL    HW141494   2.912   6.122   7.625  0.2838 -1.6884  0.9256
13603SOL    HW241495   2.993   6.140   7.752  1.2854  0.4677  0.0253
13604SOL     OW41496   5.561   4.367   6.460 -0.2491  0.2200  0.1312
13604SOL    HW141497   5.625   4.432   6.490  1.2004 -0.5913 -1.0736
13604SOL    HW241498   5.482   4.386   6.510  0.2758  2.6045  0.1563
13605SOL     OW41499   0.177   3.962   6.581  0.0753 -0.2547  0.3370
13605SOL    HW141500   0.115   3.990   6.514 -1.1136 -2.8783  0.2277
13605SOL    HW241501   0.257   3.942   6.533 -0.1835 -0.3729 -0.0505
13606SOL     OW41502   6.423   5.283   0.159  0.1630 -0.1632 -0.2501
13606SOL    HW141503   6.376   5.283   0.076  0.2489 -1.5162 -0.3247
13606SOL    HW241504   6.399   5.200   0.200  1.5389 -0.3385  0.2586
13607SOL     OW41505   0.597   2.109   2.095 -0.2282  0.3682  0.4385
13607SOL    HW141506   0.543   2.033   2.076 -0.6608  0.3968  1.5019
13607SOL    HW241507   0.674   2.074   2.138  0.8352  0.2869 -1.4299
13608SOL     OW41508   2.183   7.671   6.874  0.4532  0.0615  0.2675
13608SOL    HW141509   2.101   7.697   6.831  1.0648  1.5888 -0.0217
13608SOL    HW241510   2.204   7.744   6.933  2.7955  0.8121 -1.3676
13609SOL     OW41511   3.555   4.240   2.424 -0.0191 -0.0842 -0.1612
13609SOL    HW141512   3.494   4.167   2.436  0.0402  0.2537  3.6833
13609SOL    HW241513   3.499   4.316   2.408 -0.1990 -0.5870 -2.0973
13610SOL     OW41514   6.192   4.169   7.041  0.2916  0.0672  0.3988
13610SOL    HW141515   6.173   4.126   7.124 -1.8674 -2.1114 -1.0575
13610SOL    HW241516   6.117   4.226   7.026  0.2971 -0.1109 -0.3518
13611SOL     OW41517   4.948   0.641   7.528  0.4044 -0.2716 -0.0295
13611SOL    HW141518   4.879   0.672   7.469 -0.1550 -3.8736 -1.5205
13611SOL    HW241519   4.905   0.630   7.612  0.3037  1.5056  0.1872
13612SOL     OW41520   0.565   7.589   7.397 -0.0718  0.2427  0.2938
13612SOL    HW141521   0.585   7.598   7.490  0.3708 -0.7083  0.3062
13612SOL    HW241522   0.625   7.521   7.366 -1.0261 -0.3137 -0.4103
13613SOL     OW41523   0.520   5.013   6.672  0.4023  0.2728  0.1474
13613SOL    HW141524   0.483   5.076   6.610 -0.0883  0.3129  0.4784
13613SOL    HW241525   0.541   5.066   6.750 -2.1973 -0.3304  1.3435
13614SOL     OW41526   5.830   4.150   4.284 -0.3443  0.5946 -0.7006
13614SOL    HW141527   5.778   4.221   4.320 -0.8093  0.3901 -0.9676
13614SOL    HW241528   5.789   4.070   4.317  1.1031  0.4495  0.9137
13615SOL     OW41529   5.543   3.712   3.803  0.4512  0.1659 -0.3146
13615SOL    HW141530   5.450   3.700   3.782 -0.1083 -0.9488  2.3879
13615SOL    HW241531   5.553   3.673   3.890  2.5976  3.6716  1.2288
13616SOL     OW41532   3.188   1.787   4.211  0.3414  0.5881  0.5073
13616SOL    HW141533   3.116   1.805   4.151 -0.9424 -0.6575  1.5942
13616SOL    HW241534   3.231   1.710   4.175  1.2272  1.3904 -0.1957
13617SOL     OW41535   1.603   1.590   4.462  0.0151  0.1212  0.6641
13617SOL    HW141536   1.673   1.653   4.480 -0.1935  0.3749  0.5945
13617SOL    HW241537   1.532   1.642   4.426 -0.3682 -0.0692  1.1313
13618SOL     OW41538   7.291   7.696   1.228 -0.4167 -0.4653 -0.0743
13618SOL    HW141539   7.217   7.749   1.198 -0.0190  0.8831  1.2296
13618SOL    HW241540   7.251   7.625   1.277 -0.9016 -0.6171 -0.6724
13619SOL     OW41541   4.679   4.212   6.791 -0.3430  0.6874  0.2818
13619SOL    HW141542   4.678   4.144   6.858 -0.0007  0.5241  0.1172
13619SOL    HW241543   4.696   4.293   6.839 -0.8031  0.6711  0.4835
13620SOL     OW41544   4.950   5.463   7.590 -0.0994 -0.1305 -0.1767
13620SOL    HW141545   5.045   5.463   7.601 -0.0997  1.2003  0.0409
13620SOL    HW241546   4.921   5.382   7.632  0.9021 -0.3973  0.0361
13621SOL     OW41547   2.282   6.557   5.851  0.8312 -0.3047 -0.2734
13621SOL    HW141548   2.195   6.550   5.811  0.2927  1.0927  0.5826
13621SOL    HW241549   2.295   6.473   5.894 -1.1545  0.2615  1.6110
13622SOL     OW41550   4.580   3.884   5.135 -0.0985  0.2419 -0.1638
13622SOL    HW141551   4.572   3.872   5.229  0.4379 -2.6398 -0.3929
13622SOL    HW241552   4.673   3.899   5.120  0.1103 -1.0741 -0.3288
13623SOL     OW41553   5.744   4.041   5.419 -0.2001 -0.3082  0.0503
13623SOL    HW141554   5.729   3.952   5.450 -0.9540 -0.4428 -0.6542
13623SOL    HW241555   5.656   4.079   5.413 -0.1285 -0.4249 -2.2768
13624SOL     OW41556   1.318   3.914   2.096  0.2888  0.0673  0.7081
13624SOL    HW141557   1.393   3.967   2.125  3.2212 -2.2505 -1.8646
13624SOL    HW241558   1.308   3.935   2.004  0.4124 -2.4522  0.0459
13625SOL     OW41559   0.748   4.319   2.368 -0.0890  0.3877 -0.0893
13625SOL    HW141560   0.738   4.248   2.305 -0.2901  0.3424 -0.0052
13625SOL    HW241561   0.695   4.294   2.443 -1.4148  1.3497 -0.6723
13626SOL     OW41562   5.589   0.174   5.132  0.2139  0.1138 -0.1103
13626SOL    HW141563   5.554   0.242   5.189 -1.3345  1.9799 -3.0512
13626SOL    HW241564   5.513   0.123   5.105  0.7169 -0.0693 -1.2797
13627SOL     OW41565   2.015   2.454   6.237 -0.4758  0.4748  0.0532
13627SOL    HW141566   2.048   2.367   6.212 -1.5894 -0.3433  1.2612
13627SOL    HW241567   1.965   2.484   6.161  1.6439  1.0519 -1.2033
13628SOL     OW41568   4.513   5.188   7.619 -0.7234 -0.0978  0.6240
13628SOL    HW141569   4.523   5.260   7.557 -1.8409 -0.1545  0.3580
13628SOL    HW241570   4.559   5.218   7.698  1.8660 -0.5534 -0.5848
13629SOL     OW41571   7.599   7.468   7.345 -0.1143 -0.2406  0.6403
13629SOL    HW141572   7.513   7.470   7.304  0.8060  1.4548 -1.3897
13629SOL    HW241573   7.653   7.415   7.286  0.3693 -0.9835  1.7019
13630SOL     OW41574   0.649   5.569   7.065 -1.0185 -0.4525 -0.4513
13630SOL    HW141575   0.621   5.643   7.011  0.6717  2.5363  2.3526
13630SOL    HW241576   0.744   5.576   7.067 -0.9338 -1.5039  1.4306
13631SOL     OW41577   7.205   2.837   0.510 -0.2109 -0.4723 -0.6885
13631SOL    HW141578   7.290   2.854   0.469  1.2336 -0.4479  2.1068
13631SOL    HW241579   7.207   2.744   0.531 -0.4210 -0.2557  0.3228
13632SOL     OW41580   4.837   7.256   1.642 -0.1159  0.1045  0.2038
13632SOL    HW141581   4.796   7.339   1.666  0.0256  0.4125 -0.5843
13632SOL    HW241582   4.912   7.281   1.588  0.7578 -0.4797  1.0996
13633SOL     OW41583   3.855   0.427   6.852 -0.4328  0.6136 -0.3431
13633SOL    HW141584   3.797   0.403   6.924 -0.0004  3.8891  1.3144
13633SOL    HW241585   3.929   0.470   6.894  1.0183  0.5515 -2.6509
13634SOL     OW41586   5.811   7.176   7.243 -0.6097 -0.2010 -0.1038
13634SOL    HW141587   5.813   7.219   7.328  0.3980 -1.4723  0.5463
13634SOL    HW241588   5.758   7.098   7.255 -1.6404  0.3271 -1.0288
13635SOL     OW41589   2.827   6.263   6.673  0.3595  0.2061 -0.1633
13635SOL    HW141590   2.891   6.280   6.742 -0.1425  0.4048  0.2608
13635SOL    HW241591   2.757   6.327   6.688 -0.8454 -1.2058  0.5301
13636SOL     OW41592   6.838   4.418   5.545  0.6312 -0.3811 -0.0578
13636SOL    HW141593   6.830   4.419   5.640  0.2949 -1.8434 -0.0399
13636SOL    HW241594   6.755   4.456   5.514  0.6025 -0.2080  0.2297
13637SOL     OW41595   1.127   4.701   3.891  0.0840 -0.4538 -0.0110
13637SOL    HW141596   1.185   4.624   3.892  0.9468  0.1537 -0.8904
13637SOL    HW241597   1.118   4.722   3.798 -2.3628 -1.0895  0.0279
13638SOL     OW41598   5.951   4.637   1.323 -0.0863 -0.3118 -0.3315
13638SOL    HW141599   5.888   4.708   1.309 -1.9867 -1.3671  2.1340
13638SOL    HW241600   5.941   4.580   1.247  0.4045  1.2622 -1.6240
13639SOL     OW41601   3.721   1.919   0.753 -0.3998  0.1753  0.3830
13639SOL    HW141602   3.771   1.903   0.673  1.4326  1.1566  1.2724
13639SOL    HW241603   3.728   1.837   0.802  0.2072  0.2523  0.4303
13640SOL     OW41604   3.148   5.845   7.069  0.2209 -0.2343 -0.0138
13640SOL    HW141605   3.070   5.891   7.040 -0.0158 -0.8528 -0.3818
13640SOL    HW241606   3.217   5.910   7.068  0.0088 -0.0113 -1.0317
13641SOL     OW41607   5.339   2.846   5.013  0.2945 -0.5401 -0.3611
13641SOL    HW141608   5.394   2.785   4.963  0.5788 -0.9126  0.4044
13641SOL    HW241609   5.262   2.859   4.957  0.2848 -1.5126 -0.5870
13642SOL     OW41610   6.086   7.685   7.176 -0.2899  0.1649  0.3973
13642SOL    HW141611   6.007   7.739   7.167 -0.5977 -0.2017  0.8773
13642SOL    HW241612   6.074   7.614   7.112 -0.5854 -0.1728  0.8259
13643SOL     OW41613   6.730   0.291   2.123 -0.7942 -0.0094 -0.0339
13643SOL    HW141614   6.821   0.312   2.100 -1.1319  3.2054  0.9966
13643SOL    HW241615   6.699   0.237   2.051  1.5220 -0.0675 -1.1020
13644SOL     OW41616   1.108   1.844   3.130  0.2143  0.2817  0.4179
13644SOL    HW141617   1.148   1.931   3.138 -0.1277  0.3762  1.2054
13644SOL    HW241618   1.163   1.788   3.184 -0.5346  0.3581  1.2881
13645SOL     OW41619   1.953   3.947   2.141 -0.0171 -0.4074 -0.6419
13645SOL    HW141620   1.903   3.868   2.120 -1.3192 -0.4182  1.9562
13645SOL    HW241621   1.933   3.963   2.234  0.2055  2.9571 -1.0395
13646SOL     OW41622   4.403   1.213   0.193 -0.4249  0.1374  0.0732
13646SOL    HW141623   4.408   1.203   0.098 -0.7294 -0.2870  0.0988
13646SOL    HW241624   4.328   1.270   0.208 -1.5939 -1.3668  0.1402
13647SOL     OW41625   5.770   0.294   1.552  0.6569 -0.4875 -1.1599
13647SOL    HW141626   5.831   0.235   1.595  0.8177 -1.0534 -2.1329
13647SOL    HW241627   5.777   0.376   1.600  1.2771 -0.9193 -0.5063
13648SOL     OW41628   0.882   6.093   3.199 -0.8068 -0.6869 -0.1022
13648SOL    HW141629   0.930   6.176   3.190 -1.6790 -0.1889 -0.3494
13648SOL    HW241630   0.897   6.048   3.116 -0.3151 -0.7838  0.0379
13649SOL     OW41631   0.273   2.820   7.248  0.0089  0.1852 -0.2378
13649SOL    HW141632   0.285   2.913   7.234  1.2903  0.2245  0.9627
13649SOL    HW241633   0.262   2.810   7.343 -1.7125 -0.7349 -0.4878
13650SOL     OW41634   4.894   1.782   1.361  0.2892 -0.4134  0.0770
13650SOL    HW141635   4.822   1.842   1.340  1.0319  0.9017  1.0523
13650SOL    HW241636   4.852   1.710   1.408 -0.5167 -0.1492 -0.2140
13651SOL     OW41637   4.240   1.993   3.581  0.4845 -0.0867  0.2888
13651SOL    HW141638   4.301   1.924   3.554 -0.1669 -0.6275  0.1844
13651SOL    HW241639   4.154   1.951   3.578 -0.2148  1.3852 -2.0827
13652SOL     OW41640   4.485   2.697   4.167  0.2783  0.0665  0.0632
13652SOL    HW141641   4.417   2.764   4.175 -0.5617 -0.6383 -0.8821
13652SOL    HW241642   4.515   2.705   4.076 -0.3573 -1.3084 -0.2849
13653SOL     OW41643   7.015   7.371   0.594  0.0823 -0.2619 -0.2996
13653SOL    HW141644   6.969   7.397   0.514 -2.2447  2.0594  1.6055
13653SOL    HW241645   7.107   7.385   0.574 -0.4769  1.0229 -2.3331
13654SOL     OW41646   4.521   6.700   0.479 -0.4699 -0.3523  0.3086
13654SOL    HW141647   4.460   6.738   0.542 -2.2085  1.2424 -2.1579
13654SOL    HW241648   4.519   6.606   0.498 -2.2255 -0.1110  1.5797
13655SOL     OW41649   7.342   7.387   4.934  0.0432 -0.7235  0.1176
13655SOL    HW141650   7.416   7.422   4.984 -0.6318  1.0930 -0.0844
13655SOL    HW241651   7.383   7.326   4.872  1.6593  1.4512 -1.1170
13656SOL     OW41652   5.619   6.387   1.190  0.3547  0.1822 -0.5301
13656SOL    HW141653   5.674   6.466   1.197 -0.5480  0.6716  3.2090
13656SOL    HW241654   5.669   6.319   1.234 -1.0208  0.0672  0.9318
13657SOL     OW41655   7.365   0.447   0.672  0.2013 -0.5933  0.1007
13657SOL    HW141656   7.317   0.529   0.688  1.5073 -0.1503  2.2065
13657SOL    HW241657   7.456   0.475   0.664  0.4536 -1.6948 -1.0515
13658SOL     OW41658   2.159   5.666   2.468 -0.1386  0.1233  0.4700
13658SOL    HW141659   2.240   5.640   2.512 -0.2548  1.1825  1.3522
13658SOL    HW241660   2.107   5.708   2.536 -0.7122  0.9921 -0.4783
13659SOL     OW41661   6.775   6.037   2.186  0.1320 -0.1908 -0.0187
13659SOL    HW141662   6.751   5.985   2.110  0.8985  0.1340 -0.4957
13659SOL    HW241663   6.752   5.982   2.261 -0.5985 -0.5267 -0.4797
13660SOL     OW41664   6.490   3.310   0.790  0.0294  0.5586 -0.0380
13660SOL    HW141665   6.560   3.371   0.765 -0.3886  0.6747 -0.9519
13660SOL    HW241666   6.504   3.295   0.884  0.5920  1.4723  0.0380
13661SOL     OW41667   2.663   5.520   0.531 -0.0048 -0.1277 -0.2893
13661SOL    HW141668   2.628   5.608   0.542  1.0814  0.4318 -1.0899
13661SOL    HW241669   2.703   5.499   0.616  0.7626  0.6449 -0.4446
13662SOL     OW41670   7.288   1.342   0.182  0.1124 -0.2329 -0.5203
13662SOL    HW141671   7.244   1.375   0.104  2.4169  0.3414 -1.6780
13662SOL    HW241672   7.314   1.420   0.230 -1.6049 -0.5799  1.1025
13663SOL     OW41673   2.032   6.206   7.191 -0.4743 -0.0593  0.1327
13663SOL    HW141674   1.958   6.196   7.131 -0.4432  0.3027  0.0365
13663SOL    HW241675   2.068   6.292   7.171 -1.4991  0.8007  1.8270
13664SOL     OW41676   4.402   3.008   7.607 -0.1391  0.3166 -0.5772
13664SOL    HW141677   4.398   3.066   7.531 -0.8241  0.3179 -0.5458
13664SOL    HW241678   4.493   3.014   7.637 -0.1338  1.1574 -0.7395
13665SOL     OW41679   3.224   5.779   4.860 -0.2297 -0.2253  0.5124
13665SOL    HW141680   3.202   5.690   4.887  0.4373 -0.0978  1.5121
13665SOL    HW241681   3.319   5.781   4.858 -0.2431  0.0610 -0.9457
13666SOL     OW41682   5.001   0.070   0.981 -0.0331 -0.1548  0.1317
13666SOL    HW141683   4.962   0.043   0.898 -0.8097  0.6091  0.2335
13666SOL    HW241684   4.928   0.108   1.030  0.4299 -0.5545  1.1452
13667SOL     OW41685   0.548   1.672   7.504  0.0956 -0.5809  0.0924
13667SOL    HW141686   0.617   1.622   7.462  0.7590  0.5392 -0.2014
13667SOL    HW241687   0.489   1.696   7.432 -0.0055 -0.6029  0.1681
13668SOL     OW41688   0.853   3.130   0.919 -0.0654 -0.1163 -0.0767
13668SOL    HW141689   0.782   3.105   0.861 -0.1309  0.7667 -0.3974
13668SOL    HW241690   0.829   3.094   1.004 -1.1888  0.6487 -0.0524
13669SOL     OW41691   7.510   7.408   4.245 -0.3591 -0.0878  0.3131
13669SOL    HW141692   7.564   7.446   4.314  0.9842 -0.4787 -0.4969
13669SOL    HW241693   7.531   7.459   4.167 -1.1922 -0.2310 -0.0191
13670SOL     OW41694   4.225   3.914   1.960 -0.4671  0.8868 -0.5571
13670SOL    HW141695   4.258   4.001   1.984  1.9569 -0.3683  1.0605
13670SOL    HW241696   4.130   3.922   1.966 -0.3694  3.5922 -1.2064
13671SOL     OW41697   0.207   4.882   3.228  0.5391  0.4198 -0.0792
13671SOL    HW141698   0.226   4.828   3.305  1.4752  1.5459  0.5207
13671SOL    HW241699   0.114   4.900   3.233  0.2602 -0.9225 -0.1614
13672SOL     OW41700   1.695   0.088   3.804  0.5100  0.2622 -0.0461
13672SOL    HW141701   1.738   0.036   3.872 -1.4671  1.1343  1.9963
13672SOL    HW241702   1.617   0.038   3.780  0.9534  0.1810 -1.3703
13673SOL     OW41703   6.586   1.677   4.189  1.2802 -0.5242  0.2533
13673SOL    HW141704   6.540   1.598   4.219  0.1496  0.1068  0.2097
13673SOL    HW241705   6.600   1.662   4.095  0.4302 -0.3688  0.0965
13674SOL     OW41706   2.802   3.990   6.636  0.7600  0.6629 -0.1881
13674SOL    HW141707   2.858   4.063   6.612  1.0416  0.5229  0.0318
13674SOL    HW241708   2.845   3.951   6.713  1.8297 -1.0835 -1.6006
13675SOL     OW41709   4.894   7.444   0.801  0.9883  0.2364 -0.2192
13675SOL    HW141710   4.968   7.417   0.747  0.5027 -1.3791 -0.1433
13675SOL    HW241711   4.933   7.476   0.882  1.6178 -0.5247 -0.2094
13676SOL     OW41712   4.712   3.810   4.448 -0.1162  0.3249 -0.2351
13676SOL    HW141713   4.780   3.743   4.459 -1.5839 -1.3685 -1.0491
13676SOL    HW241714   4.655   3.775   4.379 -1.7834  1.7122  0.3790
13677SOL     OW41715   4.193   4.272   0.148 -0.7750  0.1713 -0.0431
13677SOL    HW141716   4.218   4.253   0.057  0.4355 -1.8515  0.6441
13677SOL    HW241717   4.167   4.188   0.184 -0.0191  0.6821  1.8338
13678SOL     OW41718   2.592   1.064   0.115  0.2862  0.2268  0.5814
13678SOL    HW141719   2.633   1.016   0.187  1.2939  1.1111  0.6118
13678SOL    HW241720   2.519   1.008   0.088 -0.3323  0.0287  2.5165
13679SOL     OW41721   0.266   7.272   0.319 -0.3229  0.2154 -0.0406
13679SOL    HW141722   0.334   7.339   0.315 -0.1270 -0.0178 -2.1712
13679SOL    HW241723   0.295   7.205   0.257 -1.7731 -0.6007  0.1218
13680SOL     OW41724   0.564   5.221   5.874 -0.0157  0.1820 -0.2553
13680SOL    HW141725   0.608   5.163   5.811 -1.6271  1.1586 -2.4107
13680SOL    HW241726   0.581   5.309   5.841 -2.7056  0.6361 -0.6665
13681SOL     OW41727   2.002   5.634   0.329 -0.1039  0.1409  0.3740
13681SOL    HW141728   1.912   5.660   0.347 -0.0840  0.6989 -0.3010
13681SOL    HW241729   1.998   5.591   0.243  0.2404 -0.0457  0.4458
13682SOL     OW41730   3.304   4.658   0.680  0.1389 -0.5087 -0.2413
13682SOL    HW141731   3.374   4.641   0.617  0.9948  0.0987  0.5362
13682SOL    HW241732   3.343   4.714   0.746 -0.5955 -1.5449  1.1208
13683SOL     OW41733   2.549   6.259   7.585 -0.0960 -0.4826 -0.1622
13683SOL    HW141734   2.465   6.263   7.540 -0.2050 -0.3402  0.0543
13683SOL    HW241735   2.580   6.169   7.569 -0.0464 -0.3765 -0.6723
13684SOL     OW41736   4.885   3.074   1.431  0.4737  0.0250  0.9183
13684SOL    HW141737   4.976   3.105   1.423  0.4239 -0.2740 -1.3621
13684SOL    HW241738   4.877   3.005   1.365 -1.5542  0.4239  0.6865
13685SOL     OW41739   3.308   1.081   7.208  0.2532  0.1247  0.1855
13685SOL    HW141740   3.302   1.050   7.298  1.3652  1.5266  0.7866
13685SOL    HW241741   3.253   1.160   7.206 -0.5845 -0.4573 -0.6590
13686SOL     OW41742   6.142   4.767   4.905 -0.5932  0.5923 -0.3255
13686SOL    HW141743   6.142   4.850   4.951 -0.7469 -0.4809  1.7022
13686SOL    HW241744   6.050   4.751   4.882 -0.3133  1.9690 -2.7204
13687SOL     OW41745   7.155   5.822   0.406  0.2110  0.3038 -0.2589
13687SOL    HW141746   7.212   5.746   0.413 -0.4430 -0.1130  0.7331
13687SOL    HW241747   7.176   5.875   0.483  0.0891  0.7376 -0.5188
13688SOL     OW41748   3.478   7.735   3.869 -0.3065  0.4499 -0.0122
13688SOL    HW141749   3.402   7.741   3.811 -0.2561  0.6193 -0.0604
13688SOL    HW241750   3.551   7.769   3.818  0.2756 -1.7921 -0.7854
13689SOL     OW41751   0.546   6.090   7.285  0.1273  0.2513 -0.4900
13689SOL    HW141752   0.610   6.026   7.254  0.4559 -0.0317  0.7213
13689SOL    HW241753   0.598   6.163   7.318 -0.1770  0.2368  0.0412
13690SOL     OW41754   7.609   7.642   5.743  0.1786  0.8325 -0.1817
13690SOL    HW141755   7.698   7.648   5.708  1.4144  0.2641  2.6320
13690SOL    HW241756   7.566   7.722   5.713  1.5317  1.0441 -1.7302
13691SOL     OW41757   6.450   6.434   2.663 -0.2387  0.4716 -1.0605
13691SOL    HW141758   6.405   6.518   2.651 -1.0444  0.2783  0.4206
13691SOL    HW241759   6.388   6.380   2.710  1.2216 -0.0880  0.3050
13692SOL     OW41760   5.605   0.920   2.610  0.7221  0.5246 -0.2224
13692SOL    HW141761   5.570   0.962   2.688 -1.1537  0.7855 -1.1535
13692SOL    HW241762   5.698   0.944   2.610  1.0067 -0.3064  2.4123
13693SOL     OW41763   6.681   6.669   0.659 -0.2502 -0.1777  0.1204
13693SOL    HW141764   6.712   6.655   0.749 -2.0642 -2.5659  0.4716
13693SOL    HW241765   6.629   6.750   0.665 -1.1604 -0.8210  1.4855
13694SOL     OW41766   5.131   2.431   6.747 -0.1042  0.0681 -0.2997
13694SOL    HW141767   5.117   2.479   6.666  0.7996 -0.5922 -0.8590
13694SOL    HW241768   5.043   2.423   6.785 -0.5274  0.4322 -1.1740
13695SOL     OW41769   5.855   0.549   1.145 -0.0847  0.2013 -0.1145
13695SOL    HW141770   5.836   0.456   1.134  0.9790 -0.2655  1.5450
13695SOL    HW241771   5.840   0.565   1.239 -0.8229  1.8488 -0.4899
13696SOL     OW41772   2.283   3.593   3.916 -0.0741  0.3458  0.0721
13696SOL    HW141773   2.342   3.544   3.859 -0.7638  0.2919 -0.6142
13696SOL    HW241774   2.341   3.638   3.978  0.5722 -1.5047  0.8720
13697SOL     OW41775   7.216   1.122   0.666 -0.6041  0.1336  0.0707
13697SOL    HW141776   7.135   1.153   0.625 -0.9583 -0.6225  0.1898
13697SOL    HW241777   7.249   1.056   0.606 -0.8879 -0.6596  0.7748
13698SOL     OW41778   4.651   7.604   0.458 -0.4747 -0.1313 -0.0347
13698SOL    HW141779   4.638   7.577   0.367 -0.5813  1.5329 -0.5513
13698SOL    HW241780   4.568   7.644   0.483  0.0396  0.7654  0.2861
13699SOL     OW41781   4.565   2.584   6.146  0.2260  0.9488 -0.1410
13699SOL    HW141782   4.481   2.537   6.149  1.6304 -1.7251  0.7059
13699SOL    HW241783   4.578   2.603   6.053  0.3845 -2.1121 -0.8462
13700SOL     OW41784   3.993   3.457   3.685 -0.3261 -0.1902  0.2021
13700SOL    HW141785   4.062   3.480   3.748 -0.2820 -0.1473  0.1394
13700SOL    HW241786   3.936   3.397   3.732 -0.9697  0.7793  0.6835
13701SOL     OW41787   4.709   1.158   2.731  0.1999 -0.1880  0.3169
13701SOL    HW141788   4.735   1.066   2.742 -0.2810 -0.4911 -0.9258
13701SOL    HW241789   4.632   1.154   2.673 -1.6607  0.7932  2.5537
13702SOL     OW41790   4.158   0.940   1.968  0.2455  0.6513 -0.1547
13702SOL    HW141791   4.248   0.958   1.938  0.2903  1.0658  0.2122
13702SOL    HW241792   4.170   0.894   2.051  0.1189  1.1758  0.1565
13703SOL     OW41793   4.686   0.647   3.844  0.4730  0.7337  0.4814
13703SOL    HW141794   4.709   0.709   3.775 -1.6512  1.7733  0.6260
13703SOL    HW241795   4.733   0.567   3.821  0.7580  1.4170 -1.4992
13704SOL     OW41796   2.809   2.268   1.560 -0.2305 -0.2016  0.2099
13704SOL    HW141797   2.829   2.323   1.635  1.4991  0.5418 -0.7397
13704SOL    HW241798   2.731   2.308   1.521  1.3013  2.0164 -0.7901
13705SOL     OW41799   1.066   5.133   7.654  0.5258 -0.3801  0.1918
13705SOL    HW141800   1.148   5.170   7.621 -1.5413  2.2442 -2.6168
13705SOL    HW241801   1.045   5.063   7.593  0.5669 -0.8970  0.7670
13706SOL     OW41802   1.371   1.318   5.161 -0.4710 -0.4834  0.5996
13706SOL    HW141803   1.301   1.260   5.132  0.1081 -0.6626 -0.4897
13706SOL    HW241804   1.336   1.406   5.150 -0.1248 -0.5193 -1.1437
13707SOL     OW41805   1.236   0.173   3.811  0.4605  0.3995  0.5193
13707SOL    HW141806   1.242   0.244   3.747 -0.6689 -0.7121 -0.8803
13707SOL    HW241807   1.311   0.188   3.870  1.9658  1.0648 -1.4503
13708SOL     OW41808   1.186   5.530   4.078 -0.4247 -0.0618 -0.4935
13708SOL    HW141809   1.193   5.616   4.120 -1.5756 -0.7651  1.2675
13708SOL    HW241810   1.245   5.474   4.129 -1.4684 -0.8294 -0.1059
13709SOL     OW41811   1.649   2.239   7.127 -0.2203 -0.2463 -0.5485
13709SOL    HW141812   1.629   2.147   7.144 -0.6982  0.0647  0.6681
13709SOL    HW241813   1.599   2.287   7.193  2.3805  0.7361  0.8316
13710SOL     OW41814   4.320   1.646   5.582 -0.1523 -0.1906  0.1660
13710SOL    HW141815   4.377   1.722   5.582 -0.7463  0.2605  0.2673
13710SOL    HW241816   4.376   1.574   5.614  0.3602  0.2319  0.2293
13711SOL     OW41817   2.016   2.312   4.182 -0.4322 -0.2458  0.1039
13711SOL    HW141818   1.930   2.338   4.215 -0.7154  0.0267 -0.8239
13711SOL    HW241819   2.057   2.393   4.153  0.2395 -0.3416  0.7311
13712SOL     OW41820   4.892   2.945   0.932  0.1580 -0.3585  0.4064
13712SOL    HW141821   4.954   2.999   0.883  3.0156 -2.2829  1.6703
13712SOL    HW241822   4.896   2.979   1.021 -0.7889 -0.3847  0.4646
13713SOL     OW41823   1.384   1.664   7.528  0.3415  0.4592  0.5053
13713SOL    HW141824   1.448   1.722   7.568  0.8987  0.5306 -0.4640
13713SOL    HW241825   1.356   1.710   7.449 -0.5012  0.1766  0.6247
13714SOL     OW41826   6.421   0.225   5.677 -0.0379 -0.2659  0.2761
13714SOL    HW141827   6.382   0.152   5.628  1.0254 -0.2333 -0.6670
13714SOL    HW241828   6.347   0.283   5.696 -0.5376 -0.4116 -1.1081
13715SOL     OW41829   5.174   7.585   6.949 -0.3819  0.5022  1.0771
13715SOL    HW141830   5.265   7.559   6.934 -0.9574 -1.5718  0.8348
13715SOL    HW241831   5.136   7.512   6.997 -1.9798  1.2291  0.9902
13716SOL     OW41832   0.771   5.827   1.130 -0.9835  0.2848 -0.3736
13716SOL    HW141833   0.761   5.781   1.213 -0.1820 -0.0180 -0.4275
13716SOL    HW241834   0.767   5.920   1.153 -0.5375  0.2088  0.0489
13717SOL     OW41835   1.408   4.066   5.741 -0.4746  0.3132 -0.7025
13717SOL    HW141836   1.443   4.057   5.830  0.1222 -1.4592 -1.0849
13717SOL    HW241837   1.485   4.083   5.686 -0.5545 -0.6664 -1.1430
13718SOL     OW41838   0.936   4.136   4.913 -0.2418 -0.0931 -0.6133
13718SOL    HW141839   0.862   4.121   4.972 -0.3405  1.0058 -0.4464
13718SOL    HW241840   0.966   4.225   4.933 -0.5904  0.5126 -2.5440
13719SOL     OW41841   5.879   2.532   5.855  0.1465  0.2663  0.2802
13719SOL    HW141842   5.830   2.463   5.900 -0.2657  1.3721  1.6164
13719SOL    HW241843   5.825   2.555   5.780  1.4532 -2.5047 -1.6463
13720SOL     OW41844   1.764   3.093   0.233 -0.1836  0.0403  0.0640
13720SOL    HW141845   1.698   3.036   0.274 -1.7736  2.3170  0.8282
13720SOL    HW241846   1.812   3.130   0.307 -0.2783  0.9635 -0.3371
13721SOL     OW41847   1.584   1.565   7.016 -0.6590  0.2616 -0.0531
13721SOL    HW141848   1.570   1.658   6.996 -1.1842  0.2737  0.3346
13721SOL    HW241849   1.636   1.532   6.944 -0.5395  0.8438 -0.2371
13722SOL     OW41850   1.353   4.387   0.371  0.3343 -0.5596  0.1016
13722SOL    HW141851   1.328   4.321   0.435  0.1235 -0.7686 -0.1973
13722SOL    HW241852   1.411   4.446   0.419 -1.2866  0.3671  1.0343
13723SOL     OW41853   2.313   2.906   1.267 -0.0891  0.5517  0.2966
13723SOL    HW141854   2.371   2.901   1.342 -0.5077  0.0026  0.5863
13723SOL    HW241855   2.365   2.872   1.194 -0.0773 -0.0332  0.5736
13724SOL     OW41856   6.694   5.229   2.811 -0.0580  0.8582 -0.0518
13724SOL    HW141857   6.665   5.260   2.726  0.7758  1.0375 -0.2820
13724SOL    HW241858   6.762   5.291   2.838  0.7586 -0.0346  0.0438
13725SOL     OW41859   6.887   2.594   4.998  0.1417  0.2416 -0.2173
13725SOL    HW141860   6.887   2.607   4.903  1.9284  0.7270 -0.1748
13725SOL    HW241861   6.976   2.566   5.019 -0.4295 -0.6014  1.2373
13726SOL     OW41862   2.168   3.980   0.772 -0.4658 -0.2851  0.2542
13726SOL    HW141863   2.245   3.930   0.799  0.2815  0.5711 -0.2124
13726SOL    HW241864   2.200   4.070   0.765 -1.4736  0.0540 -0.1266
13727SOL     OW41865   6.074   2.996   4.097 -0.0362 -0.0358  0.1313
13727SOL    HW141866   6.099   2.945   4.174 -2.2119  0.2747  1.1147
13727SOL    HW241867   6.036   3.076   4.133  1.2404  1.3112 -1.3522
13728SOL     OW41868   3.709   0.917   0.927  0.0336  0.2028  0.3436
13728SOL    HW141869   3.734   0.825   0.935 -0.0609  0.2372  1.1571
13728SOL    HW241870   3.782   0.965   0.965 -0.0235  0.4475  0.1411
13729SOL     OW41871   5.281   7.564   4.596 -0.1561 -0.2651 -0.2844
13729SOL    HW141872   5.317   7.514   4.669  0.5093  1.1764  0.4274
13729SOL    HW241873   5.357   7.606   4.556 -0.6204 -0.3181 -1.2552
13730SOL     OW41874   1.380   4.835   1.274  0.1722  0.1618 -0.7264
13730SOL    HW141875   1.378   4.931   1.269  1.9653  0.1634 -2.1696
13730SOL    HW241876   1.468   4.814   1.303  0.1163 -1.0857 -1.4062
13731SOL     OW41877   2.387   2.881   0.083  0.0369 -0.4212 -0.0983
13731SOL    HW141878   2.403   2.969   0.049 -0.6993 -0.5822 -0.8942
13731SOL    HW241879   2.293   2.867   0.070  0.0704 -1.1708  0.3976
13732SOL     OW41880   3.408   0.879   5.770 -0.7137 -0.1270  0.1348
13732SOL    HW141881   3.375   0.811   5.712  0.8491  1.1557 -2.4236
13732SOL    HW241882   3.331   0.912   5.815 -2.0344 -1.0418 -1.3685
13733SOL     OW41883   4.184   6.458   5.850 -0.4862  0.2682 -0.5034
13733SOL    HW141884   4.224   6.512   5.918 -1.0655 -0.0871  0.1363
13733SOL    HW241885   4.199   6.506   5.769 -0.4262  1.0706 -0.0296
13734SOL     OW41886   5.947   1.101   3.897  0.5114 -0.4962 -0.5149
13734SOL    HW141887   5.962   1.073   3.806 -1.4087 -0.5365 -0.8606
13734SOL    HW241888   5.964   1.195   3.896  1.2780 -0.6294 -0.7182
13735SOL     OW41889   5.839   7.267   7.501 -0.1571 -0.4691  0.2670
13735SOL    HW141890   5.852   7.175   7.523  1.8554 -0.5914 -1.1633
13735SOL    HW241891   5.870   7.315   7.578 -1.4726 -0.9345  1.1298
13736SOL     OW41892   3.897   5.151   6.034  0.3608  0.2169  0.1634
13736SOL    HW141893   3.962   5.219   6.052  0.1510  0.9483 -1.5900
13736SOL    HW241894   3.837   5.192   5.971 -0.6706 -1.0917  0.2518
13737SOL     OW41895   6.069   3.923   1.170  0.2195  0.0166  0.0933
13737SOL    HW141896   6.091   3.948   1.259  2.3675  1.4443 -0.7435
13737SOL    HW241897   6.148   3.878   1.138  0.2150  1.0948 -1.5860
13738SOL     OW41898   3.299   6.042   6.980  0.7060  0.0277  0.4051
13738SOL    HW141899   3.266   6.125   7.015 -0.0004  0.4220 -1.0979
13738SOL    HW241900   3.252   6.031   6.897 -0.0110 -2.3979  1.0443
13739SOL     OW41901   2.932   0.302   5.285 -0.3611  0.3369  0.1117
13739SOL    HW141902   2.888   0.251   5.353  1.2267 -2.3186 -0.6844
13739SOL    HW241903   2.866   0.313   5.216 -0.8869 -0.2703  0.5135
13740SOL     OW41904   0.711   3.708   2.250  0.1980  0.5803  0.1690
13740SOL    HW141905   0.750   3.716   2.163 -0.5758  2.0658 -0.0758
13740SOL    HW241906   0.617   3.704   2.234  0.0802  0.2509  0.9042
13741SOL     OW41907   0.260   7.180   5.670  0.2742  0.0788 -0.9877
13741SOL    HW141908   0.268   7.219   5.757  0.5061 -0.3923 -0.7912
13741SOL    HW241909   0.200   7.106   5.683  0.2566  0.0491 -1.2405
13742SOL     OW41910   1.258   6.325   3.709  0.9977 -0.2758  0.7312
13742SOL    HW141911   1.226   6.381   3.780 -1.7117  0.0989 -0.6756
13742SOL    HW241912   1.315   6.383   3.658 -0.2300  0.6763  0.3894
13743SOL     OW41913   5.625   2.858   5.828 -0.0107  0.1827  0.3200
13743SOL    HW141914   5.600   2.777   5.872  1.0833 -0.0430  0.5568
13743SOL    HW241915   5.628   2.835   5.735  0.9165 -0.2431  0.4383
13744SOL     OW41916   0.501   7.113   1.170 -0.0312 -0.3683 -0.2162
13744SOL    HW141917   0.495   7.206   1.192  1.1544 -0.2225 -0.4389
13744SOL    HW241918   0.419   7.075   1.200  0.1152  0.4569  1.3066
13745SOL     OW41919   1.599   3.850   7.250 -0.0006  0.5093  0.5975
13745SOL    HW141920   1.536   3.920   7.264 -0.9955 -0.1829 -0.2573
13745SOL    HW241921   1.548   3.779   7.211  1.4354  0.1717 -0.7721
13746SOL     OW41922   7.017   4.491   7.374  0.0086  0.0979 -0.5334
13746SOL    HW141923   7.072   4.413   7.374  0.0948  0.1160  1.2896
13746SOL    HW241924   7.079   4.564   7.377 -0.0757  0.1558 -0.0025
13747SOL     OW41925   4.098   3.298   3.469 -0.5849 -0.0438 -0.0265
13747SOL    HW141926   4.089   3.352   3.547 -0.3003 -0.5736  0.3781
13747SOL    HW241927   4.063   3.352   3.398 -2.7725 -0.3181  0.7579
13748SOL     OW41928   4.899   1.372   1.016  0.3169 -0.2509  0.1363
13748SOL    HW141929   4.958   1.384   0.942  0.7170  1.1664  0.6595
13748SOL    HW241930   4.815   1.405   0.986  0.5090  0.4386  0.3453
13749SOL     OW41931   3.128   0.006   1.911  0.4488 -0.4911  0.4794
13749SOL    HW141932   3.037   0.031   1.898  0.6679 -0.1404 -0.4154
13749SOL    HW241933   3.170   0.085   1.946  0.4445 -0.6058  0.7454
13750SOL     OW41934   0.633   0.271   5.832 -0.5470  0.4796 -0.2332
13750SOL    HW141935   0.718   0.304   5.805 -0.4940 -0.2530 -0.9663
13750SOL    HW241936   0.593   0.237   5.752 -1.7643  1.3180 -0.0158
13751SOL     OW41937   0.393   3.048   7.661 -0.8075  0.3732 -0.0864
13751SOL    HW141938   0.400   2.953   7.648 -1.9137  0.4563 -1.5388
13751SOL    HW241939   0.478   3.082   7.631 -0.2163 -0.1623  0.8949
13752SOL     OW41940   6.086   0.754   6.389  0.0407  0.1407  0.6992
13752SOL    HW141941   6.101   0.737   6.296  0.8648 -0.5311  0.9389
13752SOL    HW241942   6.173   0.754   6.427 -0.2884  0.5127  1.4615
13753SOL     OW41943   6.686   2.148   6.630  0.0893  0.1554 -0.3091
13753SOL    HW141944   6.643   2.134   6.546 -0.2608 -1.9021  0.1414
13753SOL    HW241945   6.777   2.123   6.616  0.3229  1.0000 -0.3598
13754SOL     OW41946   6.589   1.825   4.701  0.4043  0.1385 -0.2694
13754SOL    HW141947   6.545   1.754   4.749 -1.6764  1.3089 -0.3526
13754SOL    HW241948   6.533   1.840   4.625  0.5692  2.1247 -0.0390
13755SOL     OW41949   4.050   0.820   4.223 -0.0873 -0.2121 -0.0443
13755SOL    HW141950   4.078   0.732   4.247 -0.4996 -1.2070 -2.7719
13755SOL    HW241951   3.960   0.827   4.255 -1.0184 -1.8988 -2.0519
13756SOL     OW41952   5.399   6.019   3.907 -0.2554  0.0730 -0.7727
13756SOL    HW141953   5.463   6.074   3.952 -0.7022  1.3208 -1.5978
13756SOL    HW241954   5.327   6.011   3.969 -0.0553  0.1699 -0.5255
13757SOL     OW41955   7.375   6.281   0.166 -0.4546  0.2288 -0.4701
13757SOL    HW141956   7.292   6.293   0.212 -0.4919  1.9795 -0.9151
13757SOL    HW241957   7.382   6.186   0.154 -1.5076 -0.1003  1.1379
13758SOL     OW41958   6.068   2.190   4.056 -0.0687 -0.0383  0.9848
13758SOL    HW141959   6.045   2.114   4.003 -1.5751  1.1526 -0.1549
13758SOL    HW241960   6.057   2.160   4.146 -1.1072 -1.0245  0.5543
13759SOL     OW41961   1.384   7.436   1.392 -0.2028 -0.2127  0.2935
13759SOL    HW141962   1.291   7.457   1.387 -0.0290  0.9725  1.3647
13759SOL    HW241963   1.424   7.516   1.428  1.1888 -0.7892  0.0799
13760SOL     OW41964   0.185   2.485   1.576  0.2917 -0.5234 -0.4706
13760SOL    HW141965   0.115   2.535   1.616  1.5562  0.9701 -0.0410
13760SOL    HW241966   0.164   2.394   1.597 -0.6968  0.0014  0.9389
13761SOL     OW41967   2.824   3.641   4.818 -0.2922  0.0577 -0.0312
13761SOL    HW141968   2.749   3.667   4.765  0.7236  0.6561 -1.2254
13761SOL    HW241969   2.843   3.552   4.791 -1.2820 -0.5262  1.1332
13762SOL     OW41970   7.417   7.502   2.390 -0.3947  0.1854  0.6236
13762SOL    HW141971   7.459   7.499   2.475 -1.3252  0.8114  1.1219
13762SOL    HW241972   7.367   7.584   2.390  0.4511  0.7420 -0.9387
13763SOL     OW41973   4.777   0.284   0.729 -0.1694 -0.6644  0.6478
13763SOL    HW141974   4.746   0.214   0.672  0.6039 -1.0375  0.6696
13763SOL    HW241975   4.871   0.268   0.737 -0.2990 -0.7325  2.1936
13764SOL     OW41976   2.355   0.245   6.696  0.2380  0.0889  0.0048
13764SOL    HW141977   2.383   0.293   6.774 -1.2435  0.4826  0.3135
13764SOL    HW241978   2.428   0.256   6.634 -0.0660  2.9201 -0.0103
13765SOL     OW41979   5.039   6.406   6.371 -0.2658 -0.5616  0.8317
13765SOL    HW141980   4.947   6.398   6.344 -0.2417  0.3590  0.4135
13765SOL    HW241981   5.085   6.338   6.321 -0.3368  0.6459 -0.9945
13766SOL     OW41982   1.272   5.885   5.874  0.2426  0.4445  0.5726
13766SOL    HW141983   1.350   5.831   5.872  0.0104  0.1149 -0.6632
13766SOL    HW241984   1.303   5.972   5.899  0.7695 -0.0060  1.5416
13767SOL     OW41985   4.781   1.995   3.111 -1.0567  0.1149  0.2689
13767SOL    HW141986   4.785   1.950   3.027 -0.9622 -1.0207  0.8533
13767SOL    HW241987   4.790   1.925   3.176 -1.7726  0.8898  1.2363
13768SOL     OW41988   5.440   3.100   6.806 -0.1613  0.0351 -0.1418
13768SOL    HW141989   5.394   3.037   6.750 -1.4657 -0.6198  1.5944
13768SOL    HW241990   5.404   3.185   6.781 -2.9409 -0.5043  1.5911
13769SOL     OW41991   2.855   3.865   5.220  0.0980  0.4210 -0.0134
13769SOL    HW141992   2.787   3.922   5.183 -0.4979 -0.6349 -0.5997
13769SOL    HW241993   2.809   3.784   5.241  1.2185 -0.4209 -0.6911
13770SOL     OW41994   4.603   4.671   6.268 -0.3582 -0.1862 -0.2756
13770SOL    HW141995   4.546   4.746   6.285  1.4587  0.8707  1.8172
13770SOL    HW241996   4.666   4.702   6.204  0.6401  0.2738  0.8897
13771SOL     OW41997   3.366   1.948   0.689 -0.1262  0.8597  0.0924
13771SOL    HW141998   3.280   1.953   0.729 -0.4804  0.9210 -0.6492
13771SOL    HW241999   3.352   1.896   0.609  1.0753 -1.6205  1.3887
13772SOL     OW42000   6.708   1.152   2.626  0.0231  0.6872  0.4089
13772SOL    HW142001   6.644   1.104   2.678 -0.2385 -0.4348 -0.9096
13772SOL    HW242002   6.663   1.172   2.545  1.5285 -0.7590 -0.8535
13773SOL     OW42003   2.122   0.119   4.558 -0.4739 -0.3783 -0.7077
13773SOL    HW142004   2.153   0.177   4.488 -0.4588  0.2845 -0.1651
13773SOL    HW242005   2.193   0.120   4.622 -0.7773 -0.4463 -0.3697
13774SOL     OW42006   0.953   6.437   3.492 -0.1267  0.6369  0.3223
13774SOL    HW142007   0.867   6.396   3.480 -0.3456  1.4059 -0.9488
13774SOL    HW242008   0.976   6.420   3.583 -0.4623 -1.7940  0.0057
13775SOL     OW42009   2.285   5.051   3.700  0.0877 -0.4444  0.4659
13775SOL    HW142010   2.253   5.081   3.785 -1.1866 -0.4510  0.0078
13775SOL    HW242011   2.354   4.988   3.721  0.5053  0.3166  1.4718
13776SOL     OW42012   6.626   5.224   1.318 -0.1383  0.4326  0.2577
13776SOL    HW142013   6.710   5.270   1.317 -0.9816  2.0233 -0.6793
13776SOL    HW242014   6.564   5.287   1.282 -1.8106 -0.5943  1.2536
13777SOL     OW42015   5.206   0.048   7.149 -0.0819 -0.1247  0.0583
13777SOL    HW142016   5.114   0.031   7.169 -0.3634 -0.4796 -1.4489
13777SOL    HW242017   5.249   0.046   7.235 -1.6080  1.0111  0.8994
13778SOL     OW42018   0.454   5.133   2.964  0.1774 -0.6385 -0.2405
13778SOL    HW142019   0.397   5.102   2.894  0.6652  0.5609 -1.2023
13778SOL    HW242020   0.394   5.165   3.032 -0.3292  0.6986 -1.2796
13779SOL     OW42021   7.104   5.998   4.733  0.2396 -0.0649 -0.1246
13779SOL    HW142022   7.118   5.979   4.825 -0.3837 -0.4250 -0.0956
13779SOL    HW242023   7.058   5.921   4.700  0.9863 -0.2092 -0.8747
13780SOL     OW42024   7.011   3.601   2.610 -0.7899  0.2476 -0.0289
13780SOL    HW142025   7.042   3.692   2.610 -0.9847  0.3168  0.2245
13780SOL    HW242026   7.087   3.549   2.585 -0.7727  0.5141 -0.5372
13781SOL     OW42027   4.989   0.095   2.092  0.2640 -0.2811  0.1723
13781SOL    HW142028   4.994   0.182   2.132 -1.2108  0.4851 -1.2569
13781SOL    HW242029   4.933   0.045   2.152  0.0690  0.1263  0.3368
13782SOL     OW42030   7.518   7.033   6.858  0.3527 -0.0978  0.9090
13782SOL    HW142031   7.591   6.971   6.862 -0.2724 -0.9039 -0.0405
13782SOL    HW242032   7.489   7.041   6.949  0.2746 -1.3957  1.0159
13783SOL     OW42033   1.296   1.206   4.525  0.0432 -0.8544  0.1616
13783SOL    HW142034   1.298   1.160   4.441 -3.0387 -0.1502 -0.3984
13783SOL    HW242035   1.228   1.162   4.575 -1.2625  1.4913  0.5457
13784SOL     OW42036   0.224   3.943   0.032 -0.6541 -0.5277  0.7280
13784SOL    HW142037   0.140   3.916   0.070 -0.0309 -0.2797  2.3434
13784SOL    HW242038   0.289   3.916   0.097  0.3470  1.0393  0.4151
13785SOL     OW42039   2.683   2.109   0.409  0.3467 -0.1121  0.8396
13785SOL    HW142040   2.732   2.034   0.377  1.4709  1.1076 -0.3899
13785SOL    HW242041   2.742   2.151   0.472  0.2595  0.4702  0.5378
13786SOL     OW42042   1.922   5.650   4.584 -1.0557 -0.1155  0.2764
13786SOL    HW142043   1.841   5.628   4.629 -0.5555 -0.9136  0.8089
13786SOL    HW242044   1.924   5.593   4.507 -1.5553  0.7290 -0.3747
13787SOL     OW42045   6.498   7.391   3.259 -0.3799 -0.2985  0.3657
13787SOL    HW142046   6.439   7.466   3.271 -0.3260 -0.1020 -0.5332
13787SOL    HW242047   6.584   7.432   3.243  0.1801 -0.5757  2.3156
13788SOL     OW42048   3.394   7.518   2.097 -0.6827 -0.3609 -0.6162
13788SOL    HW142049   3.393   7.601   2.144  4.1187  1.8690 -3.7408
13788SOL    HW242050   3.322   7.524   2.035 -0.3752  1.5996 -0.8470
13789SOL     OW42051   3.463   1.181   0.098  0.4855  0.1759  0.0840
13789SOL    HW142052   3.436   1.233   0.173  0.7198  1.7158 -0.8571
13789SOL    HW242053   3.556   1.162   0.115  0.2057 -0.6330  0.7970
13790SOL     OW42054   2.374   7.660   0.285  0.6595  0.1380  0.1457
13790SOL    HW142055   2.298   7.657   0.343 -0.5635 -1.0844 -1.4369
13790SOL    HW242056   2.449   7.661   0.344 -0.4793 -2.2088  1.7897
13791SOL     OW42057   1.747   5.307   4.803 -0.4934  0.7766 -0.0739
13791SOL    HW142058   1.680   5.238   4.803  0.3958 -0.1010 -0.4084
13791SOL    HW242059   1.797   5.292   4.723  0.9235  0.6118  0.8077
13792SOL     OW42060   6.567   7.362   7.580 -0.0514  0.6965 -0.2991
13792SOL    HW142061   6.635   7.369   7.647 -0.7436 -0.9804  0.6510
13792SOL    HW242062   6.611   7.384   7.498  1.3810  0.5785  0.4149
13793SOL     OW42063   7.048   4.166   2.357  0.1929 -0.2137  0.3383
13793SOL    HW142064   7.136   4.198   2.336  0.0070  1.5554  1.9961
13793SOL    HW242065   6.990   4.211   2.296 -0.1684  3.6485  3.1731
13794SOL     OW42066   3.696   1.683   1.051  0.2841 -0.3498 -0.2543
13794SOL    HW142067   3.754   1.759   1.040 -0.7981  0.4480 -0.5673
13794SOL    HW242068   3.687   1.674   1.146  0.9796 -0.5488 -0.1946
13795SOL     OW42069   1.272   1.477   3.963  0.4607 -0.0399  0.6185
13795SOL    HW142070   1.321   1.559   3.951 -2.0559  1.4712 -0.1951
13795SOL    HW242071   1.198   1.501   4.018  0.0313 -1.9676  0.9569
13796SOL     OW42072   0.808   4.757   6.004  0.3819 -0.0752 -0.4871
13796SOL    HW142073   0.813   4.723   5.915 -2.5638  1.1142 -1.2128
13796SOL    HW242074   0.848   4.844   5.999  0.8152 -0.2740 -0.4850
13797SOL     OW42075   5.275   5.040   7.055  0.0630 -0.1396 -0.0158
13797SOL    HW142076   5.305   4.955   7.088 -0.7916 -0.2066  0.6037
13797SOL    HW242077   5.180   5.031   7.047 -0.3254  1.3725  1.9819
13798SOL     OW42078   7.742   7.213   7.448 -0.3780 -0.0907  0.3153
13798SOL    HW142079   7.776   7.191   7.535 -1.9617  1.2108  1.3136
13798SOL    HW242080   7.786   7.294   7.425 -0.8144  0.1743  0.4143
13799SOL     OW42081   3.453   4.377   2.053 -0.2473  0.0932  0.5472
13799SOL    HW142082   3.383   4.421   2.004  1.9197  1.1390 -1.8602
13799SOL    HW242083   3.418   4.290   2.072 -2.0404  0.4012 -0.9805
13800SOL     OW42084   6.310   4.432   7.095  0.4613 -0.3716 -0.0616
13800SOL    HW142085   6.325   4.375   7.020  1.2922  1.9001 -1.7121
13800SOL    HW242086   6.248   4.497   7.064  0.3405  0.2715  1.4341
13801SOL     OW42087   6.991   4.074   7.349 -0.4119  0.3433  0.0070
13801SOL    HW142088   7.037   3.990   7.343  0.2987  0.6062  1.4337
13801SOL    HW242089   6.933   4.064   7.424 -0.7966  0.9122 -0.2126
13802SOL     OW42090   0.967   7.698   7.640  0.2516 -0.0082 -0.2674
13802SOL    HW142091   0.890   7.751   7.662 -1.2360 -1.4917 -1.6611
13802SOL    HW242092   1.032   7.761   7.609 -1.2646  1.0723 -1.3616
13803SOL     OW42093   4.748   3.852   0.186 -0.0785 -0.3778 -0.1657
13803SOL    HW142094   4.814   3.807   0.134 -1.8191  0.2901 -3.2182
13803SOL    HW242095   4.756   3.944   0.160 -0.4418  0.1545  1.4921
13804SOL     OW42096   3.102   7.053   3.977 -0.2769 -0.1384  0.5710
13804SOL    HW142097   3.182   7.098   3.953 -0.8691  0.1669 -0.9857
13804SOL    HW242098   3.087   6.991   3.905 -0.9497 -0.8358  1.2900
13805SOL     OW42099   0.977   3.904   1.551 -0.2698 -0.0607  0.0895
13805SOL    HW142100   0.925   3.908   1.470  0.6443 -0.4547 -0.5250
13805SOL    HW242101   1.043   3.972   1.540  2.7487 -3.0103 -1.5598
13806SOL     OW42102   5.154   7.595   3.717  0.0068  0.2040 -0.1319
13806SOL    HW142103   5.103   7.535   3.771  1.3320  0.0098  0.9528
13806SOL    HW242104   5.244   7.586   3.749  0.6281  1.0240 -1.5391
13807SOL     OW42105   3.899   3.990   2.690  0.1319 -0.0780 -0.4051
13807SOL    HW142106   3.876   3.900   2.712  2.8862 -0.2839  2.1317
13807SOL    HW242107   3.974   3.982   2.632 -0.0741  0.6045 -0.7751
13808SOL     OW42108   4.846   0.794   1.085 -0.2505 -0.3295 -0.1123
13808SOL    HW142109   4.928   0.745   1.082 -0.0738 -0.0012 -0.9419
13808SOL    HW242110   4.813   0.781   1.174  0.6892 -0.4823  0.2229
13809SOL     OW42111   2.625   5.478   4.251 -0.4581  0.0013 -0.1256
13809SOL    HW142112   2.664   5.565   4.264 -1.7419  0.6447 -0.4135
13809SOL    HW242113   2.693   5.428   4.206  0.9406  0.3101  1.5705
13810SOL     OW42114   5.055   5.547   6.336  0.7749 -0.0125  1.0385
13810SOL    HW142115   5.143   5.551   6.299  0.2779  1.6914 -0.0973
13810SOL    HW242116   5.068   5.543   6.430  2.0731 -0.0149  0.8741
13811SOL     OW42117   3.573   2.416   7.375 -0.0425 -0.0511  0.4491
13811SOL    HW142118   3.508   2.483   7.394  1.1988  1.3004  0.1362
13811SOL    HW242119   3.649   2.442   7.427  0.3670 -1.3959  0.5456
13812SOL     OW42120   7.038   1.897   5.004 -0.4897  0.5539 -0.0905
13812SOL    HW142121   7.119   1.849   5.018 -0.6008  0.2782 -0.3841
13812SOL    HW242122   7.018   1.883   4.912 -0.5864  1.0641 -0.1466
13813SOL     OW42123   6.703   1.054   6.210 -0.6192 -0.2396 -0.6600
13813SOL    HW142124   6.624   1.087   6.253 -0.2892  0.5708 -0.6540
13813SOL    HW242125   6.773   1.069   6.274 -0.1148  1.0059 -1.4698
13814SOL     OW42126   5.426   6.189   1.095 -0.1979  0.4884  0.5403
13814SOL    HW142127   5.493   6.121   1.087 -0.1467  0.6656 -0.6480
13814SOL    HW242128   5.471   6.261   1.140  0.7496  0.9967 -1.1229
13815SOL     OW42129   7.636   7.466   6.199  0.1821 -0.8219  0.3972
13815SOL    HW142130   7.666   7.376   6.184  0.0756 -1.1242  1.8213
13815SOL    HW242131   7.545   7.466   6.170  0.4190 -0.9638 -0.3475
13816SOL     OW42132   6.759   2.534   2.635 -0.1182 -0.0642 -0.0418
13816SOL    HW142133   6.741   2.441   2.621 -1.3781 -0.0597  1.2456
13816SOL    HW242134   6.689   2.579   2.588  0.4660  0.2364 -0.6284
13817SOL     OW42135   3.519   0.281   1.830  0.4814  0.8516 -0.0007
13817SOL    HW142136   3.510   0.257   1.922  0.7234  1.5565  0.2123
13817SOL    HW242137   3.429   0.299   1.802  0.3861  0.4539  0.0461
13818SOL     OW42138   2.157   4.423   7.704  0.0034 -0.0069 -0.9126
13818SOL    HW142139   2.158   4.349   7.764  0.0492  0.6388 -0.1051
13818SOL    HW242140   2.088   4.402   7.641 -0.6144 -0.3121 -0.1520
13819SOL     OW42141   1.310   6.481   2.149  0.1804 -0.1330  0.1795
13819SOL    HW142142   1.335   6.402   2.101  0.0263  0.4495 -0.8821
13819SOL    HW242143   1.385   6.499   2.206  0.8038 -0.2671 -0.5781
13820SOL     OW42144   4.789   3.717   2.443  0.5865  0.0693  0.0514
13820SOL    HW142145   4.710   3.692   2.395  0.6545  0.8229 -0.4522
13820SOL    HW242146   4.761   3.716   2.535  0.3246 -0.8640 -0.0203
13821SOL     OW42147   0.957   5.699   4.983  0.6055 -0.1066  0.1551
13821SOL    HW142148   0.970   5.608   4.957  1.9444  0.1449 -0.1448
13821SOL    HW242149   1.026   5.747   4.937  1.3054  0.7542  1.9788
13822SOL     OW42150   1.640   0.406   3.372  0.3117 -0.3864  0.4580
13822SOL    HW142151   1.689   0.326   3.394  0.2920 -0.5341 -0.0319
13822SOL    HW242152   1.610   0.439   3.457  1.9363  0.1520  0.8472
13823SOL     OW42153   2.119   2.138   5.312  0.0137  0.3166  0.0527
13823SOL    HW142154   2.101   2.194   5.387 -0.8171  0.6655 -0.3912
13823SOL    HW242155   2.151   2.056   5.349  1.3998  1.1099  0.7224
13824SOL     OW42156   4.708   0.802   4.406  0.4296 -0.2129  0.2092
13824SOL    HW142157   4.796   0.818   4.440  0.5572  0.0922 -0.2643
13824SOL    HW242158   4.716   0.722   4.354  0.0792 -1.1060  1.4641
13825SOL     OW42159   3.353   0.083   7.011  0.0105  0.4498  0.2383
13825SOL    HW142160   3.382   0.160   7.061 -1.3646  1.4065 -0.3549
13825SOL    HW242161   3.258   0.083   7.022 -0.0283 -1.1029  0.0850
13826SOL     OW42162   5.769   0.426   2.045  0.3567 -0.1139  0.0974
13826SOL    HW142163   5.823   0.502   2.028  0.1162 -0.0454 -0.3721
13826SOL    HW242164   5.792   0.363   1.977  0.1637 -0.2549  0.1575
13827SOL     OW42165   7.645   7.273   5.083  0.0414  0.2746  0.2902
13827SOL    HW142166   7.617   7.293   5.173 -0.1590  1.3723  0.0008
13827SOL    HW242167   7.676   7.183   5.087 -0.9904 -0.0612  1.2266
13828SOL     OW42168   1.998   2.141   3.069  0.1760  0.1994  0.2258
13828SOL    HW142169   2.081   2.135   3.020 -0.0296 -0.0292 -0.0950
13828SOL    HW242170   1.984   2.052   3.102 -0.5295 -0.0508 -0.6927
13829SOL     OW42171   7.650   0.127   6.556  0.4886  0.2107 -0.0853
13829SOL    HW142172   7.561   0.136   6.589  0.2135 -0.4330 -0.6217
13829SOL    HW242173   7.693   0.210   6.579 -0.8711  1.4281 -1.6839
13830SOL     OW42174   7.087   4.918   4.634  0.0359  0.6368  0.0275
13830SOL    HW142175   7.156   4.980   4.659  0.7529  0.7539 -2.1008
13830SOL    HW242176   7.096   4.909   4.539 -1.3632 -1.1920  0.0272
13831SOL     OW42177   6.924   4.927   0.181  0.3626 -0.3925 -0.0550
13831SOL    HW142178   6.886   4.917   0.268  1.0158  1.1111  0.4294
13831SOL    HW242179   6.964   4.843   0.162 -0.0982 -0.8492  0.9374
13832SOL     OW42180   1.840   4.406   1.444 -0.2879 -0.2313  0.6922
13832SOL    HW142181   1.886   4.477   1.400 -0.3801 -1.7595 -2.1457
13832SOL    HW242182   1.832   4.434   1.535 -0.0803  3.2159 -0.2205
13833SOL     OW42183   6.700   2.697   0.476 -0.8191  0.7688 -0.0150
13833SOL    HW142184   6.730   2.736   0.558 -1.3722  1.6778 -0.2364
13833SOL    HW242185   6.628   2.640   0.502 -0.2856  0.2019  0.2566
13834SOL     OW42186   4.929   7.773   5.332 -0.1134 -0.3564 -0.6841
13834SOL    HW142187   4.950   7.833   5.260  0.3314 -0.4065 -0.5992
13834SOL    HW242188   5.014   7.752   5.371 -0.3633 -0.2087 -0.0464
13835SOL     OW42189   2.838   5.852   2.714  0.3210  0.6671 -0.0936
13835SOL    HW142190   2.896   5.793   2.666 -0.9672 -0.4477 -0.3091
13835SOL    HW242191   2.857   5.835   2.806 -1.3178 -1.4883 -0.0830
13836SOL     OW42192   3.984   1.733   5.131 -0.6973 -0.3367  0.0914
13836SOL    HW142193   4.075   1.725   5.104 -0.8705 -4.5504  0.0308
13836SOL    HW242194   3.936   1.744   5.048 -0.3292  1.2645  0.0713
13837SOL     OW42195   0.448   7.663   0.914 -0.1684  0.1831  0.6355
13837SOL    HW142196   0.456   7.748   0.871 -2.1061  0.0572 -0.0773
13837SOL    HW242197   0.502   7.604   0.861 -0.5548  0.5388 -0.1651
13838SOL     OW42198   4.015   2.815   0.676  0.4657  0.6669 -0.1915
13838SOL    HW142199   3.922   2.798   0.690  0.5047  0.6116  0.0047
13838SOL    HW242200   4.023   2.830   0.582  0.3546  0.0926 -0.2938
13839SOL     OW42201   4.771   0.307   2.360 -0.2060  0.2228 -0.0531
13839SOL    HW142202   4.679   0.305   2.334  0.1540 -0.9886 -1.3582
13839SOL    HW242203   4.793   0.215   2.379  0.7630  0.4834  0.1601
13840SOL     OW42204   5.038   0.205   5.121 -0.5256  0.8325 -0.2252
13840SOL    HW142205   4.958   0.257   5.116 -0.4047  1.0331 -0.1075
13840SOL    HW242206   5.026   0.136   5.056 -2.0110 -0.9023  1.7715
13841SOL     OW42207   7.003   0.157   3.857 -0.4420  0.2539  0.4893
13841SOL    HW142208   7.081   0.205   3.830  1.2205 -2.2609  0.3836
13841SOL    HW242209   6.983   0.191   3.944  0.8706  0.9090  0.5621
13842SOL     OW42210   5.836   3.077   2.784 -0.2245  0.2764 -0.3058
13842SOL    HW142211   5.869   3.008   2.727 -1.8324 -1.0562  0.2797
13842SOL    HW242212   5.744   3.087   2.759 -0.6671  0.4493  1.2665
13843SOL     OW42213   3.930   1.350   7.247 -0.0908 -0.2915 -0.3668
13843SOL    HW142214   3.859   1.286   7.250  0.6574 -1.1601 -0.8464
13843SOL    HW242215   3.961   1.348   7.157 -0.2416  0.9843 -0.4756
13844SOL     OW42216   5.856   5.108   0.187  0.3251 -0.3957  0.3839
13844SOL    HW142217   5.943   5.099   0.227  1.4569 -0.4199 -1.9457
13844SOL    HW242218   5.865   5.181   0.126 -0.9899 -1.0399 -0.6292
13845SOL     OW42219   5.040   1.771   5.017  0.0448 -0.1069 -0.1989
13845SOL    HW142220   5.124   1.783   5.063 -0.0346  3.3653 -0.6608
13845SOL    HW242221   4.974   1.788   5.083 -0.1920  0.1948 -0.5088
13846SOL     OW42222   1.821   3.600   4.198 -0.1620 -0.4186  0.3979
13846SOL    HW142223   1.889   3.646   4.149 -1.4959  0.1967 -0.9301
13846SOL    HW242224   1.864   3.575   4.280  0.5955  3.3998  1.3500
13847SOL     OW42225   2.134   2.921   4.705  0.3075  0.6019  0.5458
13847SOL    HW142226   2.188   2.844   4.724  1.0953  1.1035  0.3867
13847SOL    HW242227   2.176   2.992   4.753 -2.4843  0.3117  3.7958
13848SOL     OW42228   5.286   0.466   3.479 -0.0971  0.2931  0.5952
13848SOL    HW142229   5.230   0.511   3.543  0.5742 -1.5206  2.5665
13848SOL    HW242230   5.372   0.462   3.522  1.8242  3.3078 -2.4629
13849SOL     OW42231   5.379   2.120   5.438 -0.5598 -1.0711 -0.3370
13849SOL    HW142232   5.382   2.175   5.516  1.3627 -1.2455 -0.2302
13849SOL    HW242233   5.409   2.177   5.367  0.6079 -1.6972 -0.3800
13850SOL     OW42234   3.814   4.424   4.578  0.2909 -0.0202 -0.0775
13850SOL    HW142235   3.766   4.400   4.657 -0.4340 -0.3184 -0.5978
13850SOL    HW242236   3.751   4.473   4.526  0.9708  0.7669 -0.1808
13851SOL     OW42237   7.529   6.721   6.742  0.4599  0.3314  0.3702
13851SOL    HW142238   7.559   6.810   6.725  0.6278  0.2000 -0.0537
13851SOL    HW242239   7.591   6.686   6.807  0.1465  0.6580  0.8477
13852SOL     OW42240   6.007   2.566   4.641 -0.7067 -0.1088 -0.0248
13852SOL    HW142241   5.933   2.571   4.701 -0.1229  2.3098  0.5805
13852SOL    HW242242   6.001   2.645   4.588  0.5132 -0.6914 -1.0891
13853SOL     OW42243   2.267   4.331   6.875 -0.6602  0.3537  0.2483
13853SOL    HW142244   2.174   4.333   6.851 -0.8881 -0.3802  1.0142
13853SOL    HW242245   2.273   4.260   6.938  0.5876 -0.1732 -0.4393
13854SOL     OW42246   4.936   7.204   3.695  0.0413 -0.7476 -0.2934
13854SOL    HW142247   4.870   7.230   3.631 -0.3428 -0.5969  0.1578
13854SOL    HW242248   4.976   7.126   3.657  0.0707 -0.4522 -0.8850
13855SOL     OW42249   2.868   5.336   3.870 -0.2470 -0.7397 -0.3805
13855SOL    HW142250   2.842   5.416   3.824 -2.6624 -1.3212 -0.1484
13855SOL    HW242251   2.935   5.298   3.814  0.9836  1.4222 -0.4819
13856SOL     OW42252   5.455   4.051   6.933 -0.0916 -0.1867 -0.2957
13856SOL    HW142253   5.372   4.064   6.886 -0.0612  0.6989 -0.1310
13856SOL    HW242254   5.443   3.970   6.982 -1.3225  0.5237  0.6492
13857SOL     OW42255   4.603   6.139   2.956 -0.2826 -0.7415 -0.0755
13857SOL    HW142256   4.670   6.160   3.021 -0.0529 -1.7118  0.0045
13857SOL    HW242257   4.649   6.139   2.873 -0.4250 -0.2658 -0.1600
13858SOL     OW42258   1.366   3.275   6.149 -0.5061  0.1539 -0.0173
13858SOL    HW142259   1.361   3.335   6.224 -1.8338  0.5016 -0.3435
13858SOL    HW242260   1.360   3.188   6.188 -0.4235  0.3070  0.3410
13859SOL     OW42261   2.707   0.628   4.485  0.5878  0.0565  0.3846
13859SOL    HW142262   2.664   0.648   4.569  0.9804  0.8984  0.3893
13859SOL    HW242263   2.764   0.703   4.468  1.1527 -0.4941 -0.2236
13860SOL     OW42264   0.773   0.895   2.555 -0.0094  0.3451  0.2195
13860SOL    HW142265   0.815   0.845   2.625  0.6854 -1.0969 -1.1563
13860SOL    HW242266   0.756   0.830   2.486 -2.7744  1.2371 -0.0836
13861SOL     OW42267   7.613   1.807   2.293  0.1942 -0.0070 -0.4646
13861SOL    HW142268   7.667   1.800   2.215 -1.8778  1.1965 -2.1151
13861SOL    HW242269   7.549   1.737   2.285  0.3212 -0.2470  0.4772
13862SOL     OW42270   7.771   3.296   6.757 -0.3813 -0.5060  0.2842
13862SOL    HW142271   7.841   3.341   6.709 -0.5821 -0.8289 -0.3219
13862SOL    HW242272   7.691   3.323   6.713 -0.6015 -0.4934  0.6937
13863SOL     OW42273   4.074   4.433   7.442 -0.3294  0.9981 -0.2539
13863SOL    HW142274   4.027   4.352   7.421 -1.4696  1.1514  1.5209
13863SOL    HW242275   4.064   4.486   7.363 -0.7136 -0.0743 -0.9576
13864SOL     OW42276   0.150   5.428   6.362 -0.4680  0.1452  0.2361
13864SOL    HW142277   0.099   5.385   6.431 -0.1178 -0.4536  0.1325
13864SOL    HW242278   0.164   5.517   6.394 -1.3523  0.2380  0.3832
13865SOL     OW42279   1.305   7.412   1.101  0.7182 -0.5363 -0.3508
13865SOL    HW142280   1.366   7.438   1.169 -0.0312 -1.3662  0.6631
13865SOL    HW242281   1.220   7.408   1.144  0.1507 -0.6346 -1.4372
13866SOL     OW42282   3.620   2.269   6.051 -0.1405  0.2834  0.2008
13866SOL    HW142283   3.562   2.227   5.988  1.2963 -0.9221 -0.3650
13866SOL    HW242284   3.595   2.232   6.136 -0.4113  0.0258  0.0088
13867SOL     OW42285   0.753   0.986   2.973  0.2141  0.3847 -0.0469
13867SOL    HW142286   0.701   0.952   3.047 -1.3151  1.6136 -0.5166
13867SOL    HW242287   0.715   1.071   2.954  2.0424  1.0726 -0.8396
13868SOL     OW42288   0.824   3.911   5.834 -0.4066 -0.5276 -0.3266
13868SOL    HW142289   0.900   3.924   5.891 -1.3752 -1.2964  1.1869
13868SOL    HW242290   0.857   3.856   5.763  0.9484  0.8782 -0.8671
13869SOL     OW42291   7.125   5.194   2.495 -0.7478 -0.4086 -0.4105
13869SOL    HW142292   7.055   5.236   2.446 -0.4177 -0.0488 -0.5811
13869SOL    HW242293   7.081   5.149   2.567 -1.1236  0.1002 -0.3165
13870SOL     OW42294   5.140   6.724   6.105 -0.5803  0.5286 -0.5210
13870SOL    HW142295   5.189   6.716   6.024  1.2655 -0.3458  0.6140
13870SOL    HW242296   5.150   6.816   6.131 -0.4261  0.5957 -0.8207
13871SOL     OW42297   1.608   1.370   0.111 -0.5382 -0.2459 -0.0286
13871SOL    HW142298   1.602   1.438   0.178  0.7666 -1.0962  0.9930
13871SOL    HW242299   1.617   1.418   0.029  2.1782  0.8885  0.8252
13872SOL     OW42300   6.269   1.019   6.988 -0.6078  0.0316  0.1663
13872SOL    HW142301   6.177   1.003   6.968 -0.4537 -1.8547  0.8086
13872SOL    HW242302   6.270   1.043   7.081 -0.6180  2.1503 -0.3190
13873SOL     OW42303   2.528   3.949   1.740  0.3811  0.3578  0.8369
13873SOL    HW142304   2.439   3.982   1.728  0.5638  0.7692  0.5821
13873SOL    HW242305   2.576   3.982   1.665  0.3526 -1.3149  0.0387
13874SOL     OW42306   6.228   4.447   1.979 -0.3048  0.0464  0.3721
13874SOL    HW142307   6.178   4.368   2.001 -0.8798  0.6630  1.3474
13874SOL    HW242308   6.318   4.425   2.005 -0.4040 -0.3927  0.3549
13875SOL     OW42309   6.266   1.289   1.763 -0.2032 -0.2867  0.0624
13875SOL    HW142310   6.220   1.218   1.808  0.3154  0.2744  1.5005
13875SOL    HW242311   6.351   1.294   1.806  0.5617 -0.1335 -1.3979
13876SOL     OW42312   4.590   5.028   3.172  0.1703  0.4325  0.1966
13876SOL    HW142313   4.588   4.936   3.145  1.7106  0.1388  0.9365
13876SOL    HW242314   4.535   5.074   3.108 -3.9624 -1.4835  2.0104
13877SOL     OW42315   0.285   6.813   7.750 -0.4964  0.3715  0.1425
13877SOL    HW142316   0.214   6.758   7.719 -1.1707 -0.2306  2.5640
13877SOL    HW242317   0.364   6.770   7.718 -1.1118  0.6421 -1.9468
13878SOL     OW42318   5.392   4.298   3.165 -0.0032 -0.2988  0.2150
13878SOL    HW142319   5.441   4.241   3.106 -0.4484  0.2625 -0.7064
13878SOL    HW242320   5.302   4.268   3.158 -0.0924 -0.0940  0.4619
13879SOL     OW42321   3.183   6.466   6.505  0.1123 -0.5798 -0.7111
13879SOL    HW142322   3.114   6.402   6.488 -1.0294  0.4003  0.0453
13879SOL    HW242323   3.239   6.424   6.570  0.2111 -1.3713 -1.2940
13880SOL     OW42324   2.644   4.402   2.968 -0.0454 -0.8582 -0.1152
13880SOL    HW142325   2.690   4.486   2.971  0.4663 -1.1602  1.5417
13880SOL    HW242326   2.671   4.363   2.885  0.1375  0.3743 -0.6520
13881SOL     OW42327   5.017   0.897   0.238 -0.2550  0.0368 -0.4713
13881SOL    HW142328   5.089   0.860   0.187 -0.0901  1.2289 -1.1297
13881SOL    HW242329   4.946   0.909   0.176 -0.6670 -0.1504 -0.0429
13882SOL     OW42330   7.532   0.409   0.930  0.3147  0.0116  0.1210
13882SOL    HW142331   7.578   0.407   0.846 -0.4998 -2.2383 -0.3489
13882SOL    HW242332   7.443   0.437   0.907  0.2959  0.1590  0.3700
13883SOL     OW42333   7.675   0.874   0.626 -0.3861 -0.1592 -0.1643
13883SOL    HW142334   7.699   0.787   0.659 -0.0398 -0.3697 -0.9270
13883SOL    HW242335   7.752   0.902   0.576 -0.9488  0.0639 -0.9187
13884SOL     OW42336   0.058   7.722   3.321  0.3561  0.0274 -0.1816
13884SOL    HW142337   0.033   7.631   3.306  0.9441 -0.3756  1.1203
13884SOL    HW242338   0.100   7.721   3.408 -0.3629  1.6736  0.2151
13885SOL     OW42339   7.326   2.104   1.536 -0.6246  0.0232 -0.4111
13885SOL    HW142340   7.374   2.145   1.608  0.7114  1.3002 -1.9492
13885SOL    HW242341   7.235   2.133   1.548 -1.0727 -2.1036  2.3080
13886SOL     OW42342   4.075   6.906   2.138 -0.0051  0.6493  0.3074
13886SOL    HW142343   4.080   7.000   2.120  0.6427  0.3895 -1.0105
13886SOL    HW242344   4.155   6.887   2.188  0.7060  0.5332 -0.8400
13887SOL     OW42345   1.381   4.927   3.411 -0.7314 -0.7254 -0.4803
13887SOL    HW142346   1.301   4.921   3.463  0.3667  0.0090  1.3965
13887SOL    HW242347   1.424   4.843   3.424 -0.3390 -0.4513  0.0110
13888SOL     OW42348   7.474   4.768   4.724  0.3861  0.2334 -0.4568
13888SOL    HW142349   7.493   4.859   4.700 -1.7487  1.2808  1.4516
13888SOL    HW242350   7.500   4.762   4.816 -1.3955 -0.4387  0.0344
13889SOL     OW42351   0.925   6.205   2.775 -0.2378  0.1943 -0.2937
13889SOL    HW142352   0.841   6.239   2.808  0.3450 -0.5437  2.1302
13889SOL    HW242353   0.985   6.278   2.784  0.1856 -0.3267  1.5160
13890SOL     OW42354   7.376   7.492   5.781 -0.6696  0.2567 -0.3755
13890SOL    HW142355   7.297   7.536   5.814 -0.8565  0.1942 -0.7377
13890SOL    HW242356   7.444   7.559   5.786 -1.0209  0.6902 -1.2238
13891SOL     OW42357   5.286   1.287   6.203  0.2645  0.0436  0.0738
13891SOL    HW142358   5.328   1.278   6.117 -0.2109 -1.6560  0.0005
13891SOL    HW242359   5.194   1.304   6.183  0.3543  0.8050  0.2625
13892SOL     OW42360   0.244   7.690   0.320  0.0256 -0.1622  0.4222
13892SOL    HW142361   0.170   7.736   0.280 -0.1792  0.5712  1.5825
13892SOL    HW242362   0.253   7.609   0.269 -0.5559  0.4765 -0.7332
13893SOL     OW42363   7.236   6.294   2.724  0.1709 -0.4365  0.0533
13893SOL    HW142364   7.181   6.356   2.771 -0.6694 -1.0562 -0.0917
13893SOL    HW242365   7.292   6.349   2.668 -1.1867  0.1682 -0.7639
13894SOL     OW42366   5.081   1.628   2.870 -0.1248  0.6086  0.4569
13894SOL    HW142367   5.148   1.682   2.828  1.1918 -0.5700  0.9511
13894SOL    HW242368   4.999   1.656   2.830  0.6343  2.1826 -0.0849
13895SOL     OW42369   4.092   2.109   5.575 -0.1244 -0.0274 -0.0387
13895SOL    HW142370   4.124   2.019   5.567 -0.8238 -0.2559 -0.4308
13895SOL    HW242371   4.125   2.153   5.496 -0.4997 -0.1804 -0.2869
13896SOL     OW42372   2.882   1.947   7.468  0.0960  0.1550  0.3582
13896SOL    HW142373   2.957   1.964   7.525  0.8043 -2.5665  0.3804
13896SOL    HW242374   2.806   1.972   7.521  0.8669  4.1450 -0.1012
13897SOL     OW42375   6.695   7.218   7.016 -0.4077  0.3637  0.6190
13897SOL    HW142376   6.741   7.164   6.953 -1.1995  0.7692 -0.3330
13897SOL    HW242377   6.697   7.168   7.097 -0.8375 -0.9368 -0.1534
13898SOL     OW42378   3.742   6.458   5.807  0.4343 -0.2224 -0.0854
13898SOL    HW142379   3.690   6.425   5.734 -0.3194  1.8994 -0.5534
13898SOL    HW242380   3.810   6.512   5.766  0.3252  0.5702  0.7628
13899SOL     OW42381   2.555   2.350   2.520  0.4408  0.6882  0.3177
13899SOL    HW142382   2.594   2.299   2.591 -0.7053 -0.7733 -0.0355
13899SOL    HW242383   2.602   2.322   2.442 -1.0907 -1.0113 -0.0953
13900SOL     OW42384   5.387   5.284   2.251 -0.1740  0.0344  0.0100
13900SOL    HW142385   5.448   5.215   2.275  0.8245  2.0332  4.1222
13900SOL    HW242386   5.441   5.363   2.245 -1.9925  1.6887  2.7357
13901SOL     OW42387   1.537   3.415   5.016 -0.3729  0.0250 -0.0847
13901SOL    HW142388   1.528   3.470   4.938  0.8983  0.1334 -0.1751
13901SOL    HW242389   1.582   3.337   4.985 -0.7582 -0.3766  0.3550
13902SOL     OW42390   0.879   6.225   7.744 -0.2678  0.7720  0.0773
13902SOL    HW142391   0.956   6.258   7.791 -1.9097  1.7884  2.2569
13902SOL    HW242392   0.838   6.303   7.708 -0.3384  0.2456 -1.0160
13903SOL     OW42393   4.212   5.829   2.495  0.2387  0.0805 -0.0016
13903SOL    HW142394   4.260   5.861   2.419 -0.0323 -0.9883 -0.6443
13903SOL    HW242395   4.125   5.808   2.461  0.2789 -0.9131  0.4773
13904SOL     OW42396   4.478   5.225   1.316  0.1743  0.2184  0.3129
13904SOL    HW142397   4.474   5.138   1.278 -0.5844  1.0381 -1.6118
13904SOL    HW242398   4.401   5.270   1.282  1.3650  2.1291 -0.0689
13905SOL     OW42399   6.019   4.019   5.516 -0.0710 -0.2545 -0.6130
13905SOL    HW142400   6.056   3.995   5.431 -0.6811  1.1056 -1.2926
13905SOL    HW242401   5.924   4.013   5.504 -0.1660  0.0210 -0.0549
13906SOL     OW42402   5.822   3.058   3.912 -0.0627 -0.2973  0.2274
13906SOL    HW142403   5.788   3.136   3.955  0.2518 -0.7856  1.4010
13906SOL    HW242404   5.886   3.022   3.974  0.4937 -0.9643 -0.7031
13907SOL     OW42405   6.598   0.037   7.726  0.0617 -0.2384 -0.0450
13907SOL    HW142406   6.680   0.008   7.765  1.0656  1.2808 -0.9028
13907SOL    HW242407   6.540  -0.038   7.733  1.5038 -1.3345  0.6540
13908SOL     OW42408   2.746   4.527   6.427  0.2749  0.4477 -0.5835
13908SOL    HW142409   2.840   4.524   6.446 -0.3110  0.8580  3.2510
13908SOL    HW242410   2.723   4.436   6.410  1.0982  0.0203  0.4204
13909SOL     OW42411   0.370   2.451   6.050 -0.4687 -0.2231  0.5629
13909SOL    HW142412   0.435   2.381   6.055 -1.1013 -0.7514  2.2416
13909SOL    HW242413   0.374   2.493   6.136 -1.5574  0.4468  0.3059
13910SOL     OW42414   4.141   1.568   2.351  0.2617 -0.1773 -0.1490
13910SOL    HW142415   4.117   1.648   2.305  0.3808  0.3625  0.7098
13910SOL    HW242416   4.058   1.537   2.389 -0.1501 -1.4813 -1.9893
13911SOL     OW42417   2.053   2.291   6.633  0.1208  0.2210 -0.6011
13911SOL    HW142418   2.035   2.366   6.690  1.2996 -0.0668  0.1757
13911SOL    HW242419   2.123   2.244   6.676 -0.3136 -1.1228 -1.2977
13912SOL     OW42420   2.100   2.978   5.096  0.4037 -0.0587 -0.1519
13912SOL    HW142421   2.137   2.893   5.073 -2.8720 -1.2740 -1.4219
13912SOL    HW242422   2.049   2.963   5.175 -0.7860  0.4975 -0.7784
13913SOL     OW42423   6.386   1.510   4.261 -0.1958  0.5628 -0.2749
13913SOL    HW142424   6.321   1.557   4.208 -1.2061 -0.0791  0.3465
13913SOL    HW242425   6.335   1.443   4.307  0.6308  1.1329  1.5599
13914SOL     OW42426   1.995   4.626   7.254  0.0950  0.2554  0.2452
13914SOL    HW142427   2.081   4.584   7.254  0.0446  0.1266 -0.9060
13914SOL    HW242428   1.939   4.565   7.303 -0.0369 -1.2208 -1.5986
13915SOL     OW42429   3.647   5.817   3.638  0.7486  0.1089 -0.8086
13915SOL    HW142430   3.656   5.898   3.688  0.9565  1.0519 -2.3069
13915SOL    HW242431   3.595   5.842   3.561 -1.3637 -1.7494 -0.0823
13916SOL     OW42432   7.230   0.516   3.591  0.4919 -0.2462 -0.4656
13916SOL    HW142433   7.215   0.476   3.677 -0.1753 -1.7500 -1.2363
13916SOL    HW242434   7.242   0.441   3.532  0.9525  0.7577 -1.6837
13917SOL     OW42435   3.659   6.520   2.930  0.5838 -0.3621  0.2639
13917SOL    HW142436   3.746   6.529   2.892  0.2007 -0.9646 -0.8156
13917SOL    HW242437   3.606   6.585   2.884  0.4506 -0.0181  0.8913
13918SOL     OW42438   2.896   3.400   7.307 -0.0276 -0.0643  0.6545
13918SOL    HW142439   2.859   3.313   7.323  0.6603 -0.2880  1.0503
13918SOL    HW242440   2.986   3.383   7.279  0.1089  0.5194  0.7308
13919SOL     OW42441   3.444   3.543   4.223 -0.1110  0.1273 -0.2557
13919SOL    HW142442   3.358   3.537   4.180  0.4318 -0.2054 -1.3482
13919SOL    HW242443   3.473   3.632   4.206 -0.3793  0.3479  0.4126
13920SOL     OW42444   2.437   0.989   2.663  0.0796  0.2837  0.1536
13920SOL    HW142445   2.522   1.004   2.622 -0.8461  0.6733 -1.7099
13920SOL    HW242446   2.441   0.898   2.693  0.9275  0.0962 -0.4793
13921SOL     OW42447   5.671   5.348   7.441  0.3951  0.0910  0.5062
13921SOL    HW142448   5.739   5.365   7.506  1.4707  0.3563 -0.6540
13921SOL    HW242449   5.662   5.430   7.393 -0.3278 -0.1278  0.2495
13922SOL     OW42450   1.596   0.057   2.243 -0.1347  0.2774 -0.5128
13922SOL    HW142451   1.575   0.001   2.319  0.7054  0.5513 -0.0648
13922SOL    HW242452   1.511   0.091   2.215 -0.4100  0.6801  0.7178
13923SOL     OW42453   1.677   4.814   5.016  0.2061 -0.6238  0.7509
13923SOL    HW142454   1.739   4.809   5.089  0.3069 -0.5310  0.6740
13923SOL    HW242455   1.733   4.811   4.938  0.3680  1.9777  0.6653
13924SOL     OW42456   3.710   4.522   3.095 -0.0491 -0.1735  0.4659
13924SOL    HW142457   3.623   4.519   3.055 -0.7199 -1.2376  1.9002
13924SOL    HW242458   3.771   4.505   3.023 -0.9772  1.0986 -0.6512
13925SOL     OW42459   2.120   1.274   2.575  0.0570 -0.0302 -0.4383
13925SOL    HW142460   2.166   1.192   2.560 -1.8477 -1.1687 -0.3663
13925SOL    HW242461   2.049   1.251   2.635  0.5596  2.0620  1.0968
13926SOL     OW42462   7.102   3.340   5.954  1.1872 -0.2321 -0.1167
13926SOL    HW142463   7.118   3.290   6.033 -1.1674 -1.8311 -0.5483
13926SOL    HW242464   7.170   3.312   5.893  1.0921 -1.4321  0.3123
13927SOL     OW42465   4.711   2.401   3.962 -0.1575 -0.1726 -0.6712
13927SOL    HW142466   4.709   2.436   4.052  1.6005 -0.5845 -0.4285
13927SOL    HW242467   4.715   2.479   3.907  0.3096  0.0793 -0.2974
13928SOL     OW42468   7.003   3.529   2.210  0.5649 -0.1006  0.1920
13928SOL    HW142469   6.976   3.439   2.229 -2.1051  0.3333 -1.2171
13928SOL    HW242470   7.061   3.521   2.135 -1.6235 -0.5330 -1.5441
13929SOL     OW42471   0.483   3.402   3.738 -0.4453 -0.8785 -0.4398
13929SOL    HW142472   0.478   3.440   3.826  0.1924 -0.3126 -0.6456
13929SOL    HW242473   0.576   3.403   3.716 -0.5827 -1.1720 -1.0631
13930SOL     OW42474   3.461   0.258   0.393  0.1290 -0.2867  0.5629
13930SOL    HW142475   3.460   0.346   0.355  1.1379 -0.9335 -1.0613
13930SOL    HW242476   3.542   0.256   0.445 -0.7563  0.2673  2.0439
13931SOL     OW42477   5.972   7.161   2.999 -0.4519  0.3675 -0.1652
13931SOL    HW142478   5.954   7.211   2.920  3.1119  0.2441 -1.2516
13931SOL    HW242479   6.011   7.080   2.968  0.5885  0.1022  1.6690
13932SOL     OW42480   7.396   3.152   3.049 -0.5031  0.2052  0.0451
13932SOL    HW142481   7.436   3.236   3.068  0.3177 -0.6753  2.5543
13932SOL    HW242482   7.303   3.163   3.072 -0.1531  0.1129  1.6003
13933SOL     OW42483   0.734   3.679   1.353 -0.3508  0.0735  0.0790
13933SOL    HW142484   0.768   3.667   1.441 -0.1702  0.6250  0.0862
13933SOL    HW242485   0.771   3.762   1.323  0.4135 -0.5829 -0.8927
13934SOL     OW42486   0.687   2.081   7.239  0.5220  0.3790 -0.2705
13934SOL    HW142487   0.721   1.992   7.234 -2.3092 -0.7457 -2.3397
13934SOL    HW242488   0.680   2.099   7.333  1.6992 -1.2980  0.1889
13935SOL     OW42489   5.028   1.525   7.216  0.1278 -0.3383 -0.0612
13935SOL    HW142490   5.083   1.563   7.148 -0.8668  0.3059 -0.5315
13935SOL    HW242491   4.952   1.491   7.169  0.3056 -1.6070  0.5207
13936SOL     OW42492   3.624   3.342   4.666  0.5792 -0.0054 -0.2313
13936SOL    HW142493   3.672   3.413   4.623  1.2377 -1.2914 -1.7303
13936SOL    HW242494   3.630   3.269   4.604 -1.6806 -0.8038  0.4067
13937SOL     OW42495   3.468   7.257   6.563 -0.4577 -0.3825  0.1986
13937SOL    HW142496   3.389   7.309   6.544 -0.1779  0.3240  0.9005
13937SOL    HW242497   3.450   7.171   6.524 -1.1297  0.0925 -0.5709
13938SOL     OW42498   0.386   2.398   3.190  0.0998 -0.3320 -0.1806
13938SOL    HW142499   0.392   2.471   3.127  1.7987 -1.5303 -1.4865
13938SOL    HW242500   0.333   2.332   3.145  0.9852 -1.0385 -0.2091
13939SOL     OW42501   4.545   3.827   5.706 -0.2434 -0.1256  0.4340
13939SOL    HW142502   4.551   3.923   5.701 -1.6242 -0.0306  0.3804
13939SOL    HW242503   4.467   3.805   5.656  1.3128 -1.5088 -1.5897
13940SOL     OW42504   2.832   7.736   7.161 -0.3663 -0.1546 -0.2861
13940SOL    HW142505   2.754   7.743   7.106 -0.5784 -0.5265 -0.0347
13940SOL    HW242506   2.873   7.653   7.135 -0.9115 -0.7398  0.6785
13941SOL     OW42507   1.765   4.095   4.569 -0.0753  0.3294 -0.2885
13941SOL    HW142508   1.840   4.119   4.513  2.0741 -2.3551  1.1948
13941SOL    HW242509   1.773   4.153   4.645  0.5663  0.0066 -0.1033
13942SOL     OW42510   6.377   4.791   4.472 -0.0956 -0.4279 -0.4005
13942SOL    HW142511   6.459   4.839   4.464 -0.2626 -0.2250 -0.9434
13942SOL    HW242512   6.365   4.779   4.567 -0.7026  1.7695 -0.1325
13943SOL     OW42513   0.100   0.827   6.521 -0.3716 -0.4341  0.1669
13943SOL    HW142514   0.066   0.831   6.432 -2.9525  1.8532  1.1007
13943SOL    HW242515   0.188   0.866   6.515 -0.5227 -0.2654 -1.3526
13944SOL     OW42516   4.103   4.581   6.738 -0.4422  0.4432 -0.0115
13944SOL    HW142517   4.145   4.663   6.710 -0.6312  0.5088 -0.1049
13944SOL    HW242518   4.011   4.605   6.751 -0.7825 -0.0585 -1.3691
13945SOL     OW42519   1.236   3.286   5.041  0.2582 -0.1987 -0.5552
13945SOL    HW142520   1.210   3.273   5.132  0.6919 -0.3949 -0.4600
13945SOL    HW242521   1.177   3.230   4.991  1.1415 -1.4225 -0.2611
13946SOL     OW42522   6.727   7.399   0.629  0.4267  0.2685  0.5623
13946SOL    HW142523   6.813   7.388   0.587 -0.1722 -0.2707 -0.5640
13946SOL    HW242524   6.731   7.342   0.706  1.0682  0.2375  0.5129
13947SOL     OW42525   5.772   3.566   2.670 -0.2671 -0.3706  0.1442
13947SOL    HW142526   5.800   3.635   2.609 -0.8540  0.4917  0.8217
13947SOL    HW242527   5.801   3.485   2.629 -0.5166  0.1949 -1.2209
13948SOL     OW42528   1.812   5.247   3.178  0.0657 -0.4933 -0.0099
13948SOL    HW142529   1.791   5.267   3.269 -0.1094 -0.2977 -0.0920
13948SOL    HW242530   1.746   5.182   3.152 -0.5329  0.2109 -0.3044
13949SOL     OW42531   6.213   5.107   3.345 -0.4279 -0.4031  0.2739
13949SOL    HW142532   6.258   5.129   3.264 -0.8719 -1.6593 -0.3467
13949SOL    HW242533   6.154   5.180   3.361  1.1721  0.8682  0.6488
13950SOL     OW42534   2.981   7.452   7.387 -0.1518  0.3152  0.3141
13950SOL    HW142535   3.017   7.370   7.419 -0.7300  0.2619  0.8496
13950SOL    HW242536   2.918   7.478   7.454 -1.0136  0.4645 -0.5303
13951SOL     OW42537   0.001   6.131   3.245  0.2051  0.0805  0.2674
13951SOL    HW142538  -0.031   6.220   3.260 -1.1249 -0.0180 -1.6015
13951SOL    HW242539  -0.007   6.119   3.150 -1.3131 -2.6083  0.6396
13952SOL     OW42540   6.538   1.158   4.560  0.1352 -0.5448 -0.1058
13952SOL    HW142541   6.574   1.164   4.648  1.4262 -1.2074 -0.5580
13952SOL    HW242542   6.510   1.067   4.551 -0.5166 -0.3416 -0.1972
13953SOL     OW42543   3.774   1.048   2.164  0.8440 -0.3283  0.0613
13953SOL    HW142544   3.685   1.053   2.129  1.1472 -0.3275 -0.7307
13953SOL    HW242545   3.796   0.955   2.161  1.1121 -0.2543 -0.3836
13954SOL     OW42546   4.847   4.984   5.921 -0.6972 -0.4370  0.2046
13954SOL    HW142547   4.923   5.038   5.942 -0.8191 -0.2521  0.1743
13954SOL    HW242548   4.874   4.935   5.843 -0.9393  0.3349 -0.3859
13955SOL     OW42549   2.090   1.309   4.475  0.0432 -0.6272 -0.2866
13955SOL    HW142550   2.125   1.386   4.431  1.2486 -0.8635  0.2120
13955SOL    HW242551   2.162   1.278   4.529 -0.1806 -2.5015 -0.9866
13956SOL     OW42552   5.393   7.644   3.840  0.1207  0.1505 -0.2606
13956SOL    HW142553   5.412   7.559   3.879 -1.1049 -0.1344 -0.2218
13956SOL    HW242554   5.464   7.660   3.779  0.9353 -0.3960  0.5271
13957SOL     OW42555   2.005   3.151   4.647  0.0195  0.1503 -0.3357
13957SOL    HW142556   2.069   3.180   4.583  1.4830 -0.1233  0.9390
13957SOL    HW242557   2.040   3.068   4.681 -0.8960  0.0964  0.5434
13958SOL     OW42558   7.478   5.402   2.654  0.2167 -0.1296 -0.2826
13958SOL    HW142559   7.455   5.495   2.651 -0.8703 -0.3828 -0.2021
13958SOL    HW242560   7.442   5.371   2.738  0.3960 -0.6676 -0.3973
13959SOL     OW42561   3.697   0.893   6.660 -0.0855  0.1190 -0.0334
13959SOL    HW142562   3.746   0.967   6.695 -1.4409  0.2329  1.8124
13959SOL    HW242563   3.677   0.917   6.570 -0.3831  1.9458  0.4890
13960SOL     OW42564   6.640   7.448   6.020  0.7612  0.4460 -0.3421
13960SOL    HW142565   6.671   7.359   6.002  2.4895  1.3414 -2.2044
13960SOL    HW242566   6.584   7.469   5.946 -0.1743  0.6878  0.4247
13961SOL     OW42567   4.062   0.077   5.203 -0.0127 -0.3914 -0.4630
13961SOL    HW142568   4.022   0.150   5.250  1.6269  0.9874 -1.1031
13961SOL    HW242569   4.003   0.062   5.128 -1.5074 -1.2140  0.8168
13962SOL     OW42570   5.904   6.666   5.720 -0.2233 -0.0741 -0.0060
13962SOL    HW142571   5.926   6.573   5.725 -2.1048 -0.5086  1.4218
13962SOL    HW242572   5.980   6.710   5.757  0.2734 -1.1256  0.2701
13963SOL     OW42573   4.810   5.315   3.251  0.8594  0.0974 -0.1424
13963SOL    HW142574   4.857   5.233   3.234 -2.7645 -1.9185 -1.6416
13963SOL    HW242575   4.807   5.360   3.166  1.7943  1.2644  0.4110
13964SOL     OW42576   3.699   3.486   3.591 -0.1626  0.0669  0.0160
13964SOL    HW142577   3.753   3.414   3.559  0.8937  0.5405  0.7074
13964SOL    HW242578   3.633   3.498   3.523 -0.6259 -1.8250  0.0757
13965SOL     OW42579   0.844   6.982   2.306  0.4119  0.1623 -0.1765
13965SOL    HW142580   0.934   6.958   2.327 -0.0857 -0.8633  0.8280
13965SOL    HW242581   0.800   6.900   2.287 -0.0778  0.7406 -1.7348
13966SOL     OW42582   4.233   3.502   3.845  0.0169  0.3993  0.6861
13966SOL    HW142583   4.328   3.497   3.832  0.1374  1.1075  1.2469
13966SOL    HW242584   4.223   3.558   3.922 -0.8021 -0.8551  1.5211
13967SOL     OW42585   1.480   3.520   0.979 -0.2841 -0.0643  0.1100
13967SOL    HW142586   1.555   3.578   0.966 -0.2065 -0.4668 -1.5194
13967SOL    HW242587   1.404   3.578   0.967 -0.2845  0.4642  2.3353
13968SOL     OW42588   0.875   6.566   2.494 -0.6788  0.1591 -0.2768
13968SOL    HW142589   0.922   6.647   2.511 -0.6871  0.5995 -2.1388
13968SOL    HW242590   0.941   6.508   2.455 -0.7720 -0.6070  0.6637
13969SOL     OW42591   7.428   1.675   1.804 -0.1574  0.2277 -0.0555
13969SOL    HW142592   7.436   1.602   1.743 -0.9354  0.1239 -0.0457
13969SOL    HW242593   7.334   1.681   1.822  0.2013 -1.3241  2.9903
13970SOL     OW42594   6.807   5.214   2.484 -0.1590 -0.6492 -0.1029
13970SOL    HW142595   6.747   5.171   2.424  0.1971  2.1111 -2.6958
13970SOL    HW242596   6.780   5.306   2.484  3.6298  0.6792 -1.0805
13971SOL     OW42597   5.748   5.577   7.277  0.6167 -0.1759  0.4418
13971SOL    HW142598   5.708   5.664   7.267 -1.9659 -1.3937 -0.5529
13971SOL    HW242599   5.842   5.594   7.268  0.1157  2.3460 -1.1758
13972SOL     OW42600   3.272   5.591   6.631  0.3192  0.2240  0.4082
13972SOL    HW142601   3.332   5.627   6.566 -1.9560  2.7999 -0.4503
13972SOL    HW242602   3.309   5.617   6.715  1.9524 -0.9193  0.0881
13973SOL     OW42603   7.522   4.002   4.756 -0.1513 -0.3878  0.0108
13973SOL    HW142604   7.454   4.054   4.714  0.3944  1.1037  0.9155
13973SOL    HW242605   7.578   3.973   4.684  0.9101  2.3201 -0.3664
13974SOL     OW42606   2.771   7.772   1.378  0.4119 -0.2717 -0.5874
13974SOL    HW142607   2.676   7.773   1.392  0.4998 -2.4638  0.6276
13974SOL    HW242608   2.808   7.777   1.466  1.2605 -3.7787 -0.6130
13975SOL     OW42609   1.381   5.448   1.224  0.0896  0.2587 -0.1533
13975SOL    HW142610   1.438   5.477   1.154  1.5328  0.1481  0.9405
13975SOL    HW242611   1.372   5.525   1.281  1.0197 -0.3579  0.8661
13976SOL     OW42612   4.284   5.833   7.076  0.5426  0.0597  0.0324
13976SOL    HW142613   4.219   5.845   7.146  1.5760 -0.3365  1.1061
13976SOL    HW242614   4.243   5.773   7.015 -0.1926 -0.0101  0.5829
13977SOL     OW42615   1.892   6.067   2.689  0.1576 -0.1662  0.1353
13977SOL    HW142616   1.921   6.016   2.614  2.5275 -0.7717  1.3494
13977SOL    HW242617   1.966   6.125   2.709 -0.6823  0.4851  1.5529
13978SOL     OW42618   2.545   1.970   1.997 -0.3834  0.0198  0.1887
13978SOL    HW142619   2.510   1.916   2.068  0.0296  2.3618  2.3328
13978SOL    HW242620   2.478   2.038   1.984  1.0105  1.5608  0.7455
13979SOL     OW42621   2.922   6.254   3.371  0.1748  0.5331  0.0055
13979SOL    HW142622   2.845   6.307   3.391  0.0254  0.4657 -0.3732
13979SOL    HW242623   2.914   6.236   3.277  0.0818 -0.3733  0.1741
13980SOL     OW42624   0.507   7.107   1.792  0.0463 -0.6636 -0.0925
13980SOL    HW142625   0.577   7.172   1.801  0.0547 -0.0299 -3.5477
13980SOL    HW242626   0.429   7.151   1.826 -0.3728  2.1379 -4.0590
13981SOL     OW42627   2.445   2.201   4.295 -0.1879 -0.0742 -0.7741
13981SOL    HW142628   2.353   2.188   4.317 -0.3659  2.2094  0.0699
13981SOL    HW242629   2.492   2.167   4.371 -0.3961 -0.0307 -0.6251
13982SOL     OW42630   0.286   1.630   4.593 -0.1172  0.6886  0.4532
13982SOL    HW142631   0.284   1.589   4.679  0.5951 -1.2912 -0.4080
13982SOL    HW242632   0.194   1.636   4.567 -0.2407 -0.3328  0.6308
13983SOL     OW42633   1.110   3.047   5.428 -0.0418 -0.2135 -0.6202
13983SOL    HW142634   1.177   3.053   5.496  0.6630 -1.2312 -1.2063
13983SOL    HW242635   1.131   3.116   5.366 -0.5344  0.5494  0.0304
13984SOL     OW42636   7.258   2.986   5.952  0.4685  0.2045 -0.3571
13984SOL    HW142637   7.253   2.897   5.917 -0.2812  0.5846 -1.2824
13984SOL    HW242638   7.267   3.041   5.874  0.5806  0.9572  0.1811
13985SOL     OW42639   5.350   3.843   5.569 -0.0918 -0.3837  0.2448
13985SOL    HW142640   5.332   3.753   5.542  0.7703 -0.8622  1.1910
13985SOL    HW242641   5.274   3.866   5.623 -1.2813  0.1912 -1.6085
13986SOL     OW42642   5.384   3.305   1.059 -0.5801 -0.3262 -0.4520
13986SOL    HW142643   5.369   3.211   1.057 -0.4185 -0.3418 -1.9999
13986SOL    HW242644   5.414   3.327   0.971 -2.2767  1.4337 -0.6790
13987SOL     OW42645   5.929   5.154   7.635  0.2631  0.2299  0.1153
13987SOL    HW142646   5.921   5.226   7.697  2.3176  0.1729  0.5120
13987SOL    HW242647   6.021   5.128   7.640  0.3168 -0.3058 -2.3656
13988SOL     OW42648   0.002   0.233   4.397  0.3657 -0.8299  0.1095
13988SOL    HW142649  -0.093   0.242   4.397  0.5125  1.0266  1.1900
13988SOL    HW242650   0.018   0.150   4.442 -0.6656  0.2183  2.5483
13989SOL     OW42651   1.247   4.395   3.638 -0.0920 -0.0801  0.9553
13989SOL    HW142652   1.232   4.300   3.640 -0.3048 -0.0910 -0.3094
13989SOL    HW242653   1.272   4.417   3.727 -2.1150 -0.9795  1.8127
13990SOL     OW42654   1.063   7.062   0.517  0.0631 -0.7412 -1.1331
13990SOL    HW142655   1.157   7.060   0.536 -0.3728  0.0568  1.5265
13990SOL    HW242656   1.034   7.149   0.544 -1.6701 -1.4210 -0.6405
13991SOL     OW42657   2.445   1.704   7.428 -0.0620  0.1952 -0.8002
13991SOL    HW142658   2.444   1.614   7.394  0.0622  0.2939 -1.0637
13991SOL    HW242659   2.535   1.733   7.416  0.5642 -0.5128  1.5584
13992SOL     OW42660   0.931   5.567   3.594 -0.2724  0.3878 -0.1784
13992SOL    HW142661   0.837   5.584   3.589 -0.4581 -0.6446 -0.5687
13992SOL    HW242662   0.967   5.610   3.516 -0.4245  0.7358 -0.0593
13993SOL     OW42663   2.758   3.840   4.282 -0.0335 -0.5102  0.2844
13993SOL    HW142664   2.718   3.892   4.352  1.5385 -0.5907  1.2962
13993SOL    HW242665   2.702   3.855   4.206 -1.0145  0.6869  1.2022
13994SOL     OW42666   0.858   3.620   0.004  0.2177 -0.8540 -0.1709
13994SOL    HW142667   0.859   3.524   0.007  0.7667 -0.8350  0.2916
13994SOL    HW242668   0.950   3.646   0.008  0.0483 -0.2944  0.3504
13995SOL     OW42669   2.352   6.928   6.941  0.6378  0.1545 -0.4466
13995SOL    HW142670   2.287   6.951   7.007  0.3119  0.5369 -0.8968
13995SOL    HW242671   2.326   6.840   6.911 -1.2662  1.2929 -2.4870
13996SOL     OW42672   2.476   5.925   4.418  0.0829 -0.3322 -0.4236
13996SOL    HW142673   2.513   5.970   4.494 -0.2974 -0.3357 -0.2349
13996SOL    HW242674   2.452   5.996   4.358  1.3177 -0.3678 -0.9833
13997SOL     OW42675   2.402   1.991   3.292  0.0552 -0.2309  0.3018
13997SOL    HW142676   2.411   2.082   3.263  0.1309 -0.6112 -0.8892
13997SOL    HW242677   2.460   1.985   3.368  1.1083  0.3656 -0.4252
13998SOL     OW42678   2.858   4.779   5.717  0.4752  0.0683  0.4816
13998SOL    HW142679   2.794   4.788   5.647  2.1147 -1.3230 -1.3334
13998SOL    HW242680   2.891   4.868   5.731  2.5572  0.0543 -3.0903
13999SOL     OW42681   4.876   1.376   3.966 -0.0209 -0.0389 -0.5178
13999SOL    HW142682   4.910   1.332   4.045 -0.1914  1.5212  0.4740
13999SOL    HW242683   4.953   1.413   3.925 -0.3148  3.6401  1.8196
14000SOL     OW42684   2.576   6.337   1.404  0.3469  0.3719  0.3912
14000SOL    HW142685   2.483   6.318   1.413 -0.0077  1.9061  0.3015
14000SOL    HW242686   2.593   6.330   1.310 -0.0505  1.5699  0.2130
14001SOL     OW42687   0.139   6.051   6.026 -0.2217 -0.0412 -0.5435
14001SOL    HW142688   0.212   6.056   6.089 -1.4945 -2.8998  1.3360
14001SOL    HW242689   0.168   5.987   5.961 -0.2688  0.3337 -0.9359
14002SOL     OW42690   6.795   6.492   2.745  0.1210  0.2192 -0.3713
14002SOL    HW142691   6.717   6.477   2.798 -1.0453  2.4404 -1.3301
14002SOL    HW242692   6.791   6.424   2.677 -1.4933  0.8045 -0.9158
14003SOL     OW42693   1.270   1.949   0.683 -0.3925  0.6111 -0.1254
14003SOL    HW142694   1.296   1.868   0.727 -1.6798 -0.0625 -0.5497
14003SOL    HW242695   1.279   1.929   0.589  0.6661  1.4519 -0.2144
14004SOL     OW42696   4.863   0.221   0.343 -0.3723 -0.0314 -0.0670
14004SOL    HW142697   4.903   0.134   0.349 -0.6830 -0.1409  0.3603
14004SOL    HW242698   4.892   0.267   0.422 -1.1806 -0.1446  0.2942
14005SOL     OW42699   0.490   2.438   3.449 -0.5544  0.3594  0.3471
14005SOL    HW142700   0.451   2.524   3.431  0.5290  0.9609  0.7638
14005SOL    HW242701   0.481   2.390   3.367  0.1697  1.4063 -0.3711
14006SOL     OW42702   5.990   1.274   7.270 -0.3248 -0.2512  0.0429
14006SOL    HW142703   6.060   1.221   7.309  0.4996 -0.5512 -1.7470
14006SOL    HW242704   5.947   1.216   7.207 -0.2309  0.7867 -1.0338
14007SOL     OW42705   7.538   7.363   2.635 -0.1700  0.3358 -0.3784
14007SOL    HW142706   7.583   7.347   2.718 -1.9366  0.2006  0.6161
14007SOL    HW242707   7.506   7.277   2.609  1.2538  0.1992 -1.7768
14008SOL     OW42708   1.577   7.162   7.287 -0.0057  0.0421 -0.2698
14008SOL    HW142709   1.624   7.244   7.276  2.7224 -1.3597  0.0295
14008SOL    HW242710   1.533   7.147   7.203  0.3105  1.2782 -0.6638
14009SOL     OW42711   6.146   6.739   5.809  0.1083  0.1275 -0.5315
14009SOL    HW142712   6.225   6.784   5.838 -0.0766  0.0070  0.1918
14009SOL    HW242713   6.176   6.676   5.744  0.5322  0.4521 -0.6529
14010SOL     OW42714   3.547   7.513   5.615 -0.1017  0.6321 -0.0533
14010SOL    HW142715   3.633   7.537   5.581  0.3372 -0.1540  0.4585
14010SOL    HW242716   3.534   7.571   5.690  1.1629 -0.9320  1.4681
14011SOL     OW42717   3.066   6.936   3.737  0.1076 -0.3200  0.4182
14011SOL    HW142718   2.986   6.909   3.691 -0.2601 -0.0540  0.8909
14011SOL    HW242719   3.126   6.963   3.668 -0.3385 -0.1874  0.0798
14012SOL     OW42720   0.467   3.825   4.060  0.1359 -0.1108  0.7792
14012SOL    HW142721   0.520   3.819   3.981  0.9107 -0.2469  1.3015
14012SOL    HW242722   0.528   3.806   4.132 -0.1976  1.5620  1.5372
14013SOL     OW42723   1.651   7.424   2.310 -0.1744 -0.1252 -0.6375
14013SOL    HW142724   1.629   7.425   2.404  0.4644  0.0458 -0.4903
14013SOL    HW242725   1.592   7.358   2.273 -0.5176 -0.1053 -0.1359
14014SOL     OW42726   3.746   0.841   2.468  0.0980  0.1227 -0.2454
14014SOL    HW142727   3.838   0.863   2.479  0.4119 -1.5322  0.7030
14014SOL    HW242728   3.704   0.869   2.549  0.0435 -0.4653 -0.0678
14015SOL     OW42729   3.679   3.907   5.195  0.4762 -0.0724  0.1806
14015SOL    HW142730   3.664   3.927   5.103 -1.7630  2.4710  0.9572
14015SOL    HW242731   3.615   3.961   5.242  0.5089 -2.3726  3.1832
14016SOL     OW42732   0.104   2.890   0.748  0.2582 -0.4265  0.5527
14016SOL    HW142733   0.097   2.818   0.685  0.0677  0.5801 -0.6024
14016SOL    HW242734   0.016   2.895   0.787 -0.1198  0.0432 -0.3398
14017SOL     OW42735   2.469   6.231   5.934 -0.1529 -0.0904 -0.1673
14017SOL    HW142736   2.505   6.238   5.846 -4.1856  1.9603 -1.9265
14017SOL    HW242737   2.457   6.137   5.948  0.9030 -0.4712 -1.6059
14018SOL     OW42738   6.408   3.129   2.112 -0.0642 -0.0065 -0.2133
14018SOL    HW142739   6.370   3.058   2.061  1.4696 -1.2279  0.2631
14018SOL    HW242740   6.461   3.179   2.049  0.2586 -0.3430 -0.2101
14019SOL     OW42741   5.803   1.334   2.082  0.2248 -0.2329 -1.0480
14019SOL    HW142742   5.751   1.414   2.082  0.2938 -0.1790 -1.6979
14019SOL    HW242743   5.739   1.264   2.085  0.0485 -0.1844 -2.7330
14020SOL     OW42744   3.570   1.577   0.827  0.6059  0.4428 -0.6111
14020SOL    HW142745   3.614   1.629   0.894 -2.3079  1.3187  0.8255
14020SOL    HW242746   3.484   1.558   0.865  0.3549 -2.7290 -2.4404
14021SOL     OW42747   0.486   2.071   5.184  0.4126 -0.0569 -0.5959
14021SOL    HW142748   0.562   2.048   5.130  1.2112  0.2343  0.3806
14021SOL    HW242749   0.475   1.996   5.242 -0.2340 -0.2225 -0.9281
14022SOL     OW42750   4.523   2.425   2.082  0.9995 -0.4381 -0.0924
14022SOL    HW142751   4.471   2.504   2.094  3.3693  1.1264  0.6630
14022SOL    HW242752   4.468   2.367   2.030 -0.3159  2.2663 -1.9086
14023SOL     OW42753   4.577   5.064   2.043 -0.0516  0.2198  0.3306
14023SOL    HW142754   4.512   5.134   2.055  0.3292  0.9768 -1.6106
14023SOL    HW242755   4.577   5.048   1.949 -0.2339 -2.5750  0.7262
14024SOL     OW42756   3.930   7.435   4.628  0.3689  0.6932  0.7141
14024SOL    HW142757   3.948   7.518   4.583  0.2594 -0.8970 -2.5977
14024SOL    HW242758   3.834   7.432   4.634  0.3968  1.0857  1.5153
14025SOL     OW42759   3.464   1.209   2.703 -0.1144  0.1754 -0.4439
14025SOL    HW142760   3.495   1.241   2.619 -1.2525 -0.5569 -1.1691
14025SOL    HW242761   3.464   1.286   2.760  0.7944  0.6445 -1.0582
14026SOL     OW42762   2.891   2.103   3.454  0.1938  0.1792 -0.6158
14026SOL    HW142763   2.901   2.193   3.425 -1.7121 -0.0062 -1.9732
14026SOL    HW242764   2.887   2.109   3.550  2.2791  1.2403 -0.5264
14027SOL     OW42765   1.617   6.806   5.081 -0.0234 -0.3584 -0.0882
14027SOL    HW142766   1.710   6.783   5.087  0.2604  0.9799  1.4938
14027SOL    HW242767   1.612   6.868   5.009  0.0608 -1.4041 -1.0231
14028SOL     OW42768   4.524   4.268   3.109  0.0971  0.1309  0.1205
14028SOL    HW142769   4.434   4.290   3.086  0.4817  1.7937  0.0798
14028SOL    HW242770   4.544   4.323   3.185  0.8209 -0.8320  0.6578
14029SOL     OW42771   5.104   4.530   2.349  0.0789  0.3870 -0.1679
14029SOL    HW142772   5.135   4.440   2.354  1.6781  0.9518  0.7130
14029SOL    HW242773   5.153   4.569   2.276  0.8403  1.0385  0.6608
14030SOL     OW42774   1.858   3.198   0.986  0.1122 -0.0996 -0.7199
14030SOL    HW142775   1.847   3.226   0.895  0.5828 -1.0907 -1.0959
14030SOL    HW242776   1.792   3.130   0.999  0.1191 -0.0392 -0.3605
14031SOL     OW42777   5.571   1.667   2.828 -0.1691  0.2974  0.4270
14031SOL    HW142778   5.509   1.729   2.790 -0.4483 -0.3892 -0.2639
14031SOL    HW242779   5.550   1.666   2.922  0.9409  2.4869  0.7625
14032SOL     OW42780   0.138   0.215   3.208  0.3981 -0.0470 -0.3489
14032SOL    HW142781   0.121   0.126   3.176 -0.9852  0.7975 -2.1908
14032SOL    HW242782   0.183   0.203   3.292 -0.6067 -2.4737 -0.0838
14033SOL     OW42783   3.593   3.048   5.727 -0.0123 -0.1888  0.0053
14033SOL    HW142784   3.642   2.973   5.762  1.6289  0.9495  0.2882
14033SOL    HW242785   3.640   3.124   5.760 -1.3828  0.9817 -0.6288
14034SOL     OW42786   3.756   0.703   3.440 -0.5650  0.0121  0.9898
14034SOL    HW142787   3.693   0.637   3.468  0.7082 -1.8206 -0.1987
14034SOL    HW242788   3.841   0.666   3.466  0.4669 -0.5303 -2.6110
14035SOL     OW42789   7.031   4.209   5.105 -0.1306 -0.2629 -0.0461
14035SOL    HW142790   7.043   4.123   5.146 -0.5096 -0.5417 -0.5082
14035SOL    HW242791   7.108   4.220   5.049  0.3847  0.1154  0.7126
14036SOL     OW42792   4.154   2.631   3.535  0.5998  0.0269 -0.0819
14036SOL    HW142793   4.192   2.718   3.523  1.4585  0.0358  2.2442
14036SOL    HW242794   4.228   2.571   3.526  0.4979 -0.2515  0.8635
14037SOL     OW42795   6.878   1.099   2.851  0.4042  0.3932  0.4212
14037SOL    HW142796   6.802   1.144   2.815 -0.2484 -0.2421  0.9537
14037SOL    HW242797   6.848   1.009   2.866  1.7358 -0.3126 -0.8577
14038SOL     OW42798   6.701   0.798   3.525 -0.2128 -0.1670  0.3671
14038SOL    HW142799   6.666   0.821   3.439 -0.9379 -1.6386  0.2337
14038SOL    HW242800   6.740   0.711   3.512  0.1887 -0.1450  1.3865
14039SOL     OW42801   7.693   2.614   7.407 -0.1226  0.1157  0.8420
14039SOL    HW142802   7.675   2.706   7.421 -1.6685  0.2677 -1.5084
14039SOL    HW242803   7.614   2.569   7.435 -1.3850  0.0481 -2.3845
14040SOL     OW42804   7.637   2.375   3.964 -0.2385  0.7721 -0.4215
14040SOL    HW142805   7.633   2.316   3.889  1.9948  0.4974 -0.3746
14040SOL    HW242806   7.556   2.356   4.013 -0.6712 -0.6092 -1.5975
14041SOL     OW42807   2.800   7.679   4.038  0.1737 -0.5880 -0.8034
14041SOL    HW142808   2.817   7.766   4.001 -3.0284 -0.3834 -2.1331
14041SOL    HW242809   2.751   7.633   3.969 -1.3621 -2.1425  1.2045
14042SOL     OW42810   5.326   2.759   0.825 -0.7164  0.6192 -0.5023
14042SOL    HW142811   5.252   2.717   0.868 -1.5947  1.1171 -1.5059
14042SOL    HW242812   5.353   2.828   0.886 -0.3965 -0.2178  0.3332
14043SOL     OW42813   3.278   1.122   6.723  0.1973  0.2420 -0.4623
14043SOL    HW142814   3.213   1.144   6.791  1.0503  1.7546 -0.0882
14043SOL    HW242815   3.229   1.126   6.641 -1.1949 -2.9390  0.0391
14044SOL     OW42816   1.897   1.183   2.350 -0.5860 -0.1708  0.1823
14044SOL    HW142817   1.843   1.145   2.419  1.1606 -0.1640  1.6371
14044SOL    HW242818   1.932   1.107   2.303  0.9479 -0.3556  1.5352
14045SOL     OW42819   5.382   3.962   0.066  0.1950 -0.0198  0.6103
14045SOL    HW142820   5.412   4.053   0.058 -0.1282  0.0035 -0.5954
14045SOL    HW242821   5.368   3.950   0.159 -1.1047  1.6272  0.6816
14046SOL     OW42822   6.559   7.007   1.470  0.0053  0.0496 -0.3346
14046SOL    HW142823   6.625   6.964   1.524 -0.2827 -0.9936 -0.8020
14046SOL    HW242824   6.478   7.001   1.522  0.3195  1.6325  0.3931
14047SOL     OW42825   7.677   7.415   0.774 -0.1744  0.2569 -0.0335
14047SOL    HW142826   7.640   7.502   0.755  1.3715  1.2336  1.1668
14047SOL    HW242827   7.662   7.403   0.868 -0.9376 -1.0892 -0.3067
14048SOL     OW42828   6.970   7.447   6.416  0.1270  0.2065  0.1181
14048SOL    HW142829   7.024   7.368   6.425 -2.2160 -1.3050  2.6371
14048SOL    HW242830   6.962   7.460   6.322  1.6806 -1.7641 -0.3560
14049SOL     OW42831   6.852   5.778   0.717 -0.2450 -0.3187 -0.2480
14049SOL    HW142832   6.769   5.731   0.713 -0.0753 -0.6639  0.2252
14049SOL    HW242833   6.890   5.767   0.629 -0.5715 -0.3908 -0.3802
14050SOL     OW42834   3.857   7.237   7.266 -0.3517  0.0429  0.2092
14050SOL    HW142835   3.898   7.237   7.179  1.3164  0.2948  0.9488
14050SOL    HW242836   3.769   7.271   7.251 -0.1886 -0.1683 -1.4157
14051SOL     OW42837   3.647   6.667   5.473  0.1759 -0.2468  0.2121
14051SOL    HW142838   3.668   6.705   5.558  1.4933  0.1083 -0.2320
14051SOL    HW242839   3.715   6.702   5.414  0.3739 -1.8833 -0.5970
14052SOL     OW42840   2.407   2.862   4.479 -0.0776  0.0094 -0.0069
14052SOL    HW142841   2.403   2.854   4.575 -1.2911  0.0464 -0.0434
14052SOL    HW242842   2.318   2.884   4.453  0.4196  0.8353 -1.0822
14053SOL     OW42843   2.527   5.055   0.512  0.3995  0.4429 -0.0159
14053SOL    HW142844   2.545   5.137   0.467  0.6211  0.2925 -0.2064
14053SOL    HW242845   2.434   5.059   0.533  0.4634  0.8471  0.1936
14054SOL     OW42846   4.892   3.240   0.251  0.1635  0.4050 -0.0302
14054SOL    HW142847   4.831   3.226   0.322 -0.0601 -1.1910 -0.4944
14054SOL    HW242848   4.837   3.255   0.174  0.3805  0.9681 -0.0768
14055SOL     OW42849   7.163   7.664   3.895 -0.1019  0.0942  0.5946
14055SOL    HW142850   7.103   7.729   3.858  0.4071  1.1798  1.6103
14055SOL    HW242851   7.223   7.643   3.823 -1.1525 -0.3598 -0.1730
14056SOL     OW42852   3.036   2.074   4.332 -0.5577 -0.2705  0.9655
14056SOL    HW142853   3.049   1.998   4.388 -1.8899 -1.2376  0.0133
14056SOL    HW242854   3.093   2.141   4.369 -0.3641 -1.3080  2.6256
14057SOL     OW42855   4.000   4.057   3.321  0.2571  0.3713  0.1007
14057SOL    HW142856   3.916   4.026   3.355  0.1838 -0.6114 -0.9509
14057SOL    HW242857   3.977   4.110   3.244  0.6326 -0.4801 -0.6081
14058SOL     OW42858   6.211   3.506   0.272 -0.9058  0.0584 -0.3205
14058SOL    HW142859   6.179   3.488   0.361 -2.8261  1.2821 -0.7274
14058SOL    HW242860   6.198   3.423   0.225 -0.6009 -0.3618  0.3129
14059SOL     OW42861   4.251   2.663   1.697 -0.3650  0.0730  0.0477
14059SOL    HW142862   4.240   2.711   1.779 -0.5352 -0.0869  0.1191
14059SOL    HW242863   4.345   2.663   1.681 -0.2851 -0.3433  0.5132
14060SOL     OW42864   7.143   2.488   3.978 -0.0839 -0.0223 -0.2075
14060SOL    HW142865   7.212   2.496   3.912 -1.4818  1.6464 -1.5779
14060SOL    HW242866   7.145   2.572   4.025 -0.2925 -0.4956  0.6724
14061SOL     OW42867   1.312   6.901   0.916 -0.4883 -0.2751 -0.7078
14061SOL    HW142868   1.348   6.983   0.885 -0.4008  0.4958  1.2755
14061SOL    HW242869   1.386   6.841   0.921  0.1183  0.5490  0.9498
14062SOL     OW42870   1.348   0.048   6.521  0.0361  0.1423 -0.7674
14062SOL    HW142871   1.436   0.083   6.535 -0.3888  0.7787  0.4581
14062SOL    HW242872   1.308   0.109   6.458 -0.3991  1.4270  0.6934
14063SOL     OW42873   1.073   0.286   5.872 -0.1813  0.2402  0.2987
14063SOL    HW142874   1.085   0.192   5.861  1.6118  0.3355  0.9904
14063SOL    HW242875   1.098   0.302   5.963  0.8303  1.5359 -0.1758
14064SOL     OW42876   2.112   5.011   0.616 -0.0392 -0.1563  0.6702
14064SOL    HW142877   2.176   5.061   0.666  1.3386  0.3900 -1.4946
14064SOL    HW242878   2.163   4.971   0.545 -2.0203 -0.0231 -0.9227
14065SOL     OW42879   7.131   2.572   4.522  0.3929 -0.0054 -0.1110
14065SOL    HW142880   7.058   2.583   4.583  0.2948 -1.3915  0.0524
14065SOL    HW242881   7.181   2.653   4.531 -1.6370  1.4300 -0.9667
14066SOL     OW42882   3.137   4.513   0.844  0.4127  0.1082 -0.3324
14066SOL    HW142883   3.190   4.569   0.787 -0.0654  1.2976  0.3533
14066SOL    HW242884   3.075   4.471   0.785  1.2546 -0.2864 -0.9601
14067SOL     OW42885   0.025   6.045   6.629  0.1581  0.7714  0.3134
14067SOL    HW142886  -0.020   6.055   6.546 -2.4136 -0.5352  1.4496
14067SOL    HW242887   0.114   6.017   6.606 -0.7875 -0.5429 -1.9646
14068SOL     OW42888   1.947   5.366   4.128  0.3282 -0.0431 -0.9521
14068SOL    HW142889   1.940   5.298   4.061  1.7356 -0.6511 -0.5128
14068SOL    HW242890   1.950   5.448   4.079 -1.5519 -0.2254 -1.4890
14069SOL     OW42891   6.482   4.098   7.691  0.0297 -0.3064 -0.3022
14069SOL    HW142892   6.471   4.189   7.719  0.4382 -0.5753  0.8167
14069SOL    HW242893   6.411   4.051   7.735  1.1082 -0.8585  0.9420
14070SOL     OW42894   2.280   5.161   2.568 -0.5657  0.2632  0.1362
14070SOL    HW142895   2.318   5.240   2.605 -1.6315  1.7687 -1.7722
14070SOL    HW242896   2.211   5.136   2.630 -0.8205  1.3984  0.3371
14071SOL     OW42897   5.177   5.229   1.342  0.4222 -0.5848  0.1413
14071SOL    HW142898   5.171   5.308   1.396 -1.3552 -1.8194  1.9038
14071SOL    HW242899   5.256   5.185   1.374  0.6420 -0.2170  0.1162
14072SOL     OW42900   0.183   1.341   5.303  0.3951  0.2108  0.7548
14072SOL    HW142901   0.144   1.330   5.216  0.7060 -0.1409  0.6549
14072SOL    HW242902   0.137   1.278   5.358  1.0241 -0.4401  0.5634
14073SOL     OW42903   7.464   3.722   3.259  0.0274  0.6291 -0.4595
14073SOL    HW142904   7.373   3.749   3.246  0.2100  0.5781 -2.0961
14073SOL    HW242905   7.498   3.781   3.326 -1.1269  0.8493 -0.0606
14074SOL     OW42906   5.415   6.190   2.200 -0.2557  0.3934 -0.1699
14074SOL    HW142907   5.402   6.114   2.143 -1.8536  2.2175 -2.4391
14074SOL    HW242908   5.509   6.207   2.198  0.0973 -1.3166  0.1974
14075SOL     OW42909   3.978   6.007   7.160  0.0736 -0.1509 -0.5257
14075SOL    HW142910   3.886   6.030   7.171  0.4100  0.1561  2.3779
14075SOL    HW242911   3.978   5.911   7.154 -0.4885 -0.0890 -2.0377
14076SOL     OW42912   4.177   5.057   5.927 -0.1531  0.2855  0.3381
14076SOL    HW142913   4.132   5.142   5.924  1.8909  1.5253  2.0461
14076SOL    HW242914   4.223   5.057   6.010 -0.6779 -2.9015  0.7627
14077SOL     OW42915   0.942   3.234   0.612  0.8397  0.2682  0.1887
14077SOL    HW142916   0.980   3.307   0.563  2.4331  0.6276  1.8351
14077SOL    HW242917   0.919   3.169   0.545  1.6367  1.2837 -1.1249
14078SOL     OW42918   4.087   7.668   4.058  0.0707 -0.5345 -0.1493
14078SOL    HW142919   4.044   7.586   4.081  0.6139 -1.3983 -1.9738
14078SOL    HW242920   4.120   7.654   3.969  1.9617  0.9417  0.2266
14079SOL     OW42921   4.800   5.418   6.579  0.6719  0.5823 -0.6073
14079SOL    HW142922   4.852   5.398   6.502  0.6528 -1.3519 -0.1520
14079SOL    HW242923   4.710   5.427   6.546  0.6149 -0.5638 -0.7759
14080SOL     OW42924   3.328   4.276   4.643 -0.1474 -0.7231 -0.1382
14080SOL    HW142925   3.350   4.262   4.550 -0.1328 -0.0416 -0.2438
14080SOL    HW242926   3.235   4.256   4.648 -0.2736 -0.2270 -0.4208
14081SOL     OW42927   1.636   2.514   6.354 -0.0275  0.2382  0.3492
14081SOL    HW142928   1.662   2.484   6.441 -0.2762 -1.3883 -0.1106
14081SOL    HW242929   1.612   2.434   6.307 -0.5386  1.1538 -1.0054
14082SOL     OW42930   7.771   4.180   5.608 -0.0668  0.3421  0.1744
14082SOL    HW142931   7.711   4.219   5.671  1.3683  1.9500  0.6303
14082SOL    HW242932   7.743   4.215   5.523  0.3363  1.2945  0.4151
14083SOL     OW42933   0.955   5.613   0.497 -0.4136  0.5678  0.5100
14083SOL    HW142934   0.870   5.595   0.537 -1.4227  2.0819 -0.8332
14083SOL    HW242935   0.984   5.695   0.538  0.3458  0.1460  0.8418
14084SOL     OW42936   7.108   0.930   1.843 -0.4578  0.1083  0.0538
14084SOL    HW142937   7.150   0.969   1.766 -1.3445  0.4158 -0.2927
14084SOL    HW242938   7.105   1.001   1.907 -0.0732 -0.0332  0.2274
14085SOL     OW42939   3.264   1.977   5.981  0.2533 -0.2674 -0.7076
14085SOL    HW142940   3.181   2.019   6.003  0.2186  0.3384 -1.8749
14085SOL    HW242941   3.319   1.987   6.059  0.1629  1.7677 -0.8519
14086SOL     OW42942   1.293   4.725   6.274 -0.2955  0.1642  0.1067
14086SOL    HW142943   1.237   4.766   6.341 -0.0315  1.6323 -0.5378
14086SOL    HW242944   1.380   4.722   6.315 -0.2388  0.5949  0.0214
14087SOL     OW42945   7.516   6.513   4.285  0.1547 -0.0011  0.1787
14087SOL    HW142946   7.510   6.445   4.217  2.4595  0.8313 -0.9587
14087SOL    HW242947   7.587   6.484   4.342  1.5593  1.6237 -0.6438
14088SOL     OW42948   0.210   4.493   3.570 -0.2312  0.2294 -0.9457
14088SOL    HW142949   0.281   4.552   3.545 -1.0464  1.7074  0.0734
14088SOL    HW242950   0.132   4.528   3.527 -0.8621  0.3353  0.2329
14089SOL     OW42951   7.687   7.044   1.877  0.2827 -0.4887 -0.2324
14089SOL    HW142952   7.599   7.081   1.885  0.7152  0.7323 -0.9342
14089SOL    HW242953   7.673   6.949   1.877 -0.9756 -0.3187  0.2143
14090SOL     OW42954   0.781   3.900   6.483  0.8815 -0.0358 -0.8920
14090SOL    HW142955   0.866   3.937   6.506  0.7723 -0.1944 -0.2132
14090SOL    HW242956   0.771   3.920   6.390  0.8342  1.6222 -0.5591
14091SOL     OW42957   1.848   5.931   5.596 -0.2161 -0.5413 -0.0576
14091SOL    HW142958   1.819   5.936   5.687 -1.1527  0.6791 -0.4014
14091SOL    HW242959   1.920   5.994   5.589 -1.1702  0.5372 -0.5037
14092SOL     OW42960   0.097   1.148   0.726 -0.1906 -0.2528 -0.4774
14092SOL    HW142961   0.060   1.140   0.638  0.0638  1.1192 -0.7310
14092SOL    HW242962   0.038   1.096   0.781 -1.0207 -0.1864 -1.2720
14093SOL     OW42963   0.021   5.776   3.647  0.4715  0.4299  0.0156
14093SOL    HW142964  -0.010   5.828   3.573  0.0648 -0.1792 -0.2452
14093SOL    HW242965   0.057   5.697   3.608 -0.2778 -0.1638  0.4814
14094SOL     OW42966   2.142   6.376   2.001  0.4485 -0.0087  0.1719
14094SOL    HW142967   2.127   6.411   2.089 -0.6475  1.1519 -0.4429
14094SOL    HW242968   2.235   6.352   2.000  0.2611 -1.0264  1.9570
14095SOL     OW42969   6.045   2.580   2.652 -0.8404  0.2177 -0.0497
14095SOL    HW142970   5.954   2.553   2.652 -0.9217  0.4736  0.5523
14095SOL    HW242971   6.093   2.505   2.688 -0.9608  0.5117  0.7586
14096SOL     OW42972   5.975   3.199   0.335  0.0321 -0.3726 -0.2831
14096SOL    HW142973   6.013   3.178   0.421 -0.2796  0.4317  0.0618
14096SOL    HW242974   5.888   3.233   0.356  0.5367  1.3095 -0.7999
14097SOL     OW42975   1.898   6.729   1.171 -0.1014 -0.5718 -0.6186
14097SOL    HW142976   1.891   6.692   1.082  0.1495 -0.1331 -0.8254
14097SOL    HW242977   1.807   6.741   1.199 -0.2043  1.0295 -1.5553
14098SOL     OW42978   6.964   2.038   1.310 -0.1001 -0.0350  0.5735
14098SOL    HW142979   6.988   2.088   1.231 -0.3429 -2.2516 -1.0118
14098SOL    HW242980   6.910   1.966   1.277 -1.2390 -0.3731  2.9624
14099SOL     OW42981   6.102   2.977   7.512  0.0759 -0.1468 -0.4286
14099SOL    HW142982   6.043   3.023   7.452  0.8719  0.0758 -1.0608
14099SOL    HW242983   6.139   3.047   7.566  1.7609  0.1104 -1.7982
14100SOL     OW42984   1.215   0.199   2.675  0.0520  0.5490 -0.1316
14100SOL    HW142985   1.141   0.138   2.681 -1.0107  1.9283  1.9891
14100SOL    HW242986   1.230   0.209   2.581 -1.0461 -1.4075 -0.5664
14101SOL     OW42987   7.745   1.590   5.978 -0.2887 -0.2590  0.6183
14101SOL    HW142988   7.655   1.588   5.945 -0.6565  0.4080  1.5167
14101SOL    HW242989   7.796   1.539   5.915 -1.4522 -1.4097  0.5873
14102SOL     OW42990   0.683   5.910   7.479 -0.1801 -0.4202 -0.3416
14102SOL    HW142991   0.646   5.964   7.549 -0.7328 -0.3243 -0.6981
14102SOL    HW242992   0.614   5.847   7.459  0.0267 -0.5297 -0.7146
14103SOL     OW42993   6.221   7.424   2.184 -0.3172  0.1356  0.2178
14103SOL    HW142994   6.141   7.406   2.234 -0.1888 -2.3762 -0.3261
14103SOL    HW242995   6.195   7.493   2.122 -1.7948  0.0334  0.6688
14104SOL     OW42996   0.317   1.345   0.915 -0.3427 -0.3091  0.4358
14104SOL    HW142997   0.410   1.345   0.892 -0.6059 -0.4331 -0.6694
14104SOL    HW242998   0.316   1.363   1.009  0.8164 -0.7493  0.5479
14105SOL     OW42999   2.930   0.588   2.034 -0.3479  0.7182 -0.3059
14105SOL    HW143000   2.996   0.645   2.074 -2.1646  1.3836  1.9656
14105SOL    HW243001   2.967   0.565   1.949  1.8663  2.7184  0.0052
14106SOL     OW43002   6.939   0.081   7.266 -0.2822  0.2817  0.6422
14106SOL    HW143003   6.969   0.079   7.357 -1.0301 -0.9511  0.8812
14106SOL    HW243004   6.866   0.019   7.263 -1.6317  1.8121 -0.3343
14107SOL     OW43005   7.025   5.940   7.081  0.1796 -0.0172  0.2730
14107SOL    HW143006   7.108   5.986   7.090  0.9058 -1.1044 -0.6086
14107SOL    HW243007   6.971   5.973   7.153  1.3816  0.6710  0.8848
14108SOL     OW43008   1.193   5.865   4.926  0.0594 -0.3082  0.0970
14108SOL    HW143009   1.271   5.812   4.942 -0.9494 -2.0105 -0.3743
14108SOL    HW243010   1.178   5.912   5.008  2.8035  1.8289 -0.4866
14109SOL     OW43011   1.869   2.835   4.628 -0.0823  0.4415 -0.1556
14109SOL    HW143012   1.948   2.858   4.677  0.0222 -0.6819  0.2422
14109SOL    HW243013   1.807   2.807   4.696  0.4124 -2.1684 -0.6647
14110SOL     OW43014   6.476   3.032   6.060  0.1565 -0.5173 -0.1522
14110SOL    HW143015   6.395   2.992   6.028  0.3922  0.4641 -2.1958
14110SOL    HW243016   6.459   3.051   6.152 -2.7602  1.4879 -0.9566
14111SOL     OW43017   1.198   4.078   1.593  0.3666 -0.1034 -0.3706
14111SOL    HW143018   1.291   4.066   1.577 -0.0219 -0.8045 -2.4414
14111SOL    HW243019   1.187   4.173   1.604  1.7340 -0.2236  3.5068
14112SOL     OW43020   2.667   6.460   6.793  0.2864  0.2537 -0.4626
14112SOL    HW143021   2.572   6.468   6.806  0.0562 -1.1317 -1.1345
14112SOL    HW243022   2.700   6.429   6.877  0.3665  1.9792  0.2021
14113SOL     OW43023   2.715   3.661   6.442  0.2706 -0.5784 -0.1930
14113SOL    HW143024   2.802   3.678   6.477 -0.0077  0.1786  0.1352
14113SOL    HW243025   2.686   3.744   6.405  0.1245 -1.0913 -1.2880
14114SOL     OW43026   6.011   3.146   5.351 -0.7943 -0.1739  0.2090
14114SOL    HW143027   6.037   3.138   5.260  1.4756 -1.5402  0.9060
14114SOL    HW243028   6.023   3.238   5.372 -4.1208  0.8019 -1.5588
14115SOL     OW43029   5.670   1.551   7.626 -0.4612  0.8440 -0.1209
14115SOL    HW143030   5.658   1.479   7.688 -0.1308  0.3168 -0.6639
14115SOL    HW243031   5.764   1.551   7.607 -0.3589  1.7649  0.2782
14116SOL     OW43032   2.913   4.216   6.367  0.0696  0.2740 -0.6012
14116SOL    HW143033   2.912   4.236   6.461  1.8723 -0.3720 -0.3969
14116SOL    HW243034   2.976   4.277   6.330 -1.5806  1.4041 -1.6644
14117SOL     OW43035   2.651   0.625   1.571 -0.0692 -0.1330 -0.6471
14117SOL    HW143036   2.679   0.713   1.545  0.7618 -1.0076 -2.9917
14117SOL    HW243037   2.650   0.627   1.666  0.2207  2.3174 -0.6428
14118SOL     OW43038   0.392   2.332   7.018  0.3514  0.6340  0.0915
14118SOL    HW143039   0.348   2.249   7.001 -0.6332  1.1864 -0.1604
14118SOL    HW243040   0.482   2.308   7.037  0.5506 -0.3502 -1.8674
14119SOL     OW43041   3.741   1.526   4.030  0.9411  0.7486 -0.1000
14119SOL    HW143042   3.822   1.537   4.080 -0.0492  0.8948  1.5507
14119SOL    HW243043   3.672   1.534   4.095 -0.3397 -3.2244 -0.6898
14120SOL     OW43044   1.031   5.379   6.116 -0.2266 -0.5347  0.1741
14120SOL    HW143045   1.017   5.291   6.151 -0.3990 -0.2222  0.9180
14120SOL    HW243046   0.948   5.425   6.133  0.4390  0.2706  1.3465
14121SOL     OW43047   1.840   1.679   0.034 -0.4886  0.2192 -0.1118
14121SOL    HW143048   1.766   1.726   0.073 -1.0523  0.5695 -1.5238
14121SOL    HW243049   1.820   1.677  -0.060  0.2041 -1.6586 -0.2652
14122SOL     OW43050   4.705   1.099   0.719  0.2615 -0.2841  0.4555
14122SOL    HW143051   4.664   1.024   0.678 -0.8888 -0.3501  1.6920
14122SOL    HW243052   4.634   1.147   0.760  1.0873  1.0177  0.4435
14123SOL     OW43053   2.817   2.086   5.771 -0.3207  0.3413 -0.1848
14123SOL    HW143054   2.850   2.129   5.692  1.6169  1.3844  1.1060
14123SOL    HW243055   2.846   1.995   5.762 -0.8570  0.2439 -1.0447
14124SOL     OW43056   7.332   4.306   6.645  0.2818 -0.0408 -0.1531
14124SOL    HW143057   7.373   4.232   6.688  0.8984  0.0653 -0.5472
14124SOL    HW243058   7.239   4.298   6.667  0.5666 -0.0331  1.1194
14125SOL     OW43059   2.175   2.539   7.074  0.1754 -0.1076 -0.2078
14125SOL    HW143060   2.099   2.516   7.128 -0.8286  0.8198 -1.1607
14125SOL    HW243061   2.168   2.634   7.064  0.6461 -0.1989 -1.5060
14126SOL     OW43062   5.658   3.326   5.158 -0.0199 -0.2171  0.0575
14126SOL    HW143063   5.681   3.262   5.226  2.9094 -0.2652 -0.8303
14126SOL    HW243064   5.723   3.312   5.090 -0.2093  2.7143 -0.8417
14127SOL     OW43065   6.407   4.446   6.578 -0.2741 -0.2512  0.2545
14127SOL    HW143066   6.325   4.420   6.619 -0.7606  0.4636 -0.2399
14127SOL    HW243067   6.472   4.439   6.647 -0.6976 -1.0852  0.5810
14128SOL     OW43068   3.764   2.718   3.289  0.2744  0.6505  0.1191
14128SOL    HW143069   3.745   2.800   3.334  0.0133  0.4731  0.3436
14128SOL    HW243070   3.698   2.713   3.219  0.7801  1.0019 -0.3875
14129SOL     OW43071   2.221   3.900   2.140 -0.4043 -0.0800  0.2153
14129SOL    HW143072   2.240   3.981   2.187  0.3324  0.7753 -1.4796
14129SOL    HW243073   2.127   3.886   2.153 -0.3820  0.6202  1.1732
14130SOL     OW43074   0.357   4.229   5.364 -0.2418 -0.0126  0.4051
14130SOL    HW143075   0.328   4.267   5.282 -0.0490 -0.2712  0.2146
14130SOL    HW243076   0.431   4.173   5.340  0.6878  0.9397  0.9198
14131SOL     OW43077   7.400   0.222   6.617  0.1210 -0.3166  0.3089
14131SOL    HW143078   7.345   0.278   6.562 -0.0838 -0.8609 -0.0424
14131SOL    HW243079   7.428   0.280   6.688 -0.3578  0.1456  0.1315
14132SOL     OW43080   5.982   1.355   6.576 -0.2086  1.0105 -0.1899
14132SOL    HW143081   5.895   1.342   6.612 -0.0854  0.9536  0.0895
14132SOL    HW243082   6.041   1.321   6.643  0.0350  1.1977 -0.3086
14133SOL     OW43083   4.530   0.498   7.722  0.2286 -0.5918 -0.3679
14133SOL    HW143084   4.474   0.429   7.688 -2.2031  0.3458  1.4491
14133SOL    HW243085   4.470   0.567   7.749  2.4260  1.3594 -0.1320
14134SOL     OW43086   5.077   0.849   5.075  0.1290 -0.3564 -0.3452
14134SOL    HW143087   5.141   0.809   5.134  1.5022 -2.1615 -2.8559
14134SOL    HW243088   5.113   0.935   5.056 -0.4323  0.3351  1.4846
14135SOL     OW43089   7.421   6.032   3.364 -1.0170 -0.4742 -0.3894
14135SOL    HW143090   7.468   6.100   3.411 -0.3722  0.4502 -2.2847
14135SOL    HW243091   7.329   6.048   3.383 -0.9892  1.7627 -1.7519
14136SOL     OW43092   1.547   4.179   4.834 -0.1764 -0.2616 -0.5355
14136SOL    HW143093   1.552   4.108   4.898  0.3219  0.2578  0.0206
14136SOL    HW243094   1.454   4.185   4.812 -0.4338 -0.1477  0.5014
14137SOL     OW43095   7.696   4.493   4.649  0.0831  0.1154 -1.0926
14137SOL    HW143096   7.642   4.556   4.603  1.4021  1.9381 -0.2722
14137SOL    HW243097   7.633   4.436   4.694 -1.1668  1.9068 -0.4696
14138SOL     OW43098   4.380   7.213   0.924  0.1541  0.0733  0.5381
14138SOL    HW143099   4.435   7.258   0.989  1.0681  1.2294 -0.9700
14138SOL    HW243100   4.443   7.163   0.871 -0.6637 -1.5252  1.0092
14139SOL     OW43101   0.373   3.205   2.538  0.2233  1.1827  0.3775
14139SOL    HW143102   0.317   3.186   2.614  0.5217 -0.4010  0.2379
14139SOL    HW243103   0.461   3.180   2.566 -0.0314 -2.0038 -1.2895
14140SOL     OW43104   4.462   1.579   6.554 -0.5850 -0.0175 -0.0328
14140SOL    HW143105   4.462   1.666   6.514  1.7448 -0.3193 -0.7916
14140SOL    HW243106   4.374   1.544   6.536  0.0178  0.1991 -4.1817
14141SOL     OW43107   0.305   5.022   2.289 -0.6186 -0.5378  0.0744
14141SOL    HW143108   0.342   5.103   2.325 -0.0222 -0.9873  0.5037
14141SOL    HW243109   0.284   5.042   2.198  2.2548 -0.7160 -0.7270
14142SOL     OW43110   3.040   2.757   7.612  0.2195  0.3071 -0.2892
14142SOL    HW143111   3.040   2.662   7.608 -0.2377  0.2601  0.5698
14142SOL    HW243112   3.097   2.778   7.686  1.1835  0.7487 -1.1348
14143SOL     OW43113   6.440   1.770   4.466 -0.2955  0.1117 -0.1897
14143SOL    HW143114   6.441   1.688   4.514  0.9114  0.1630 -0.1063
14143SOL    HW243115   6.441   1.744   4.374 -0.8448  0.0358 -0.1798
14144SOL     OW43116   6.353   7.626   3.258 -0.2972  0.4268  0.5908
14144SOL    HW143117   6.289   7.682   3.301 -1.4609 -0.3403 -0.0900
14144SOL    HW243118   6.423   7.685   3.231 -2.7129  2.1486 -2.5588
14145SOL     OW43119   4.745   0.869   2.786 -0.0576 -0.1605  0.2064
14145SOL    HW143120   4.806   0.826   2.725  0.2014 -0.3209  0.5747
14145SOL    HW243121   4.778   0.846   2.873 -0.5693 -0.1389  0.4101
14146SOL     OW43122   1.425   0.212   2.845 -0.1301 -0.0577 -0.3652
14146SOL    HW143123   1.370   0.160   2.904  1.0607 -1.4035 -0.3671
14146SOL    HW243124   1.366   0.239   2.775 -1.1676  0.0322  0.5162
14147SOL     OW43125   3.838   2.547   4.440  0.3319  0.1123  0.3854
14147SOL    HW143126   3.918   2.598   4.453  0.0711  1.1826 -1.7705
14147SOL    HW243127   3.854   2.498   4.360 -0.4232 -1.2821  1.0501
14148SOL     OW43128   3.438   0.671   3.742  0.1601 -0.3132  0.2935
14148SOL    HW143129   3.445   0.766   3.748 -1.5845 -0.0699 -0.8165
14148SOL    HW243130   3.426   0.642   3.832  1.9267  0.3603  0.7895
14149SOL     OW43131   7.296   1.338   1.999 -0.0422 -0.6822  0.6353
14149SOL    HW143132   7.316   1.337   1.905 -0.7649 -0.6071  0.4702
14149SOL    HW243133   7.381   1.341   2.042  0.2795  1.4033 -0.0515
14150SOL     OW43134   0.938   0.362   1.583 -0.5757  0.2753 -0.2692
14150SOL    HW143135   0.914   0.327   1.497 -1.4579 -1.8705  0.7811
14150SOL    HW243136   0.936   0.287   1.641  3.0903  1.0091  1.1249
14151SOL     OW43137   6.414   0.020   1.907 -0.5168  0.0031  0.3615
14151SOL    HW143138   6.464  -0.061   1.901 -0.2130  0.2566 -1.0088
14151SOL    HW243139   6.418   0.046   1.999  1.0365 -0.5025  0.4465
14152SOL     OW43140   0.762   2.300   1.006  0.2110  0.3531 -0.2460
14152SOL    HW143141   0.730   2.227   0.952  0.4880  0.7026 -0.8816
14152SOL    HW243142   0.820   2.349   0.948 -0.8595  1.7361 -0.1796
14153SOL     OW43143   6.625   0.398   3.916 -0.3593 -0.2624  0.3451
14153SOL    HW143144   6.541   0.366   3.882 -0.2359 -0.6029  0.3592
14153SOL    HW243145   6.654   0.330   3.977  0.4755 -0.6763 -0.5021
14154SOL     OW43146   0.848   4.350   0.345 -0.3742  0.8005  0.5215
14154SOL    HW143147   0.863   4.287   0.274  2.2827  0.3512  1.3963
14154SOL    HW243148   0.913   4.418   0.331 -1.6494  2.1762  0.9860
14155SOL     OW43149   5.296   4.571   3.642 -0.4053 -0.0655 -0.8790
14155SOL    HW143150   5.216   4.623   3.640 -1.4567 -1.6271 -1.6169
14155SOL    HW243151   5.351   4.609   3.574 -0.1620  1.5101  0.1539
14156SOL     OW43152   6.620   4.207   1.368  0.1689  0.2968 -0.1004
14156SOL    HW143153   6.711   4.216   1.340 -0.3939  0.9778 -1.8565
14156SOL    HW243154   6.603   4.113   1.369  0.1955  0.2280 -2.2825
14157SOL     OW43155   2.692   3.686   5.316  0.4760 -0.2272  0.3259
14157SOL    HW143156   2.695   3.593   5.292  0.3725  0.0428 -0.7807
14157SOL    HW243157   2.638   3.688   5.395  0.5348 -1.1182  0.4022
14158SOL     OW43158   6.447   1.420   7.016 -0.3340  0.4608 -0.0177
14158SOL    HW143159   6.437   1.330   7.048 -0.7552  0.9098  1.1610
14158SOL    HW243160   6.515   1.458   7.071  0.2209  0.7194 -0.8669
14159SOL     OW43161   3.695   7.578   3.734 -0.1760  0.3853  0.1396
14159SOL    HW143162   3.620   7.525   3.760 -1.3264  1.3588 -1.0130
14159SOL    HW243163   3.742   7.525   3.670 -0.1203 -0.0636  0.5515
14160SOL     OW43164   4.632   1.983   5.306  0.1467 -0.0117 -0.4568
14160SOL    HW143165   4.592   1.923   5.243  1.2601  0.3168 -1.5004
14160SOL    HW243166   4.689   2.039   5.254 -0.7309  1.8733  0.5217
14161SOL     OW43167   6.285   6.457   6.576 -0.3093  0.0342 -0.3190
14161SOL    HW143168   6.235   6.432   6.653 -2.2097  0.2551 -1.4255
14161SOL    HW243169   6.287   6.553   6.579 -1.0675  0.0821 -0.9161
14162SOL     OW43170   0.269   6.457   4.874  0.0196  0.4039  0.2035
14162SOL    HW143171   0.276   6.432   4.782  0.9073  0.9873  0.0976
14162SOL    HW243172   0.334   6.404   4.919  0.2223  0.7650  0.3459
14163SOL     OW43173   1.262   0.115   0.432  0.3417  0.8645 -0.1802
14163SOL    HW143174   1.337   0.110   0.490  0.8830  0.3115 -0.9018
14163SOL    HW243175   1.291   0.073   0.351 -1.5978 -1.8988  0.4147
14164SOL     OW43176   5.817   0.419   0.323 -0.3398 -0.4729  0.0660
14164SOL    HW143177   5.818   0.364   0.245  0.6313  0.6705 -0.7479
14164SOL    HW243178   5.906   0.414   0.357 -0.3810  0.1664  0.2845
14165SOL     OW43179   7.401   6.718   4.496 -0.3736  0.1424  0.0475
14165SOL    HW143180   7.417   6.795   4.443 -0.0255 -0.1152 -0.2256
14165SOL    HW243181   7.455   6.731   4.575 -0.1692  0.0935 -0.0828
14166SOL     OW43182   6.918   2.868   5.548  0.1878 -0.2685  0.2779
14166SOL    HW143183   6.898   2.797   5.487 -0.0418 -0.2472  0.3282
14166SOL    HW243184   6.877   2.945   5.509  1.4328  0.0894 -0.3898
14167SOL     OW43185   0.623   5.968   3.097 -0.6107  0.4721 -0.2411
14167SOL    HW143186   0.619   6.014   3.181  1.4060 -0.2071  0.2953
14167SOL    HW243187   0.705   5.998   3.058  1.3980 -3.2675  0.6110
14168SOL     OW43188   1.020   5.954   5.979 -0.3278 -0.0019  0.0387
14168SOL    HW143189   1.079   6.030   5.974 -1.5192  0.9108 -0.6376
14168SOL    HW243190   1.079   5.878   5.972  0.9072  0.8344  0.9164
14169SOL     OW43191   2.209   1.206   1.842 -0.7604 -0.0367 -0.4751
14169SOL    HW143192   2.226   1.238   1.931  0.2646 -0.7651 -0.3985
14169SOL    HW243193   2.131   1.254   1.815 -2.1621 -1.0501  1.4627
14170SOL     OW43194   4.936   4.170   7.206 -0.0066  0.3294  0.6758
14170SOL    HW143195   4.958   4.142   7.295  1.7265  1.1248  0.5335
14170SOL    HW243196   4.845   4.144   7.195  0.3374 -1.6912  1.9352
14171SOL     OW43197   4.232   3.077   3.187 -0.2549  0.7473  0.2681
14171SOL    HW143198   4.160   3.100   3.246  0.1209  2.7336  0.0251
14171SOL    HW243199   4.231   3.145   3.120  0.6132 -0.3174 -0.8686
14172SOL     OW43200   2.578   4.090   1.530  0.1987 -0.4283 -0.3342
14172SOL    HW143201   2.549   4.169   1.576 -0.8215 -0.9791  0.0105
14172SOL    HW243202   2.499   4.060   1.484 -0.8045 -3.7323  3.0701
14173SOL     OW43203   3.920   3.455   3.324  0.4910 -0.6980 -0.0731
14173SOL    HW143204   3.927   3.549   3.339  0.0574 -0.4675 -1.2310
14173SOL    HW243205   3.905   3.446   3.230  0.4493 -1.9245  0.0269
14174SOL     OW43206   6.665   2.958   3.850 -0.1350  0.2236  0.0358
14174SOL    HW143207   6.570   2.963   3.864 -0.1064 -1.7522  1.4517
14174SOL    HW243208   6.696   2.904   3.922  1.9061 -0.2373 -1.1223
14175SOL     OW43209   5.686   3.649   6.826  0.2079 -0.0400 -0.3934
14175SOL    HW143210   5.777   3.639   6.797 -0.1317  0.0618 -1.5459
14175SOL    HW243211   5.653   3.559   6.830  0.3211 -0.0701 -0.0726
14176SOL     OW43212   5.057   5.315   1.928  0.5629  0.3613  0.3796
14176SOL    HW143213   5.007   5.234   1.935  1.0750 -0.1406 -1.2508
14176SOL    HW243214   5.046   5.342   1.837  0.9367  1.7790  0.7330
14177SOL     OW43215   7.065   4.868   6.672 -0.1024  0.4227  0.3704
14177SOL    HW143216   6.976   4.863   6.706  0.1157 -0.8894  0.8070
14177SOL    HW243217   7.058   4.834   6.583  0.0023  0.0585  0.4994
14178SOL     OW43218   1.087   4.292   6.347 -0.0768 -0.2274  0.1015
14178SOL    HW143219   1.069   4.378   6.383  0.5357 -0.5679  1.3032
14178SOL    HW243220   1.028   4.233   6.394 -1.4084 -0.3402 -1.6098
14179SOL     OW43221   4.058   6.611   6.354  0.2465  0.4557 -0.5141
14179SOL    HW143222   4.012   6.692   6.375 -0.8322 -0.3860  0.5087
14179SOL    HW243223   4.113   6.594   6.430  0.0656 -0.0271 -0.4822
14180SOL     OW43224   0.987   6.082   1.037 -0.1380  0.2166 -0.7830
14180SOL    HW143225   1.062   6.023   1.027 -1.0370 -0.9864 -0.6299
14180SOL    HW243226   0.954   6.094   0.948  0.7892  1.5507 -0.9876
14181SOL     OW43227   6.440   5.644   5.426  0.0525  0.1922 -0.4107
14181SOL    HW143228   6.525   5.645   5.383  0.6087 -2.1536  0.4805
14181SOL    HW243229   6.457   5.607   5.513 -1.6032  1.3978  0.4943
14182SOL     OW43230   4.376   4.979   4.309  0.1381 -0.1776 -0.2132
14182SOL    HW143231   4.312   4.957   4.377  0.0234 -1.2051 -0.6415
14182SOL    HW243232   4.425   4.898   4.294  1.8515  0.6923  0.4020
14183SOL     OW43233   0.399   7.309   7.233  0.0309  0.3373 -0.1876
14183SOL    HW143234   0.306   7.332   7.237 -0.2372 -0.3739 -1.6361
14183SOL    HW243235   0.441   7.384   7.191  0.3917  1.3193  1.8346
14184SOL     OW43236   7.224   2.406   1.403  0.1301  0.0443 -0.0447
14184SOL    HW143237   7.221   2.483   1.345  1.6857  1.7448  1.9516
14184SOL    HW243238   7.141   2.408   1.450  0.4162  0.9377  0.4546
14185SOL     OW43239   5.158   1.022   3.164  0.6621  0.8056 -0.5963
14185SOL    HW143240   5.076   1.013   3.115  0.5233  1.1885 -0.4371
14185SOL    HW243241   5.137   1.084   3.234  0.5781 -0.4935  0.5750
14186SOL     OW43242   3.964   2.479   3.639  0.2377  0.3335 -0.0780
14186SOL    HW143243   4.003   2.462   3.554 -0.8840 -1.0852 -0.3570
14186SOL    HW243244   3.949   2.573   3.640 -1.7465  0.1621 -2.4214
14187SOL     OW43245   2.777   6.857   6.013  0.0408 -0.1380  0.4756
14187SOL    HW143246   2.802   6.825   5.926  0.9087  0.9650  0.2988
14187SOL    HW243247   2.808   6.947   6.015 -2.8193  0.9364  0.7600
14188SOL     OW43248   0.698   4.663   0.013  0.0226 -0.2527  0.2088
14188SOL    HW143249   0.763   4.660   0.084  0.2822  1.0332  0.0495
14188SOL    HW243250   0.619   4.698   0.053  1.0216  3.4048 -0.6678
14189SOL     OW43251   5.827   6.679   1.719 -0.1171  0.0960 -0.2450
14189SOL    HW143252   5.785   6.701   1.803  1.9279 -0.3981  0.9825
14189SOL    HW243253   5.779   6.603   1.688 -0.0785 -0.5451  1.1828
14190SOL     OW43254   6.373   0.513   4.786  0.0185  0.2341  0.2876
14190SOL    HW143255   6.281   0.537   4.774 -0.2171 -1.2350 -1.2501
14190SOL    HW243256   6.376   0.419   4.766  2.0089  0.4455 -0.6844
14191SOL     OW43257   7.454   5.687   4.066  0.4499 -0.5635  0.0435
14191SOL    HW143258   7.434   5.628   3.995  0.0631 -0.0399 -0.2889
14191SOL    HW243259   7.512   5.753   4.027  1.5997 -1.1998  0.6177
14192SOL     OW43260   3.822   5.461   1.327 -0.1578  0.1275  0.6407
14192SOL    HW143261   3.891   5.439   1.264 -0.8420 -0.2192  0.0001
14192SOL    HW243262   3.805   5.554   1.312  2.9881  1.4240  3.5931
14193SOL     OW43263   4.411   1.997   4.264  0.0389 -0.1277 -0.2340
14193SOL    HW143264   4.336   2.055   4.249  0.0091  0.1968  1.0959
14193SOL    HW243265   4.378   1.909   4.247  0.0811  0.1981 -2.2696
14194SOL     OW43266   5.674   7.676   3.248  0.5142 -0.1338  0.0031
14194SOL    HW143267   5.633   7.757   3.278 -0.4524 -0.4212 -0.5034
14194SOL    HW243268   5.690   7.627   3.328  0.0593  0.0771  0.2266
14195SOL     OW43269   7.250   4.445   0.788 -0.1673 -0.2613 -0.0114
14195SOL    HW143270   7.204   4.453   0.704 -0.0885 -0.6414 -0.0935
14195SOL    HW243271   7.233   4.355   0.816  1.0332 -0.6184 -0.3532
14196SOL     OW43272   2.446   4.520   6.208 -0.0484  0.1819 -0.7396
14196SOL    HW143273   2.503   4.444   6.215  0.3954  0.5422 -0.2643
14196SOL    HW243274   2.397   4.521   6.291 -0.1418  0.3406 -0.7958
14197SOL     OW43275   3.041   1.109   6.240  0.1573  0.0785 -0.1301
14197SOL    HW143276   2.991   1.032   6.267  0.1801  0.0306 -0.2251
14197SOL    HW243277   2.987   1.183   6.268  0.9124  0.0631  1.4748
14198SOL     OW43278   1.400   2.306   1.807 -0.0403 -0.2156 -0.8956
14198SOL    HW143279   1.443   2.342   1.885 -0.9887 -0.2969 -0.3174
14198SOL    HW243280   1.354   2.381   1.769  0.7027 -0.0976 -1.5927
14199SOL     OW43281   6.654   1.018   1.427 -0.4232  0.1392 -0.3491
14199SOL    HW143282   6.675   0.935   1.383 -1.8933 -0.5563  0.2015
14199SOL    HW243283   6.737   1.066   1.428  0.4420 -1.2801 -0.7701
14200SOL     OW43284   1.041   0.008   3.717  0.2188  0.2949 -0.3218
14200SOL    HW143285   1.055  -0.018   3.626  1.8048 -0.3768  0.0900
14200SOL    HW243286   1.109   0.072   3.734  0.7259 -0.5101  0.7598
14201SOL     OW43287   1.921   4.698   5.632 -0.4248 -0.2199 -0.0275
14201SOL    HW143288   1.979   4.700   5.708 -1.4903 -0.0352  0.8061
14201SOL    HW243289   1.899   4.790   5.617 -0.6426 -0.3057 -0.2374
14202SOL     OW43290   0.912   0.987   1.801  0.0537  0.4838  0.6858
14202SOL    HW143291   0.878   0.959   1.886  1.5023  0.1782  1.1970
14202SOL    HW243292   0.966   1.064   1.822  0.9116  0.0385  0.1453
14203SOL     OW43293   3.811   2.509   4.132 -0.3879  0.2848  0.4621
14203SOL    HW143294   3.796   2.417   4.109 -0.8686 -0.0672  2.0635
14203SOL    HW243295   3.751   2.558   4.076 -0.9294 -0.4680  0.3678
14204SOL     OW43296   0.727   3.794   7.402 -1.2682  0.0386 -0.0687
14204SOL    HW143297   0.745   3.856   7.473  1.8246 -0.7041 -0.0851
14204SOL    HW243298   0.744   3.843   7.322  0.2158 -0.5061 -0.1088
14205SOL     OW43299   7.000   1.154   3.680  0.1158  0.0081 -0.7290
14205SOL    HW143300   6.954   1.073   3.704 -2.0741  1.5314  0.5554
14205SOL    HW243301   7.055   1.173   3.757  1.0389 -0.4886 -1.2455
14206SOL     OW43302   5.914   1.493   4.523 -0.6041  0.3091  0.5192
14206SOL    HW143303   5.949   1.424   4.579 -1.9632 -1.2493 -0.4424
14206SOL    HW243304   5.833   1.456   4.487 -0.9266  2.0798 -0.7253
14207SOL     OW43305   7.584   4.660   1.134  0.4104 -0.3471  0.2903
14207SOL    HW143306   7.542   4.587   1.089  1.1467 -0.5974 -0.0165
14207SOL    HW243307   7.637   4.617   1.202  0.5359 -0.0746  0.3632
14208SOL     OW43308   6.942   0.286   5.980  0.2952 -0.1772  0.3670
14208SOL    HW143309   6.900   0.314   5.899 -0.9492  0.0662  1.0739
14208SOL    HW243310   7.036   0.295   5.963  0.0427  0.0015 -0.9861
14209SOL     OW43311   6.333   3.760   2.980 -0.3083  0.5142  0.3205
14209SOL    HW143312   6.385   3.841   2.978  1.2609 -0.4335  0.6606
14209SOL    HW243313   6.351   3.723   3.066  0.2544 -0.9613 -0.3959
14210SOL     OW43314   4.499   2.098   2.770  0.2034  0.6942  0.4236
14210SOL    HW143315   4.503   2.167   2.703  2.5002  0.6429  0.4279
14210SOL    HW243316   4.547   2.025   2.732  1.3141  0.5691  2.0021
14211SOL     OW43317   1.907   5.463   6.033 -0.4921  0.0333 -0.3669
14211SOL    HW143318   1.873   5.516   5.961 -0.7038  2.0924  1.1373
14211SOL    HW243319   1.829   5.437   6.082 -0.4073 -1.9554 -1.2071
14212SOL     OW43320   0.270   4.222   5.058  0.1598 -0.0648  0.2001
14212SOL    HW143321   0.355   4.180   5.064  1.5733  2.4648 -0.5389
14212SOL    HW243322   0.227   4.179   4.983  2.1006  0.6499 -1.4253
14213SOL     OW43323   0.809   0.543   7.723 -0.1970  0.1840 -0.2530
14213SOL    HW143324   0.788   0.528   7.815 -1.0860  1.0944 -0.2884
14213SOL    HW243325   0.834   0.635   7.719  1.9538 -0.3618 -0.5809
14214SOL     OW43326   0.431   6.774   3.686 -0.3592  0.1006 -0.1357
14214SOL    HW143327   0.515   6.745   3.722  0.0942 -1.0083 -1.9141
14214SOL    HW243328   0.452   6.854   3.638 -0.7851  1.0717  1.2479
14215SOL     OW43329   5.434   7.219   3.777  0.4821 -0.2038  0.6733
14215SOL    HW143330   5.362   7.164   3.808 -1.5372  1.2154 -1.1591
14215SOL    HW243331   5.433   7.294   3.837  0.7582 -0.3900  0.9156
14216SOL     OW43332   2.829   3.064   2.573  0.1503  0.2608 -0.2069
14216SOL    HW143333   2.837   3.155   2.603 -1.0346  0.4473 -0.3808
14216SOL    HW243334   2.847   3.011   2.650 -1.4016  0.7074  0.4999
14217SOL     OW43335   6.173   3.134   7.694  0.0516  0.1711  0.3123
14217SOL    HW143336   6.140   3.166   7.778 -0.9787  0.4800 -0.1854
14217SOL    HW243337   6.268   3.132   7.704 -0.1156 -1.8004  2.1822
14218SOL     OW43338   1.084   6.426   2.780  0.2471 -0.6199  0.1316
14218SOL    HW143339   1.180   6.428   2.788  0.3169 -0.3370 -0.6838
14218SOL    HW243340   1.063   6.499   2.722 -0.3389 -1.5225 -0.8245
14219SOL     OW43341   5.506   5.950   7.537  0.0155 -0.3164 -0.2751
14219SOL    HW143342   5.457   6.029   7.563  0.9912 -0.1777  1.3045
14219SOL    HW243343   5.576   5.983   7.481 -0.4537 -0.2573 -0.8371
14220SOL     OW43344   5.384   3.693   5.187 -0.5476 -0.0655  0.0774
14220SOL    HW143345   5.383   3.645   5.104 -0.0231  0.0805 -0.0159
14220SOL    HW243346   5.308   3.750   5.183 -0.5397 -0.0813 -0.2924
14221SOL     OW43347   0.332   2.847   2.880 -0.6361  0.1147  0.2792
14221SOL    HW143348   0.255   2.883   2.837 -0.2333 -0.5983 -1.0774
14221SOL    HW243349   0.347   2.906   2.954 -0.9634  1.7735 -0.9166
14222SOL     OW43350   5.292   2.745   7.654  0.3206  0.3980 -0.6252
14222SOL    HW143351   5.345   2.670   7.678 -0.1032  0.3044  0.0381
14222SOL    HW243352   5.203   2.710   7.645 -0.5790  1.3427  3.0376
14223SOL     OW43353   6.183   3.148   3.513  0.3633 -0.2906  0.1809
14223SOL    HW143354   6.181   3.241   3.491 -1.2177  0.0392  1.5327
14223SOL    HW243355   6.121   3.139   3.585  1.7255 -2.1134  1.2059
14224SOL     OW43356   2.955   1.228   3.969 -0.3347  0.1842  0.1060
14224SOL    HW143357   2.996   1.255   4.052  0.2203  0.8197 -0.3674
14224SOL    HW243358   2.910   1.307   3.939  1.1332  0.5582 -1.1996
14225SOL     OW43359   5.772   7.692   5.968 -0.4508  0.4104 -0.0421
14225SOL    HW143360   5.822   7.755   5.916 -0.0548  0.0970 -0.0464
14225SOL    HW243361   5.687   7.735   5.983 -0.3985  0.6971 -0.5449
14226SOL     OW43362   1.531   4.460   6.567  0.3561  0.4641 -0.5792
14226SOL    HW143363   1.438   4.455   6.546  0.1255 -3.7774  0.4840
14226SOL    HW243364   1.535   4.453   6.662  1.7675  0.7504 -0.5848
14227SOL     OW43365   0.470   6.607   5.770  0.2083  1.3163  0.0435
14227SOL    HW143366   0.540   6.587   5.832  1.4353  2.0059 -1.0614
14227SOL    HW243367   0.516   6.630   5.689 -1.2802  2.4473 -0.5266
14228SOL     OW43368   5.552   3.268   7.347  0.4091 -0.2828 -0.1025
14228SOL    HW143369   5.516   3.200   7.289 -0.7801 -1.4470  1.9153
14228SOL    HW243370   5.516   3.349   7.312 -0.8789 -1.0220 -0.5845
14229SOL     OW43371   3.870   6.897   1.390 -0.2084 -0.2051  0.0908
14229SOL    HW143372   3.934   6.841   1.433  0.3750 -0.3561 -0.9409
14229SOL    HW243373   3.889   6.985   1.423  1.3741 -0.0469 -1.1129
14230SOL     OW43374   0.912   4.451   4.669 -0.1252 -0.6180  0.5571
14230SOL    HW143375   0.990   4.475   4.619 -0.8716  0.0757 -0.2979
14230SOL    HW243376   0.887   4.365   4.635 -0.2827 -0.4135  0.1443
14231SOL     OW43377   1.457   3.558   1.319  0.3857  0.1117  0.5083
14231SOL    HW143378   1.398   3.492   1.355 -0.4664  0.7522  0.3208
14231SOL    HW243379   1.436   3.560   1.226 -0.2248  1.2506  0.6523
14232SOL     OW43380   7.694   3.087   5.819 -0.2320  0.4904 -0.2416
14232SOL    HW143381   7.670   2.995   5.817 -0.7237  0.6235 -1.2328
14232SOL    HW243382   7.785   3.090   5.791 -0.5547  0.3949 -1.3287
14233SOL     OW43383   5.880   7.363   1.291 -0.3372 -0.5570 -0.3227
14233SOL    HW143384   5.913   7.445   1.327  0.1318 -1.0473  0.3807
14233SOL    HW243385   5.851   7.386   1.203  2.6613 -0.2605 -1.3282
14234SOL     OW43386   3.010   3.908   7.618 -0.1696 -0.2503 -0.3781
14234SOL    HW143387   2.941   3.934   7.556 -1.1016 -0.3963  0.5649
14234SOL    HW243388   2.967   3.847   7.678  0.5591  0.2989  0.7460
14235SOL     OW43389   2.772   0.933   4.250 -0.0561 -0.8120 -0.4165
14235SOL    HW143390   2.762   1.014   4.299 -1.0880 -1.9537  1.3753
14235SOL    HW243391   2.864   0.908   4.262  0.5691  0.5933 -1.9065
14236SOL     OW43392   1.543   2.580   6.704  0.2729  0.2781 -0.1320
14236SOL    HW143393   1.606   2.519   6.665 -0.2113 -0.0840 -0.3467
14236SOL    HW243394   1.462   2.567   6.655 -0.3473 -0.1755  0.9746
14237SOL     OW43395   6.479   1.722   6.944 -0.0707 -0.7050 -0.5453
14237SOL    HW143396   6.417   1.649   6.939 -0.0940 -0.6253 -1.8439
14237SOL    HW243397   6.428   1.793   6.983 -0.8935 -0.5774 -1.7903
14238SOL     OW43398   7.640   4.197   5.374 -0.2178  0.2358  0.3136
14238SOL    HW143399   7.558   4.245   5.363 -1.0081 -1.4767 -1.9882
14238SOL    HW243400   7.694   4.224   5.300 -0.1318 -1.3174 -0.2109
14239SOL     OW43401   0.822   2.564   2.981  0.0189  0.7836  0.8578
14239SOL    HW143402   0.792   2.507   3.052 -0.0755 -1.1670 -0.6695
14239SOL    HW243403   0.897   2.517   2.943 -0.3216  1.4583 -0.7191
14240SOL     OW43404   2.488   0.557   2.554  0.3314 -0.4036 -0.2518
14240SOL    HW143405   2.458   0.565   2.463 -0.0918 -0.3152 -0.1057
14240SOL    HW243406   2.468   0.466   2.577 -0.5762 -0.1226  0.1076
14241SOL     OW43407   7.157   5.571   7.135  0.3910 -0.3183 -0.1242
14241SOL    HW143408   7.114   5.499   7.182 -0.6609 -0.2368 -0.9145
14241SOL    HW243409   7.236   5.533   7.098 -1.3718 -1.7681 -2.6018
14242SOL     OW43410   6.499   3.426   0.281  0.2436 -0.0638 -0.8184
14242SOL    HW143411   6.413   3.449   0.315  1.1097  1.6763  0.3657
14242SOL    HW243412   6.508   3.479   0.201  0.2468 -0.2002 -0.9094
14243SOL     OW43413   5.572   1.354   5.945  0.0920  0.0219  0.0877
14243SOL    HW143414   5.543   1.327   5.858  1.2266 -0.1254 -0.2602
14243SOL    HW243415   5.506   1.418   5.973 -0.1086  0.3253 -1.0167
14244SOL     OW43416   3.148   7.335   7.010 -0.2430  0.3982 -0.2536
14244SOL    HW143417   3.153   7.252   7.057 -1.4580  0.3756 -0.1185
14244SOL    HW243418   3.221   7.333   6.948  1.1242  0.2294  1.2966
14245SOL     OW43419   3.644   4.305   3.271 -0.4005  0.3735 -0.6641
14245SOL    HW143420   3.675   4.226   3.226  1.0487  0.0758  0.8044
14245SOL    HW243421   3.704   4.374   3.244 -0.3336  0.4919 -0.2104
14246SOL     OW43422   3.913   6.185   6.099  0.0707 -0.3095  0.5873
14246SOL    HW143423   3.924   6.160   6.007 -0.6216 -0.2382  0.4733
14246SOL    HW243424   3.997   6.167   6.140  1.4937  2.7029 -0.7485
14247SOL     OW43425   7.351   3.586   1.339 -0.1901  0.9808 -0.2206
14247SOL    HW143426   7.324   3.613   1.426  0.4054 -0.5752  0.4843
14247SOL    HW243427   7.379   3.667   1.296 -2.5552  2.1167  0.2218
14248SOL     OW43428   2.907   2.324   7.203  0.4350  0.4913  0.5204
14248SOL    HW143429   2.934   2.342   7.293 -2.4084  1.8529  1.2487
14248SOL    HW243430   2.849   2.248   7.210 -0.3213  0.9980 -0.0150
14249SOL     OW43431   6.703   5.638   3.413  0.1198 -0.3291  0.7851
14249SOL    HW143432   6.713   5.547   3.440  0.3756 -0.7591 -0.6522
14249SOL    HW243433   6.744   5.689   3.483 -1.0315 -1.2285  2.1679
14250SOL     OW43434   1.426   3.818   7.645  0.1257  0.1320  0.2446
14250SOL    HW143435   1.485   3.766   7.590  1.1462 -0.4250  1.8174
14250SOL    HW243436   1.370   3.754   7.688  0.5849  0.4248  1.2838
14251SOL     OW43437   3.971   0.716   7.744 -0.4168 -0.5880 -0.7969
14251SOL    HW143438   3.971   0.800   7.791  0.0284 -0.6315 -0.7154
14251SOL    HW243439   3.957   0.651   7.812 -1.2346 -0.5503 -0.9222
14252SOL     OW43440   3.617   3.032   7.730 -0.3648 -0.5972  0.3996
14252SOL    HW143441   3.592   3.121   7.754 -0.0696 -0.3888 -0.0504
14252SOL    HW243442   3.712   3.037   7.719 -0.6472 -0.1075 -3.0422
14253SOL     OW43443   1.852   4.390   2.305 -0.1631  0.3497 -0.4703
14253SOL    HW143444   1.796   4.405   2.229 -0.5926  3.4286  0.3139
14253SOL    HW243445   1.904   4.470   2.313 -0.5356  0.4083  2.7420
14254SOL     OW43446   4.298   7.064   7.704  0.1899  0.1149  0.0086
14254SOL    HW143447   4.307   7.029   7.616  1.3570 -2.1265  0.9174
14254SOL    HW243448   4.248   6.997   7.751 -0.9238  1.5373  0.9388
14255SOL     OW43449   2.813   6.787   0.578  0.1750 -0.4563 -0.1833
14255SOL    HW143450   2.836   6.697   0.602  1.7379 -0.0167  0.0799
14255SOL    HW243451   2.785   6.828   0.660  1.4757 -0.1327  0.1142
14256SOL     OW43452   0.636   2.930   7.585 -0.2162  0.2605 -0.6421
14256SOL    HW143453   0.700   2.919   7.655  0.5137 -1.2669 -1.5064
14256SOL    HW243454   0.622   2.842   7.550 -2.7237  0.5508 -0.5861
14257SOL     OW43455   5.639   3.017   3.495 -0.9112 -0.9770 -0.3761
14257SOL    HW143456   5.599   3.101   3.474 -1.6726 -1.6446 -1.7161
14257SOL    HW243457   5.633   3.010   3.590 -1.3621  0.2128 -0.3040
14258SOL     OW43458   0.672   2.163   5.379 -0.8533  0.4685  0.0401
14258SOL    HW143459   0.637   2.234   5.325 -0.4627 -0.0874 -0.9641
14258SOL    HW243460   0.596   2.128   5.425 -1.2627  0.7124 -0.4377
14259SOL     OW43461   2.588   2.722   7.054  0.1520 -0.6856  0.4241
14259SOL    HW143462   2.496   2.740   7.035  0.1461 -1.2261 -0.0829
14259SOL    HW243463   2.636   2.795   7.014  0.0690 -1.3202 -0.8878
14260SOL     OW43464   5.790   0.986   6.707 -0.2902  0.0010 -0.2320
14260SOL    HW143465   5.878   0.986   6.744  0.0499  2.5893 -0.8478
14260SOL    HW243466   5.803   0.958   6.616 -0.2391 -0.5190 -0.0650
14261SOL     OW43467   6.901   3.746   0.626  0.5560  0.4038  0.1322
14261SOL    HW143468   6.971   3.691   0.660 -1.3798 -2.0399  0.4093
14261SOL    HW243469   6.868   3.699   0.550 -0.6997  1.5791 -0.0886
14262SOL     OW43470   5.240   1.359   5.612 -0.1654 -0.6285  0.3471
14262SOL    HW143471   5.175   1.417   5.572 -0.3701  0.0736  1.6258
14262SOL    HW243472   5.323   1.405   5.602 -0.2869 -0.2131  1.1091
14263SOL     OW43473   3.646   5.389   1.560  0.1007  0.3588  0.0443
14263SOL    HW143474   3.634   5.471   1.513  0.6101 -0.2782 -1.2467
14263SOL    HW243475   3.733   5.395   1.600  0.0391  0.5417  0.1485
14264SOL     OW43476   3.051   7.767   2.895  0.5228  0.9600 -0.1873
14264SOL    HW143477   3.106   7.713   2.952  1.1548  0.6167 -1.0876
14264SOL    HW243478   2.975   7.789   2.948  1.6704  1.7061  1.1904
14265SOL     OW43479   6.515   5.513   1.882  0.4643 -0.1431 -0.6655
14265SOL    HW143480   6.433   5.561   1.893  0.2316 -0.4475 -1.0888
14265SOL    HW243481   6.567   5.537   1.959  0.2392  0.5719 -0.7291
14266SOL     OW43482   4.208   6.978   7.000  0.5209  0.4006 -0.0056
14266SOL    HW143483   4.133   6.928   7.032  1.8552 -0.9249  1.2056
14266SOL    HW243484   4.283   6.942   7.047  1.6821  3.0887  0.4036
14267SOL     OW43485   1.935   1.367   4.191 -0.6840  0.3250  0.4672
14267SOL    HW143486   1.877   1.306   4.236  1.2233 -1.2905  0.8751
14267SOL    HW243487   1.877   1.435   4.157 -2.8859 -1.5639  0.2220
14268SOL     OW43488   0.414   4.539   0.871  0.4639 -0.2251  0.4474
14268SOL    HW143489   0.401   4.627   0.837  0.0670 -0.0542  1.0240
14268SOL    HW243490   0.343   4.527   0.934  1.1965 -0.5204  1.2303
14269SOL     OW43491   3.865   4.399   2.837 -0.5650 -0.2965 -0.2180
14269SOL    HW143492   3.805   4.367   2.769  0.1759 -0.7886 -0.6475
14269SOL    HW243493   3.944   4.347   2.826 -0.2809 -0.0946  0.7621
14270SOL     OW43494   6.269   0.691   7.265 -0.1967  0.1238 -0.2504
14270SOL    HW143495   6.308   0.630   7.327  1.5150  2.1464  0.7597
14270SOL    HW243496   6.315   0.674   7.183  1.3535  1.0201  0.3989
14271SOL     OW43497   4.263   4.270   7.607  0.4295  0.1090 -0.1423
14271SOL    HW143498   4.237   4.331   7.537  0.3647 -0.5661 -0.7173
14271SOL    HW243499   4.192   4.205   7.609  0.6620 -0.1333  0.2372
14272SOL     OW43500   0.187   5.820   4.521 -0.2820 -0.1130 -0.2544
14272SOL    HW143501   0.249   5.889   4.543  0.4137 -0.3695 -1.3985
14272SOL    HW243502   0.162   5.782   4.606  2.0369 -0.8117  0.1733
14273SOL     OW43503   2.995   0.254   4.011 -0.4435 -0.1483  0.1888
14273SOL    HW143504   3.082   0.248   3.970  0.0027  1.6221  0.7767
14273SOL    HW243505   3.001   0.196   4.087  0.3577  0.1744  0.3919
14274SOL     OW43506   3.610   4.141   7.481 -0.5063 -0.5284  0.0370
14274SOL    HW143507   3.583   4.100   7.564  0.5673 -1.6514 -0.1308
14274SOL    HW243508   3.621   4.233   7.502  0.9191 -0.9775  1.4784
14275SOL     OW43509   2.179   0.745   0.123 -0.4305 -0.0168  0.0849
14275SOL    HW143510   2.271   0.735   0.145 -0.0078  0.7069 -1.2271
14275SOL    HW243511   2.147   0.813   0.183 -0.4193 -1.0321  1.2850
14276SOL     OW43512   2.605   6.876   2.383 -0.4540 -0.8532 -0.2964
14276SOL    HW143513   2.593   6.819   2.306  0.3037 -1.6857  0.1821
14276SOL    HW243514   2.551   6.952   2.365  2.0105  0.4243 -3.0737
14277SOL     OW43515   0.215   7.307   3.000 -0.2514 -1.0256 -0.6180
14277SOL    HW143516   0.216   7.367   3.074  1.4256 -1.1314 -0.5247
14277SOL    HW243517   0.266   7.352   2.932 -0.0867 -1.7839 -1.0078
14278SOL     OW43518   6.795   3.730   2.177  0.3946  0.0662  0.2574
14278SOL    HW143519   6.721   3.673   2.157 -0.2251  0.3584  1.5635
14278SOL    HW243520   6.870   3.672   2.179  0.1408 -0.3087 -0.6877
14279SOL     OW43521   3.360   0.884   6.348  0.2287 -0.7857 -0.4239
14279SOL    HW143522   3.285   0.830   6.374 -1.1119  1.3588  0.5183
14279SOL    HW243523   3.341   0.970   6.386  3.8058 -0.4363  0.9209
14280SOL     OW43524   2.407   3.854   0.842  0.2572  0.1748  0.8494
14280SOL    HW143525   2.406   3.863   0.938  1.3386  0.3926  0.8450
14280SOL    HW243526   2.494   3.882   0.816  0.2206 -0.5975 -0.1458
14281SOL     OW43527   5.533   1.456   3.619 -0.0962  0.0194  0.3165
14281SOL    HW143528   5.494   1.541   3.600 -0.9823 -0.4030  0.1563
14281SOL    HW243529   5.626   1.474   3.633 -0.2023  0.9517 -0.1114
14282SOL     OW43530   6.364   6.867   5.940 -0.2198 -0.4859  0.0564
14282SOL    HW143531   6.365   6.928   6.014  1.9265 -1.2346  0.7103
14282SOL    HW243532   6.444   6.888   5.891 -1.7456  0.2309 -2.3070
14283SOL     OW43533   4.931   5.262   4.241  0.6366  0.7058 -0.1631
14283SOL    HW143534   4.888   5.309   4.313  1.0907  0.0887  0.5262
14283SOL    HW243535   5.020   5.298   4.239  0.2173  1.7358 -1.3646
14284SOL     OW43536   6.303   3.738   7.625  0.2949 -0.1001  0.2642
14284SOL    HW143537   6.304   3.657   7.574 -0.6838  0.1851 -0.2267
14284SOL    HW243538   6.309   3.807   7.559  0.2061  0.2524  0.6214
14285SOL     OW43539   3.964   0.417   5.837 -0.0185  0.4114 -0.0939
14285SOL    HW143540   3.972   0.341   5.780  1.6632 -1.5214  2.5143
14285SOL    HW243541   3.893   0.469   5.798 -0.5390 -1.9278 -2.5394
14286SOL     OW43542   0.336   3.134   1.994 -0.3429  0.0275  0.1401
14286SOL    HW143543   0.327   3.099   1.905 -1.6777  1.7087 -0.4270
14286SOL    HW243544   0.247   3.156   2.021  0.2290  1.1265  1.2284
14287SOL     OW43545   5.639   3.116   5.352  0.3982  0.3235  0.3868
14287SOL    HW143546   5.676   3.094   5.438  1.0582 -0.4585 -0.0904
14287SOL    HW243547   5.550   3.082   5.355  0.5330 -0.0076  0.6366
14288SOL     OW43548   5.440   0.443   6.043  0.4772 -0.2345  0.0891
14288SOL    HW143549   5.381   0.486   6.105 -0.9556 -1.1142 -0.6206
14288SOL    HW243550   5.454   0.509   5.974  0.2043 -0.0723  0.1849
14289SOL     OW43551   1.895   4.842   1.229  0.1013 -0.3404 -0.2107
14289SOL    HW143552   1.991   4.834   1.229  0.2494 -0.1053  3.1669
14289SOL    HW243553   1.868   4.795   1.308 -2.5762 -0.0902 -0.8963
14290SOL     OW43554   1.668   1.306   4.443 -0.0166 -0.4324  0.3208
14290SOL    HW143555   1.665   1.265   4.357  0.5999 -2.0757  1.0360
14290SOL    HW243556   1.607   1.379   4.437  2.2728  1.4867 -2.4589
14291SOL     OW43557   5.495   2.690   4.857 -0.4743 -0.3799 -0.2069
14291SOL    HW143558   5.590   2.682   4.870 -0.6351  0.3183  1.5789
14291SOL    HW243559   5.486   2.708   4.763  1.2594  0.9949 -0.1668
14292SOL     OW43560   1.156   2.885   5.908 -0.9668  0.3640 -0.1347
14292SOL    HW143561   1.176   2.946   5.837  1.1183 -1.4209 -1.1677
14292SOL    HW243562   1.115   2.810   5.865 -0.6746 -0.2936  0.7014
14293SOL     OW43563   3.896   7.293   6.701 -0.6568  0.0066  0.6945
14293SOL    HW143564   3.917   7.378   6.741 -0.3341 -0.0739  0.7048
14293SOL    HW243565   3.822   7.311   6.644 -0.2128  0.4274  0.2332
14294SOL     OW43566   2.493   4.988   7.459 -0.3790  0.6686 -0.4002
14294SOL    HW143567   2.528   5.049   7.394  1.1563 -0.1302 -0.3753
14294SOL    HW243568   2.478   4.907   7.409 -1.1732  0.6660 -0.1702
14295SOL     OW43569   4.691   5.882   2.282  0.1457  0.7123  0.6064
14295SOL    HW143570   4.659   5.893   2.371 -1.7511 -0.5450  0.1447
14295SOL    HW243571   4.622   5.833   2.237  1.5788  0.2282 -1.2308
14296SOL     OW43572   3.074   0.029   5.500 -0.0139 -0.4555 -0.3372
14296SOL    HW143573   3.077   0.019   5.405  0.3480  2.7272 -0.7524
14296SOL    HW243574   3.152  -0.018   5.531  0.8954  0.0256 -1.8066
14297SOL     OW43575   4.912   5.103   1.824 -0.3882  0.0985 -0.9052
14297SOL    HW143576   4.952   5.146   1.749  2.7144 -0.3831  0.3086
14297SOL    HW243577   4.849   5.042   1.786  0.4873  0.4440 -3.0703
14298SOL     OW43578   6.790   7.554   5.718 -0.3712  0.0507 -0.2693
14298SOL    HW143579   6.739   7.515   5.647 -1.2493  1.6722 -0.5651
14298SOL    HW243580   6.742   7.633   5.742 -0.4784 -0.7686  2.5955
14299SOL     OW43581   1.669   2.101   4.612 -0.0125 -0.3542  0.2241
14299SOL    HW143582   1.683   2.133   4.701  1.1663 -0.8815  0.2389
14299SOL    HW243583   1.638   2.011   4.623 -2.6023  0.4439  0.1573
14300SOL     OW43584   6.231   6.358   2.827  0.3960 -0.6373 -0.4611
14300SOL    HW143585   6.176   6.412   2.769  2.0838  1.4456 -0.2288
14300SOL    HW243586   6.181   6.351   2.908 -0.4662 -0.6595 -0.9791
14301SOL     OW43587   3.098   6.349   0.087  0.2764 -0.0751 -0.1877
14301SOL    HW143588   3.072   6.401   0.011 -0.1388 -1.3678 -0.9456
14301SOL    HW243589   3.103   6.413   0.158 -0.6508  0.9372 -0.9905
14302SOL     OW43590   6.740   0.447   4.460  0.0337  0.2741  0.2547
14302SOL    HW143591   6.810   0.412   4.405 -0.1980  1.6865 -0.9843
14302SOL    HW243592   6.737   0.387   4.535  2.3264 -0.0236  0.1875
14303SOL     OW43593   4.964   4.624   4.229 -0.3418  0.5659  0.0649
14303SOL    HW143594   5.012   4.605   4.149 -0.9717  1.3684 -0.5342
14303SOL    HW243595   5.030   4.656   4.290  0.8251 -3.6213  1.2594
14304SOL     OW43596   3.785   0.606   7.125  0.5549 -0.6737 -0.0762
14304SOL    HW143597   3.807   0.516   7.101  1.5103 -0.6368  0.6005
14304SOL    HW243598   3.857   0.658   7.091 -0.2570 -0.0878 -0.9222
14305SOL     OW43599   7.662   3.909   1.241  0.6554  0.2647 -0.0128
14305SOL    HW143600   7.634   3.883   1.328 -0.3381  0.4234 -0.2754
14305SOL    HW243601   7.757   3.915   1.247  0.8137 -1.8768  0.4665
14306SOL     OW43602   6.947   7.097   7.402 -0.3479  0.3269  0.0238
14306SOL    HW143603   6.870   7.059   7.444 -0.8359  1.4396  0.1747
14306SOL    HW243604   6.961   7.042   7.325 -0.3766 -0.7921  0.8029
14307SOL     OW43605   2.796   2.590   0.189  0.8087  0.2508 -0.2756
14307SOL    HW143606   2.799   2.686   0.189 -0.3913  0.3329  1.4779
14307SOL    HW243607   2.708   2.568   0.158  1.2728 -0.3359 -1.2427
14308SOL     OW43608   2.219   2.345   4.800 -0.2914  0.0586  0.1819
14308SOL    HW143609   2.208   2.250   4.796  0.9640 -0.1319  0.8322
14308SOL    HW243610   2.233   2.371   4.709  0.4494 -0.5401  0.1155
14309SOL     OW43611   2.976   1.595   1.305 -0.1401 -0.1642  0.1231
14309SOL    HW143612   2.900   1.619   1.358  1.0871  1.6745  1.1875
14309SOL    HW243613   3.032   1.545   1.365 -0.3508 -1.2837 -0.5768
14310SOL     OW43614   1.302   0.079   3.060  0.2480  0.2957 -0.3934
14310SOL    HW143615   1.362   0.039   3.124 -0.3604  1.1756  0.7578
14310SOL    HW243616   1.252   0.142   3.110 -0.1503  1.1359 -1.7971
14311SOL     OW43617   4.752   7.231   1.213 -0.4201  0.4610  0.3330
14311SOL    HW143618   4.782   7.206   1.126 -1.1291  2.5866 -0.5841
14311SOL    HW243619   4.801   7.311   1.233 -1.3239  0.7957  1.2600
14312SOL     OW43620   1.484   4.035   0.556 -0.5238  0.4569 -0.5245
14312SOL    HW143621   1.580   4.034   0.553 -0.4576 -1.4988  0.4620
14312SOL    HW243622   1.461   4.128   0.560  1.2974  0.9818 -1.2569
14313SOL     OW43623   0.629   6.579   5.505  0.2354 -0.4688  0.0357
14313SOL    HW143624   0.685   6.502   5.506 -0.0076 -0.6373  0.7713
14313SOL    HW243625   0.687   6.651   5.531  0.9135 -0.0672 -2.3493
14314SOL     OW43626   0.886   3.450   2.984 -0.3891  0.1692 -0.0409
14314SOL    HW143627   0.947   3.376   2.988 -0.9139 -0.2759 -0.2144
14314SOL    HW243628   0.852   3.447   2.895 -0.7938  0.3125  0.1093
14315SOL     OW43629   1.090   0.342   6.173  0.2434  0.2800  0.0039
14315SOL    HW143630   1.011   0.371   6.219  0.7455  0.4468  0.8036
14315SOL    HW243631   1.158   0.346   6.241  0.8822 -0.0829 -0.6138
14316SOL     OW43632   3.648   3.800   0.056 -0.6601  0.2021  0.2947
14316SOL    HW143633   3.572   3.743   0.064  0.0874 -0.7300  0.9281
14316SOL    HW243634   3.635   3.845  -0.027 -3.1228  1.8802  1.4471
14317SOL     OW43635   5.312   5.730   5.925 -0.1951  0.0633  0.1731
14317SOL    HW143636   5.383   5.792   5.911  0.4930 -0.2572  1.9816
14317SOL    HW243637   5.242   5.760   5.867  1.4056  0.3453 -1.6969
14318SOL     OW43638   1.357   6.111   0.204 -0.0847 -0.4731 -0.0092
14318SOL    HW143639   1.383   6.111   0.112 -0.1004 -0.2312 -0.0125
14318SOL    HW243640   1.438   6.092   0.251  0.3494  1.3316  0.0497
14319SOL     OW43641   1.358   2.867   5.628 -0.4111  1.0126  0.1003
14319SOL    HW143642   1.397   2.867   5.540 -0.4108 -0.1372  0.0963
14319SOL    HW243643   1.301   2.944   5.628 -0.0468  1.3025 -0.7385
14320SOL     OW43644   2.406   6.348   2.027 -0.7723 -0.3838  0.1409
14320SOL    HW143645   2.455   6.303   2.096 -1.1417  1.0421  1.3802
14320SOL    HW243646   2.410   6.440   2.051  0.2656  0.3542 -2.5193
14321SOL     OW43647   2.082   3.846   2.654 -0.0461 -0.1973 -0.3207
14321SOL    HW143648   2.067   3.751   2.658  0.5865 -0.2743  1.9007
14321SOL    HW243649   2.049   3.872   2.568  0.4431 -2.5366 -1.3153
14322SOL     OW43650   6.341   7.643   1.123  0.0836  0.1502 -0.2431
14322SOL    HW143651   6.351   7.724   1.172  0.4166 -0.8719  1.4730
14322SOL    HW243652   6.298   7.669   1.042 -0.4360  1.9301  0.5569
14323SOL     OW43653   0.136   3.192   4.925  0.1889 -0.1324  0.4175
14323SOL    HW143654   0.063   3.221   4.980 -0.3103  2.1979 -1.3125
14323SOL    HW243655   0.187   3.134   4.982 -2.0346 -0.4619  2.2359
14324SOL     OW43656   4.391   6.243   6.839 -0.2914  0.4466  0.3108
14324SOL    HW143657   4.310   6.201   6.867  0.3545  0.2258  1.9524
14324SOL    HW243658   4.445   6.172   6.804 -1.5105  0.8673 -2.7586
14325SOL     OW43659   1.104   3.106   3.263  0.2104 -0.0600  0.1042
14325SOL    HW143660   1.136   3.115   3.353 -0.1725 -0.3587  0.2721
14325SOL    HW243661   1.133   3.019   3.236  0.8258  0.2543 -0.2698
14326SOL     OW43662   4.863   1.744   5.256 -0.4382  0.1728  0.3212
14326SOL    HW143663   4.791   1.736   5.319 -1.3180  1.0022 -0.5475
14326SOL    HW243664   4.881   1.654   5.228 -0.5460 -0.1266  1.1734
14327SOL     OW43665   4.141   5.167   0.257 -0.1823 -0.1574 -0.0270
14327SOL    HW143666   4.194   5.239   0.223 -1.5920  1.0126  0.1427
14327SOL    HW243667   4.178   5.088   0.217 -0.5799  0.9656 -2.7592
14328SOL     OW43668   3.680   4.209   6.684  0.3518 -0.2183  0.1246
14328SOL    HW143669   3.740   4.271   6.725 -1.5619  1.2221  0.9203
14328SOL    HW243670   3.684   4.131   6.738 -1.0703  1.1432  2.3981
14329SOL     OW43671   1.104   1.393   1.420  0.0296  0.3165  0.1262
14329SOL    HW143672   1.121   1.443   1.500 -4.8742  0.5613  1.3454
14329SOL    HW243673   1.100   1.301   1.449  3.3583 -0.3215 -1.0221
14330SOL     OW43674   4.040   1.030   7.402  0.1141 -0.4407  0.7184
14330SOL    HW143675   4.128   1.003   7.374  1.3154  3.3902  0.2355
14330SOL    HW243676   4.023   1.110   7.353 -3.5340 -0.8025  1.1365
14331SOL     OW43677   7.421   2.854   0.315  0.2203 -0.4282 -0.1426
14331SOL    HW143678   7.437   2.921   0.381 -1.2499 -0.0724 -0.1151
14331SOL    HW243679   7.504   2.845   0.269  1.3870 -0.9153  1.9429
14332SOL     OW43680   3.390   1.656   3.413  0.2949 -0.4001 -0.3010
14332SOL    HW143681   3.355   1.687   3.496 -0.4246  1.1945 -1.1363
14332SOL    HW243682   3.485   1.670   3.420  0.0378  1.9645 -0.5340
14333SOL     OW43683   7.154   2.701   4.205 -0.2103  0.3743  0.0832
14333SOL    HW143684   7.128   2.778   4.154  0.6591  0.0314 -0.9065
14333SOL    HW243685   7.247   2.714   4.222  0.6235 -1.6269 -2.3325
14334SOL     OW43686   5.288   1.322   2.770  0.1117  0.6472 -0.2882
14334SOL    HW143687   5.197   1.304   2.795 -0.1276 -0.2663 -1.6520
14334SOL    HW243688   5.338   1.312   2.850 -0.9488  0.7573  0.4063
14335SOL     OW43689   0.959   7.377   0.849 -0.2273  0.1100  0.0800
14335SOL    HW143690   0.896   7.365   0.778  1.2015  0.0227 -1.2259
14335SOL    HW243691   0.959   7.294   0.897 -1.9854  0.5342  0.8806
14336SOL     OW43692   1.552   4.418   6.855 -0.1738 -0.8700  0.4340
14336SOL    HW143693   1.501   4.450   6.930  0.4290 -1.7081  1.2351
14336SOL    HW243694   1.546   4.322   6.862 -0.6929 -0.9639 -1.0121
14337SOL     OW43695   6.089   4.362   3.924 -0.0479 -0.4272  0.0851
14337SOL    HW143696   6.144   4.409   3.862  0.3554 -1.7497 -0.5807
14337SOL    HW243697   6.020   4.425   3.947  0.7174  0.6253 -0.4454
14338SOL     OW43698   7.074   2.169   0.978 -0.1250  0.2772  0.2083
14338SOL    HW143699   7.005   2.206   1.034  0.5173  1.1426  0.4476
14338SOL    HW243700   7.032   2.159   0.893 -0.8436 -0.1732  0.6034
14339SOL     OW43701   3.159   6.636   3.951 -0.0943  0.4194 -0.2767
14339SOL    HW143702   3.089   6.666   3.894  0.4755  1.4421 -0.4665
14339SOL    HW243703   3.221   6.709   3.954  0.7191 -0.2656  0.2858
14340SOL     OW43704   4.472   5.244   0.325  0.3156  0.7494  0.1712
14340SOL    HW143705   4.541   5.284   0.378  0.8610 -0.3848  0.3350
14340SOL    HW243706   4.514   5.222   0.243 -0.0409  0.7282 -0.0074
14341SOL     OW43707   7.146   7.434   1.278  0.1274 -0.1341  0.3167
14341SOL    HW143708   7.103   7.442   1.194  1.7080 -1.3823 -0.6806
14341SOL    HW243709   7.174   7.343   1.282  0.4371 -0.0045  2.0298
14342SOL     OW43710   4.532   3.653   2.347  0.3146  0.1458  0.5081
14342SOL    HW143711   4.450   3.614   2.377 -0.3166 -0.2836 -1.6093
14342SOL    HW243712   4.558   3.600   2.272  1.4276  1.5421 -0.1389
14343SOL     OW43713   7.563   2.682   6.170 -0.6091  0.2707 -0.1019
14343SOL    HW143714   7.658   2.696   6.171 -0.7054  1.1138 -1.1934
14343SOL    HW243715   7.552   2.595   6.130 -0.3360  0.8196 -1.4340
14344SOL     OW43716   0.493   5.975   5.740 -0.8080 -0.0793 -0.3250
14344SOL    HW143717   0.487   5.883   5.764 -1.3460 -0.0773 -0.4234
14344SOL    HW243718   0.455   5.980   5.652  0.3657  0.0456 -0.8376
14345SOL     OW43719   5.590   4.876   2.468 -0.3972 -0.2573 -0.0838
14345SOL    HW143720   5.515   4.817   2.466 -0.6930 -0.0537  2.3043
14345SOL    HW243721   5.665   4.818   2.482 -0.5708 -0.1809  1.2515
14346SOL     OW43722   5.313   6.863   3.653  0.3027 -0.5012  0.7531
14346SOL    HW143723   5.283   6.772   3.657  2.3495 -1.3703 -1.0270
14346SOL    HW243724   5.236   6.913   3.628 -0.3949 -2.1557 -0.6229
14347SOL     OW43725   1.568   0.072   6.290  0.2100  0.0727 -0.2516
14347SOL    HW143726   1.619   0.036   6.362  0.5824  0.4041 -0.3522
14347SOL    HW243727   1.536   0.156   6.322 -1.9694 -0.9720  0.5841
14348SOL     OW43728   5.233   2.050   5.825 -0.3164 -0.2655 -0.0138
14348SOL    HW143729   5.294   2.107   5.779 -0.7948  0.6457  0.4653
14348SOL    HW243730   5.286   2.011   5.895 -0.5187  1.4426  1.1578
14349SOL     OW43731   1.002   2.259   6.209 -0.2055  0.3241 -0.3965
14349SOL    HW143732   1.025   2.350   6.229  0.5503  0.0071  0.2173
14349SOL    HW243733   1.071   2.230   6.149  0.8625 -0.5341  1.1937
14350SOL     OW43734   3.601   0.516   6.187 -0.2099  0.2655  0.2546
14350SOL    HW143735   3.568   0.568   6.113  0.7695  1.3677  0.5660
14350SOL    HW243736   3.688   0.552   6.204  1.0470 -2.2896 -0.2935
14351SOL     OW43737   0.380   0.755   2.186 -0.4022 -0.0294 -0.3373
14351SOL    HW143738   0.349   0.822   2.246 -1.2426 -1.1545  0.5340
14351SOL    HW243739   0.472   0.743   2.207 -0.5138  0.0978  0.2225
14352SOL     OW43740   4.721   6.376   2.735 -0.1882  0.2497 -0.3695
14352SOL    HW143741   4.762   6.448   2.686  0.5989 -0.8148 -1.3116
14352SOL    HW243742   4.783   6.357   2.805  1.2207 -1.6148 -2.0171
14353SOL     OW43743   1.290   0.842   2.383  0.4183 -0.1134  0.2213
14353SOL    HW143744   1.214   0.887   2.421  0.1094 -0.3550 -0.1007
14353SOL    HW243745   1.270   0.749   2.393  1.0645 -0.1856  0.9054
14354SOL     OW43746   0.372   5.365   0.534 -0.1178  0.1818 -0.0541
14354SOL    HW143747   0.309   5.323   0.476 -0.5082 -0.6169  0.9087
14354SOL    HW243748   0.412   5.433   0.481  1.0182 -1.8184 -1.8961
14355SOL     OW43749   4.357   6.188   7.592 -0.2409  0.5434 -0.3441
14355SOL    HW143750   4.275   6.238   7.590 -0.1108  1.0620  2.5724
14355SOL    HW243751   4.425   6.254   7.602  0.0303 -0.0126  2.3427
14356SOL     OW43752   7.229   3.380   7.330  0.5378 -0.3015 -0.6806
14356SOL    HW143753   7.296   3.433   7.374 -0.0677 -0.7414  0.8195
14356SOL    HW243754   7.153   3.383   7.389 -0.7264  0.0184 -2.2386
14357SOL     OW43755   6.904   0.237   3.307 -0.0118  0.1881  0.3975
14357SOL    HW143756   6.892   0.145   3.333 -0.3140 -0.0999 -0.6917
14357SOL    HW243757   6.878   0.239   3.215 -0.9358  1.5601  0.6486
14358SOL     OW43758   7.685   0.207   1.383 -0.0943 -0.0640  0.2723
14358SOL    HW143759   7.663   0.223   1.291  1.0931 -1.5086 -0.2919
14358SOL    HW243760   7.611   0.157   1.417 -0.0801 -0.3952 -0.1742
14359SOL     OW43761   1.897   0.890   0.692 -0.5107 -0.9514 -0.5316
14359SOL    HW143762   1.890   0.827   0.620 -0.7731 -1.9299  0.3212
14359SOL    HW243763   1.868   0.841   0.769 -0.2650  0.0831  0.2381
14360SOL     OW43764   3.997   0.526   2.631  0.4365  0.0232  0.1924
14360SOL    HW143765   3.930   0.464   2.659 -1.2553  1.4206 -0.5645
14360SOL    HW243766   3.975   0.608   2.676  1.0760  0.7549 -0.7776
14361SOL     OW43767   6.915   1.492   6.967 -0.1537 -0.2552  0.7691
14361SOL    HW143768   6.969   1.432   6.915  0.0157  0.8357 -0.3573
14361SOL    HW243769   6.966   1.572   6.972 -1.1352  0.3869  0.7347
14362SOL     OW43770   1.502   5.855   1.463  0.1729  0.3465 -0.5251
14362SOL    HW143771   1.589   5.884   1.437  0.7873 -0.3958  0.6088
14362SOL    HW243772   1.476   5.915   1.533 -0.6759  1.1848 -1.5237
14363SOL     OW43773   5.587   4.826   7.342 -0.2235  0.0535 -0.3979
14363SOL    HW143774   5.668   4.779   7.324 -0.5983 -0.0758 -1.8051
14363SOL    HW243775   5.611   4.888   7.411  0.6248 -1.2052  0.4876
14364SOL     OW43776   2.937   1.593   7.697  0.4677  0.3276 -0.4850
14364SOL    HW143777   2.906   1.662   7.756 -0.1347  1.0751 -1.6494
14364SOL    HW243778   2.993   1.638   7.634  1.2841 -0.5000 -0.3710
14365SOL     OW43779   4.404   1.805   1.052 -0.3589  0.6436  0.4512
14365SOL    HW143780   4.368   1.856   1.125 -0.3621  2.3584 -0.6879
14365SOL    HW243781   4.388   1.859   0.975  1.0850 -0.3793 -0.6209
14366SOL     OW43782   0.948   5.968   7.413  0.2078  0.1124 -0.1050
14366SOL    HW143783   0.939   6.055   7.375  0.0281  0.9015  1.6106
14366SOL    HW243784   0.858   5.938   7.426  0.2031  0.5966  1.1958
14367SOL     OW43785   7.730   4.595   3.249 -0.1639  0.3837 -0.3334
14367SOL    HW143786   7.684   4.512   3.259 -0.3380  0.1895 -2.2901
14367SOL    HW243787   7.702   4.648   3.323 -2.1087 -0.3955 -0.4610
14368SOL     OW43788   0.306   0.427   5.296  0.6503 -0.3222  0.7536
14368SOL    HW143789   0.232   0.435   5.357  0.1728  0.1546  0.1285
14368SOL    HW243790   0.301   0.336   5.265  0.8708 -0.5540  1.3894
14369SOL     OW43791   4.240   1.495   1.265  0.0995  0.4051 -0.1159
14369SOL    HW143792   4.268   1.410   1.232  0.8816  0.4184  0.4748
14369SOL    HW243793   4.159   1.514   1.218 -0.3851 -0.9174  0.1481
14370SOL     OW43794   4.376   6.370   2.093  0.1615  0.0549 -0.3427
14370SOL    HW143795   4.404   6.279   2.100 -0.4242 -0.0534  0.8704
14370SOL    HW243796   4.433   6.408   2.026  0.0468 -1.3391 -1.2596
14371SOL     OW43797   5.037   1.243   6.769  0.2494  0.2912 -0.1509
14371SOL    HW143798   5.013   1.173   6.830 -0.9914  0.7445 -0.0928
14371SOL    HW243799   5.115   1.282   6.808 -0.1005  0.1028  0.7779
14372SOL     OW43800   2.685   2.070   7.683  0.0406 -0.1461 -0.1963
14372SOL    HW143801   2.768   2.090   7.727  0.2854  0.5791 -0.9738
14372SOL    HW243802   2.618   2.091   7.748  0.4422 -0.1279  0.2180
14373SOL     OW43803   3.534   5.837   2.558 -0.2528  0.1870  0.2400
14373SOL    HW143804   3.554   5.799   2.644 -1.5042  0.1470  0.5292
14373SOL    HW243805   3.528   5.762   2.499  0.3304  0.1929  0.1655
14374SOL     OW43806   0.865   0.963   1.024  0.4229 -0.2167 -0.7234
14374SOL    HW143807   0.952   1.000   1.042  0.2351  0.2598 -0.7926
14374SOL    HW243808   0.884   0.883   0.975  0.8611 -0.6052  0.0568
14375SOL     OW43809   3.460   0.512   0.258  0.0796 -0.7024  0.7133
14375SOL    HW143810   3.474   0.581   0.194 -1.4288 -1.1759 -0.1941
14375SOL    HW243811   3.421   0.556   0.334 -1.6476 -0.6112 -0.1746
14376SOL     OW43812   0.008   2.556   2.325 -0.1303 -0.4161  0.0430
14376SOL    HW143813   0.063   2.572   2.402 -0.9431 -0.2025  0.5901
14376SOL    HW243814   0.058   2.594   2.252  1.4756 -2.1953  0.1487
14377SOL     OW43815   4.169   3.492   5.203 -0.4372  0.3342  0.0215
14377SOL    HW143816   4.229   3.545   5.151  0.0234  2.0955  2.2048
14377SOL    HW243817   4.090   3.546   5.211 -0.6536 -0.0861  0.7875
14378SOL     OW43818   6.169   6.791   1.285  0.2289 -0.1382  0.5005
14378SOL    HW143819   6.195   6.736   1.211 -0.8671 -0.0645  0.0435
14378SOL    HW243820   6.205   6.747   1.362  1.5872 -0.0920 -0.0740
14379SOL     OW43821   6.795   4.500   6.334 -0.7988  0.0108 -0.5013
14379SOL    HW143822   6.816   4.574   6.391  0.4754  1.0008 -2.1675
14379SOL    HW243823   6.766   4.432   6.394  0.6032  0.9397  1.3652
14380SOL     OW43824   3.123   7.330   5.784  0.1581  0.1118 -0.4758
14380SOL    HW143825   3.114   7.235   5.792 -1.6852  0.3432  0.8329
14380SOL    HW243826   3.149   7.359   5.871  1.3811  0.7918 -1.0352
14381SOL     OW43827   2.354   3.715   7.263  0.3074  0.0605 -0.1685
14381SOL    HW143828   2.367   3.627   7.297  2.0516 -0.5878 -2.2434
14381SOL    HW243829   2.320   3.765   7.337 -0.8741 -2.3574  1.0351
14382SOL     OW43830   2.654   0.843   1.885 -0.1758 -0.5911 -0.1644
14382SOL    HW143831   2.624   0.858   1.795  0.7579 -3.0279 -0.9589
14382SOL    HW243832   2.748   0.858   1.882 -0.4861  2.4720  1.2590
14383SOL     OW43833   2.039   4.945   1.580  0.2280 -0.7345 -0.5428
14383SOL    HW143834   1.977   5.018   1.583 -0.4335 -1.3273  1.0606
14383SOL    HW243835   2.094   4.958   1.657 -0.6442 -2.5493  0.4383
14384SOL     OW43836   2.998   0.774   5.159  0.5493 -0.1217  0.5692
14384SOL    HW143837   3.057   0.702   5.138  0.0730 -0.3788  0.0936
14384SOL    HW243838   3.045   0.853   5.133  0.3610 -0.3758 -0.5946
14385SOL     OW43839   2.741   3.282   2.690 -0.3660 -0.2949 -0.2102
14385SOL    HW143840   2.758   3.365   2.736 -0.3466  1.4428 -3.0708
14385SOL    HW243841   2.694   3.308   2.611 -0.9450 -3.1465 -0.9097
14386SOL     OW43842   7.634   2.956   4.345  0.3229  0.0158 -0.3633
14386SOL    HW143843   7.685   2.876   4.331 -0.3651 -0.8983  1.8129
14386SOL    HW243844   7.685   3.005   4.410 -0.0737  0.5785 -0.4688
14387SOL     OW43845   1.001   0.957   3.566  0.1727  0.2584  0.5445
14387SOL    HW143846   1.077   0.961   3.624  0.3012 -0.0160  0.3991
14387SOL    HW243847   0.980   0.864   3.561  1.0536  0.1044 -0.9784
14388SOL     OW43848   3.446   0.693   0.043 -0.4651  0.0762  0.0760
14388SOL    HW143849   3.525   0.745   0.026 -0.7083  0.4010 -0.0773
14388SOL    HW243850   3.411   0.674  -0.043  1.3606 -3.1414 -0.0908
14389SOL     OW43851   4.519   7.696   2.334 -0.7289 -0.2602 -0.1626
14389SOL    HW143852   4.495   7.739   2.252 -0.7722 -0.9039 -0.4977
14389SOL    HW243853   4.560   7.614   2.307 -1.4158 -0.8296  0.4544
14390SOL     OW43854   5.012   5.136   5.623  0.3632  0.4068  0.2955
14390SOL    HW143855   4.992   5.056   5.574 -1.1354  1.0504 -0.2104
14390SOL    HW243856   4.972   5.207   5.571  2.7071  1.6552  0.0675
14391SOL     OW43857   6.410   5.865   6.666  0.7294  0.5719  0.1791
14391SOL    HW143858   6.318   5.888   6.654  0.4938 -0.4386 -0.0575
14391SOL    HW243859   6.408   5.781   6.713  1.5079  0.2056 -0.4164
14392SOL     OW43860   2.368   6.192   6.797  0.7727 -0.3620 -0.3757
14392SOL    HW143861   2.314   6.115   6.780  0.5026  0.4217 -3.8047
14392SOL    HW243862   2.447   6.158   6.836 -0.8810 -1.8824  1.8709
14393SOL     OW43863   0.389   6.879   4.956 -0.0578 -0.0815 -0.2796
14393SOL    HW143864   0.353   6.803   5.003  0.6705 -0.1826  0.1329
14393SOL    HW243865   0.321   6.945   4.962 -0.3062 -0.3762  0.2214
14394SOL     OW43866   0.675   6.277   6.813  0.0079 -0.1447 -0.4597
14394SOL    HW143867   0.766   6.300   6.830 -0.7141  1.9787  0.8359
14394SOL    HW243868   0.643   6.344   6.753 -0.9256 -0.3846 -0.2593
14395SOL     OW43869   1.163   7.658   4.342  0.2296 -0.1390  0.3003
14395SOL    HW143870   1.078   7.679   4.304  0.6169 -0.0474 -0.5615
14395SOL    HW243871   1.179   7.726   4.407 -0.5992 -0.4788  0.8594
14396SOL     OW43872   7.439   1.461   4.178  0.0466 -0.2669  0.3168
14396SOL    HW143873   7.358   1.473   4.128  0.7979  0.5525 -0.7698
14396SOL    HW243874   7.433   1.525   4.249  0.9042  1.8250 -1.3678
14397SOL     OW43875   0.434   4.824   0.808 -0.1243 -0.3860 -0.0247
14397SOL    HW143876   0.391   4.895   0.759 -0.6930 -1.1364 -0.6535
14397SOL    HW243877   0.525   4.827   0.780  0.2322  1.0970  1.1602
14398SOL     OW43878   5.026   0.257   3.172  1.0588 -0.0476  0.4003
14398SOL    HW143879   5.031   0.278   3.078  0.0567 -0.3438  0.2707
14398SOL    HW243880   5.072   0.174   3.181  0.8196 -0.2145  0.1022
14399SOL     OW43881   3.596   5.921   3.097 -0.6781 -0.1530  0.4723
14399SOL    HW143882   3.642   5.992   3.140  0.2779 -0.9093  0.7466
14399SOL    HW243883   3.635   5.917   3.009 -1.5177  0.3769  0.0696
14400SOL     OW43884   0.269   0.346   0.749  0.0760  0.0142 -0.0345
14400SOL    HW143885   0.334   0.296   0.701  0.6425  0.7132 -0.0084
14400SOL    HW243886   0.226   0.400   0.683  0.5149  0.6114  0.1646
14401SOL     OW43887   2.952   4.910   4.018 -0.7242  0.4589 -0.1923
14401SOL    HW143888   3.014   4.979   3.994 -0.2332  0.0533 -0.1121
14401SOL    HW243889   2.928   4.869   3.935 -1.8551  1.4043 -0.3681
14402SOL     OW43890   5.299   1.285   4.855 -0.1018 -0.5288 -0.1727
14402SOL    HW143891   5.241   1.349   4.897  1.3173  0.0403  0.9888
14402SOL    HW243892   5.387   1.308   4.885  0.6219 -2.1002 -0.9523
14403SOL     OW43893   7.603   6.079   1.003 -0.1338 -0.0318 -0.3537
14403SOL    HW143894   7.532   6.016   0.994  0.3475 -0.7715  0.7894
14403SOL    HW243895   7.590   6.116   1.091  1.9300 -1.5011  0.6182
14404SOL     OW43896   0.912   7.753   1.092 -0.3186  0.4426  0.0071
14404SOL    HW143897   0.852   7.826   1.086 -1.7410 -0.4873  1.8400
14404SOL    HW243898   0.895   7.701   1.013  0.4164  1.8014 -1.0970
14405SOL     OW43899   4.045   3.144   3.775 -0.5033  0.0994  0.2793
14405SOL    HW143900   4.088   3.120   3.857  0.1959 -2.4415 -0.7262
14405SOL    HW243901   4.006   3.229   3.793  0.5521  0.1470  2.8843
14406SOL     OW43902   4.830   3.703   4.935 -0.3151  0.7740  0.4304
14406SOL    HW143903   4.786   3.781   4.900  0.6532  0.4398 -1.6927
14406SOL    HW243904   4.762   3.636   4.937 -0.3244  0.6908 -1.3067
14407SOL     OW43905   0.577   1.123   2.093 -0.0752 -0.2674 -0.1626
14407SOL    HW143906   0.494   1.081   2.070  0.6070 -2.2198  0.7349
14407SOL    HW243907   0.551   1.209   2.127 -1.7026 -0.6944 -0.2217
14408SOL     OW43908   2.956   2.054   1.098 -0.1408 -0.3897  0.2755
14408SOL    HW143909   3.038   2.103   1.095 -0.6190  0.4817  0.8257
14408SOL    HW243910   2.947   2.027   1.189 -1.6660  1.7438  0.8628
14409SOL     OW43911   5.374   1.008   5.285  0.3714 -0.3813  0.5430
14409SOL    HW143912   5.392   1.099   5.262 -2.6311 -0.5107 -3.2303
14409SOL    HW243913   5.416   0.956   5.217 -0.1980 -1.6640  1.1225
14410SOL     OW43914   7.696   1.760   3.393  0.9230 -0.3144 -0.1779
14410SOL    HW143915   7.745   1.749   3.312  1.5986 -0.5682  0.2584
14410SOL    HW243916   7.628   1.693   3.390 -0.5983  1.1937 -1.6388
14411SOL     OW43917   7.228   6.504   2.306 -0.2844 -0.4076 -0.3259
14411SOL    HW143918   7.147   6.453   2.307  0.0936 -1.1234 -2.1950
14411SOL    HW243919   7.284   6.458   2.243  0.9302  1.0381 -0.3423
14412SOL     OW43920   5.249   6.327   0.923 -0.2955  0.3105 -0.5179
14412SOL    HW143921   5.310   6.264   0.961  0.1141  1.5775  1.0153
14412SOL    HW243922   5.280   6.339   0.833  0.1759 -0.9355 -0.5429
14413SOL     OW43923   5.777   1.080   5.069  0.5939  0.0429 -0.2945
14413SOL    HW143924   5.853   1.044   5.114  0.4314  0.2119  0.1169
14413SOL    HW243925   5.771   1.170   5.100 -0.4200 -0.2897  0.5168
14414SOL     OW43926   0.667   3.469   4.332  0.0016 -0.3158 -0.4203
14414SOL    HW143927   0.651   3.444   4.423 -0.3484 -0.9940 -0.6595
14414SOL    HW243928   0.739   3.412   4.304 -1.4315 -1.7999 -1.2605
14415SOL     OW43929   5.122   6.818   5.350  0.0369  0.5096 -0.2710
14415SOL    HW143930   5.043   6.867   5.375 -0.4181 -0.7357  0.8666
14415SOL    HW243931   5.150   6.776   5.431  0.2477 -1.3137 -1.2387
14416SOL     OW43932   5.262   5.170   2.030  0.1486  0.0761  0.1729
14416SOL    HW143933   5.189   5.222   1.998  0.9611  1.2453  0.1635
14416SOL    HW243934   5.304   5.225   2.096 -0.2796 -1.4696  1.8038
14417SOL     OW43935   5.238   6.607   4.215 -0.0734  0.3793 -0.3898
14417SOL    HW143936   5.254   6.672   4.147 -0.4121 -0.3883 -1.2229
14417SOL    HW243937   5.155   6.634   4.255  0.5544  1.3204  0.3250
14418SOL     OW43938   7.409   3.883   0.673 -0.3078 -0.1026  0.4761
14418SOL    HW143939   7.326   3.901   0.717 -1.0239 -0.7030 -0.5960
14418SOL    HW243940   7.417   3.788   0.676 -0.7546 -0.2358 -1.3199
14419SOL     OW43941   4.586   6.244   3.934 -0.6553  0.2004 -0.4218
14419SOL    HW143942   4.573   6.274   3.844 -1.4402  1.6687  0.1373
14419SOL    HW243943   4.513   6.283   3.983  0.7040  0.8708  1.1670
14420SOL     OW43944   7.026   7.575   0.782 -0.5186  0.0726  0.1656
14420SOL    HW143945   6.996   7.504   0.727 -2.5163  0.7217  0.3526
14420SOL    HW243946   6.947   7.624   0.805  0.7259  2.1651  0.3132
14421SOL     OW43947   0.767   0.895   2.022  0.4025  0.2766 -0.0116
14421SOL    HW143948   0.726   0.976   2.053  0.5676  0.4386 -0.2203
14421SOL    HW243949   0.693   0.840   1.997  0.1874 -0.3272  1.7949
14422SOL     OW43950   1.151   5.024   2.918 -0.1493  0.6482  0.5495
14422SOL    HW143951   1.203   5.012   2.997  1.0632  0.7439 -0.2078
14422SOL    HW243952   1.213   5.012   2.846 -0.5180  3.5213 -0.3798
14423SOL     OW43953   6.635   7.210   2.428  0.1748 -0.0969  0.0714
14423SOL    HW143954   6.675   7.291   2.399  2.5441 -0.4624  2.0663
14423SOL    HW243955   6.707   7.147   2.432 -1.3328 -1.9383 -0.0112
14424SOL     OW43956   0.459   6.867   5.850 -0.0956 -0.0291 -0.2197
14424SOL    HW143957   0.487   6.790   5.801  0.4963 -0.1120  0.2369
14424SOL    HW243958   0.540   6.916   5.866 -0.4944  0.8076 -0.7050
14425SOL     OW43959   4.269   6.726   1.938  0.6240 -0.1957  0.0387
14425SOL    HW143960   4.309   6.708   1.853  2.7669 -0.9117  1.1303
14425SOL    HW243961   4.279   6.645   1.987 -0.2234  0.3219  1.1172
14426SOL     OW43962   6.190   6.152   5.166  0.0306 -0.0335  0.0392
14426SOL    HW143963   6.220   6.127   5.078  0.9983  0.8332  0.1071
14426SOL    HW243964   6.212   6.076   5.220 -0.3722 -0.4869 -0.4287
14427SOL     OW43965   5.702   5.787   2.865  0.0886  0.2974 -0.0575
14427SOL    HW143966   5.687   5.875   2.830  1.1886  0.8328  0.7720
14427SOL    HW243967   5.796   5.773   2.855  0.4393  0.4244  2.5194
14428SOL     OW43968   6.060   4.235   3.062  0.5851 -0.3859  0.1381
14428SOL    HW143969   6.110   4.289   3.000  2.0593  1.6071  2.8293
14428SOL    HW243970   6.093   4.146   3.048  0.2496 -0.1785 -2.4251
14429SOL     OW43971   0.205   1.932   0.035  0.4050 -0.1636 -0.1458
14429SOL    HW143972   0.126   1.881   0.054 -0.6375  1.5158  0.3764
14429SOL    HW243973   0.275   1.887   0.080 -0.0042 -2.3451 -1.5533
14430SOL     OW43974   6.524   7.666   7.452 -0.4176  0.3974 -0.1398
14430SOL    HW143975   6.441   7.693   7.413 -1.1131 -1.3084  0.0565
14430SOL    HW243976   6.500   7.633   7.538  0.3882 -0.4953 -0.2394
14431SOL     OW43977   6.882   7.625   7.507  0.5145  0.2083  0.5773
14431SOL    HW143978   6.812   7.669   7.459  0.8142  0.7529  0.6296
14431SOL    HW243979   6.931   7.577   7.440  1.2656  1.4094  0.2343
14432SOL     OW43980   7.045   0.523   2.951 -0.5484  0.4448 -0.3517
14432SOL    HW143981   7.115   0.582   2.980 -0.5125 -0.8531  2.5155
14432SOL    HW243982   7.091   0.443   2.926 -0.8802 -0.0896  0.6731
14433SOL     OW43983   6.733   5.198   0.444 -0.2689 -1.0273  0.4211
14433SOL    HW143984   6.762   5.266   0.506  0.5191 -1.0136  0.0479
14433SOL    HW243985   6.745   5.238   0.358 -2.6410 -0.5258  0.2404
14434SOL     OW43986   1.878   6.497   6.743 -0.7201 -0.2000  0.2855
14434SOL    HW143987   1.939   6.492   6.816 -1.4764  3.6114  1.3976
14434SOL    HW243988   1.934   6.501   6.665  0.4045  0.9766  1.1154
14435SOL     OW43989   4.264   3.659   2.525  0.0086 -0.2758 -0.3708
14435SOL    HW143990   4.194   3.603   2.559  1.7155 -1.7416  0.8634
14435SOL    HW243991   4.263   3.645   2.431 -1.8477  0.3642 -0.4929
14436SOL     OW43992   4.088   7.640   6.120  0.2979  0.0922  0.5507
14436SOL    HW143993   4.067   7.699   6.193  0.8680 -0.3067  1.0459
14436SOL    HW243994   4.119   7.698   6.050  1.2455  0.3666  1.1742
14437SOL     OW43995   6.205   0.036   0.945  0.3008 -0.4353  0.0485
14437SOL    HW143996   6.113   0.014   0.929 -0.0039 -0.9152  2.1186
14437SOL    HW243997   6.202   0.121   0.989  0.8693 -0.3048 -0.1610
14438SOL     OW43998   7.104   5.784   1.449 -0.0460 -0.2619  0.2247
14438SOL    HW143999   7.170   5.775   1.518 -0.1883  1.6412  0.6634
14438SOL    HW244000   7.034   5.724   1.475 -0.6837  1.3434  2.5053
14439SOL     OW44001   2.022   4.361   1.155 -0.6451  0.4375  0.0924
14439SOL    HW144002   1.945   4.403   1.192 -1.1981 -1.5260  1.3478
14439SOL    HW244003   2.095   4.393   1.209 -0.7996  1.1278 -0.1078
14440SOL     OW44004   6.474   3.587   1.450 -0.1965 -0.3694  0.5289
14440SOL    HW144005   6.431   3.635   1.521  0.0979 -0.8967  1.0717
14440SOL    HW244006   6.537   3.648   1.413 -2.1488  0.8291 -1.0242
14441SOL     OW44007   4.604   1.777   0.402  0.1412 -0.2012  0.7132
14441SOL    HW144008   4.538   1.844   0.383  1.5426  1.0690  0.0700
14441SOL    HW244009   4.630   1.744   0.315  2.1985  1.2298  0.7016
14442SOL     OW44010   3.141   4.792   7.170 -0.4543 -0.2434  0.4286
14442SOL    HW144011   3.053   4.822   7.192 -0.3832 -0.7580  1.5231
14442SOL    HW244012   3.199   4.852   7.216 -0.3039 -1.5383  2.0339
14443SOL     OW44013   6.161   7.511   5.026  0.1786  0.1622  0.0680
14443SOL    HW144014   6.089   7.525   4.966  0.0198 -1.5572 -0.2094
14443SOL    HW244015   6.232   7.566   4.993  0.2942 -1.1610 -2.0905
14444SOL     OW44016   7.391   2.158   2.962  0.2034  0.4080 -0.0873
14444SOL    HW144017   7.462   2.117   2.913  0.9881  0.1215  1.2370
14444SOL    HW244018   7.420   2.247   2.978  0.2953  0.2761  0.5035
14445SOL     OW44019   3.412   4.061   6.465  0.4474  0.1552 -0.0182
14445SOL    HW144020   3.377   4.108   6.390 -1.8734 -0.9332  0.3085
14445SOL    HW244021   3.376   4.108   6.541  1.1300  0.0393  0.3866
14446SOL     OW44022   6.926   5.603   1.834 -0.1504 -0.0478 -0.3359
14446SOL    HW144023   6.994   5.670   1.841  0.8073 -0.6016 -3.0796
14446SOL    HW244024   6.973   5.524   1.807 -1.5634 -1.2292  0.5183
14447SOL     OW44025   0.681   6.508   1.430  0.5576 -0.0799  0.0411
14447SOL    HW144026   0.753   6.480   1.485 -0.1411  1.8356  2.0720
14447SOL    HW244027   0.619   6.436   1.433  1.4431 -0.8548  0.0322
14448SOL     OW44028   1.984   4.539   2.674 -0.0555  0.4526 -0.2420
14448SOL    HW144029   1.908   4.481   2.666 -0.5275  1.0668 -0.2944
14448SOL    HW244030   1.949   4.618   2.714  0.3035  1.2172 -1.3826
14449SOL     OW44031   5.838   1.376   0.220 -0.0386  0.2045 -0.4313
14449SOL    HW144032   5.889   1.343   0.294 -1.3804  0.0559  0.4589
14449SOL    HW244033   5.875   1.332   0.143  0.6929 -0.4329  0.2744
14450SOL     OW44034   0.148   5.944   1.591 -0.3011  0.4430 -0.7462
14450SOL    HW144035   0.154   5.964   1.498 -0.5364 -0.9110 -1.0689
14450SOL    HW244036   0.238   5.925   1.617 -0.4755 -1.0960 -1.1718
14451SOL     OW44037   5.558   5.551   6.177  0.3902 -0.1142 -0.6192
14451SOL    HW144038   5.614   5.592   6.243  0.4806  0.7464 -1.2173
14451SOL    HW244039   5.603   5.469   6.155 -0.1207 -0.9004  1.0479
14452SOL     OW44040   1.097   2.874   7.757 -0.0482 -0.2715  0.1788
14452SOL    HW144041   1.110   2.793   7.805  0.0801 -0.2302  0.2127
14452SOL    HW244042   1.181   2.892   7.714 -0.0501 -0.1136  0.2381
14453SOL     OW44043   3.749   1.614   4.616  0.2095 -0.7196  0.0405
14453SOL    HW144044   3.763   1.643   4.706  2.5379  1.5564 -0.9336
14453SOL    HW244045   3.668   1.658   4.589  0.6205  0.2997  0.4023
14454SOL     OW44046   5.046   1.407   0.531  0.2370 -0.9814  0.5204
14454SOL    HW144047   5.077   1.451   0.452  1.8671  0.7627  2.0250
14454SOL    HW244048   5.020   1.320   0.502  0.3385 -0.2515 -1.9794
14455SOL     OW44049   4.321   4.501   2.897 -0.3877  0.2796 -0.7773
14455SOL    HW144050   4.311   4.421   2.948 -1.4831 -0.1488 -1.6229
14455SOL    HW244051   4.413   4.501   2.869  0.5873  1.1176  2.0769
14456SOL     OW44052   1.717   7.682   7.164  0.0700  0.2894 -0.7007
14456SOL    HW144053   1.797   7.735   7.171  0.4396 -0.4068  1.4517
14456SOL    HW244054   1.721   7.643   7.077  0.8729  2.1079 -1.5113
14457SOL     OW44055   2.187   0.056   6.617  0.0164 -0.1343 -0.9745
14457SOL    HW144056   2.247   0.129   6.630  0.8404 -1.0854  1.1083
14457SOL    HW244057   2.126   0.061   6.691 -1.3467 -0.2793 -2.0285
14458SOL     OW44058   2.721   2.238   2.700  0.9273  0.0627  0.3279
14458SOL    HW144059   2.691   2.254   2.790  2.0846  0.5393  0.6539
14458SOL    HW244060   2.790   2.172   2.710 -0.5525 -1.7312 -0.5041
14459SOL     OW44061   7.247   1.466   3.656 -0.7426  0.4009 -0.5777
14459SOL    HW144062   7.240   1.417   3.738 -0.4345  1.1618 -0.0848
14459SOL    HW244063   7.292   1.407   3.596 -0.5697  0.0048 -0.0631
14460SOL     OW44064   6.672   7.511   5.497 -0.3610  0.3368 -0.1016
14460SOL    HW144065   6.687   7.571   5.423 -1.6301  0.7911 -0.0093
14460SOL    HW244066   6.589   7.468   5.477  1.1667 -2.5122 -0.8608
14461SOL     OW44067   4.564   2.408   7.002 -0.3746 -0.3576 -0.3916
14461SOL    HW144068   4.606   2.331   7.041  0.7503  0.4490  0.0299
14461SOL    HW244069   4.474   2.380   6.986 -0.5566 -1.1390  1.6371
14462SOL     OW44070   5.784   4.848   4.941  0.0298 -0.6357  0.0038
14462SOL    HW144071   5.817   4.862   4.852  0.5348  0.6642  0.3738
14462SOL    HW244072   5.705   4.902   4.946  1.4977  1.5803  1.1635
14463SOL     OW44073   5.441   0.002   1.831  0.2639  0.7747  0.0037
14463SOL    HW144074   5.379   0.036   1.896  0.2684  1.1709 -0.1975
14463SOL    HW244075   5.407   0.033   1.747  0.5661  0.7321 -0.1351
14464SOL     OW44076   1.793   2.098   4.349  0.5117 -0.1894  0.0908
14464SOL    HW144077   1.880   2.073   4.381  0.6963  0.7645  0.3748
14464SOL    HW244078   1.738   2.101   4.427  0.3386 -0.3144 -0.0242
14465SOL     OW44079   4.189   4.614   6.303 -0.6058  0.3227  0.0373
14465SOL    HW144080   4.186   4.680   6.372 -3.4119  0.0006  0.3073
14465SOL    HW244081   4.182   4.530   6.349  1.3251 -0.1452 -0.4241
14466SOL     OW44082   6.673   2.319   2.509  0.4812  0.3191 -0.7633
14466SOL    HW144083   6.693   2.226   2.504  0.7819  0.3211  0.2509
14466SOL    HW244084   6.591   2.329   2.461 -0.4697 -0.7560  0.5944
14467SOL     OW44085   2.297   3.387   6.921 -0.0664 -0.4179 -0.3257
14467SOL    HW144086   2.375   3.413   6.873  0.2816 -0.1906  0.3443
14467SOL    HW244087   2.327   3.314   6.976 -0.4610 -0.6852 -0.4612
14468SOL     OW44088   1.554   7.446   7.642 -0.2560 -0.7433  0.2823
14468SOL    HW144089   1.501   7.370   7.618  0.4299 -0.7259 -1.4610
14468SOL    HW244090   1.619   7.453   7.571 -0.3896  1.5351  0.3135
14469SOL     OW44091   3.098   5.549   3.366  0.2449 -0.1630  0.2660
14469SOL    HW144092   3.090   5.454   3.366  1.0311 -0.2409  0.1015
14469SOL    HW244093   3.123   5.572   3.456  2.6512 -0.3950 -0.2607
14470SOL     OW44094   3.416   0.344   2.993 -0.0526 -0.6767 -0.7736
14470SOL    HW144095   3.422   0.439   3.000  0.4436 -0.6741 -1.1704
14470SOL    HW244096   3.325   0.328   2.969 -0.6568 -0.4343  1.1610
14471SOL     OW44097   4.702   1.472   4.144  0.4232 -0.4176  0.3784
14471SOL    HW144098   4.719   1.403   4.080  0.6560  0.0788 -0.1012
14471SOL    HW244099   4.673   1.547   4.092 -0.5105 -0.3656  0.9541
14472SOL     OW44100   4.030   0.154   3.114  0.3790  0.3529  0.4364
14472SOL    HW144101   4.046   0.093   3.186 -0.3378  0.3888  0.6416
14472SOL    HW244102   3.990   0.099   3.046 -0.5717  0.6360  0.7461
14473SOL     OW44103   5.884   6.835   5.510  0.0718 -0.3473  0.2151
14473SOL    HW144104   5.790   6.857   5.509 -0.1770 -1.3350  0.0664
14473SOL    HW244105   5.893   6.771   5.581  1.1025  1.5215  1.8516
14474SOL     OW44106   0.151   2.959   2.680 -0.7081 -0.2151 -0.4785
14474SOL    HW144107   0.084   2.896   2.707 -1.1959 -0.0351 -1.2310
14474SOL    HW244108   0.102   3.037   2.654 -0.2455 -0.2087 -1.3885
14475SOL     OW44109   5.918   1.322   2.758 -0.4717 -0.0131 -0.8045
14475SOL    HW144110   5.958   1.272   2.686 -0.6419 -0.7228 -0.4192
14475SOL    HW244111   5.831   1.346   2.725  0.2698  1.6456 -1.6973
14476SOL     OW44112   0.922   3.702   5.064 -0.3265  0.3381 -0.5145
14476SOL    HW144113   0.946   3.760   5.135 -0.1382 -0.0256 -0.2807
14476SOL    HW244114   0.826   3.698   5.068 -0.4482  1.6997 -1.3820
14477SOL     OW44115   3.101   5.654   5.211 -0.0622 -0.1486  0.5255
14477SOL    HW144116   3.069   5.685   5.127 -1.9824 -1.4098  0.7168
14477SOL    HW244117   3.162   5.721   5.241  0.1490  0.6336 -1.5514
14478SOL     OW44118   3.224   0.273   0.575  0.4515 -0.5479 -0.3884
14478SOL    HW144119   3.301   0.241   0.528  1.4645 -0.7935  1.3405
14478SOL    HW244120   3.255   0.352   0.620 -0.2515 -0.7633  0.4944
14479SOL     OW44121   4.310   0.967   0.277  0.7661  0.1115  0.0580
14479SOL    HW144122   4.347   1.051   0.249 -0.4912  1.0128  1.0154
14479SOL    HW244123   4.378   0.929   0.333  1.6420  0.1177 -0.9540
14480SOL     OW44124   5.039   2.332   5.360 -0.0931 -0.2816 -0.0525
14480SOL    HW144125   5.115   2.391   5.357  0.2839 -0.7929 -1.2826
14480SOL    HW244126   4.984   2.367   5.431  1.6465 -0.3554  1.4116
14481SOL     OW44127   2.256   4.627   6.465  0.1277 -0.0970  0.2040
14481SOL    HW144128   2.296   4.597   6.547  2.0902 -0.3158 -0.7657
14481SOL    HW244129   2.177   4.575   6.456  1.0904 -1.7502  0.8607
14482SOL     OW44130   4.894   6.544   1.361 -0.1964  0.2106  0.0876
14482SOL    HW144131   4.832   6.473   1.345 -1.4549  1.5530 -1.2121
14482SOL    HW244132   4.870   6.613   1.299  1.7175  1.3451  0.5047
14483SOL     OW44133   5.839   4.818   6.939 -0.7244  0.0866  0.2057
14483SOL    HW144134   5.931   4.805   6.915 -0.0878  0.0723  2.3859
14483SOL    HW244135   5.797   4.847   6.858  1.4043  1.0807 -0.6347
14484SOL     OW44136   1.323   5.292   7.179 -0.6600  0.7313 -0.1741
14484SOL    HW144137   1.403   5.251   7.144 -0.6815  0.0211  0.5774
14484SOL    HW244138   1.258   5.279   7.110 -0.8919 -1.3002  0.3474
14485SOL     OW44139   7.180   4.764   3.593 -0.3151 -0.2370  0.0539
14485SOL    HW144140   7.217   4.807   3.516 -1.2286  0.6256  0.0675
14485SOL    HW244141   7.248   4.773   3.660  0.2655 -0.5136 -0.4880
14486SOL     OW44142   2.058   5.581   6.261 -0.4766  0.3514 -0.3216
14486SOL    HW144143   2.112   5.524   6.316  0.1943 -1.1281 -2.3822
14486SOL    HW244144   1.998   5.521   6.217 -0.7321  1.4093 -1.4716
14487SOL     OW44145   6.584   1.002   3.040 -0.1452 -0.2310  0.3104
14487SOL    HW144146   6.596   0.976   2.949  0.8172 -0.8297  0.5992
14487SOL    HW244147   6.490   1.017   3.048 -0.2032  0.1098 -0.8496
14488SOL     OW44148   5.940   5.312   2.854  0.5880  0.0795 -0.0888
14488SOL    HW144149   5.960   5.373   2.925 -0.0586 -0.3975  0.5237
14488SOL    HW244150   5.872   5.355   2.803 -0.8040 -0.6222  1.0880
14489SOL     OW44151   2.999   4.494   4.092  0.3046  0.2805 -0.3788
14489SOL    HW144152   2.910   4.524   4.109  0.8252  0.6110  2.0718
14489SOL    HW244153   3.052   4.574   4.095  0.7094  0.0974 -1.8715
14490SOL     OW44154   3.911   7.494   1.538 -0.1622  0.0097 -1.0059
14490SOL    HW144155   3.900   7.545   1.458  1.0235  0.9698 -0.5952
14490SOL    HW244156   3.906   7.559   1.609 -1.3818 -0.8424 -0.2688
14491SOL     OW44157   1.425   1.137   2.262 -0.2607 -1.2284  0.3992
14491SOL    HW144158   1.377   1.079   2.321 -0.9042 -0.4315  0.6782
14491SOL    HW244159   1.515   1.136   2.296 -0.7561 -0.2456  1.8543
14492SOL     OW44160   2.016   1.964   6.617  0.0826 -0.0588 -0.3836
14492SOL    HW144161   2.085   2.030   6.614 -0.6462  1.0617  3.0558
14492SOL    HW244162   1.960   1.991   6.690 -2.9588 -1.9602 -1.7961
14493SOL     OW44163   6.785   2.917   7.062 -0.2582 -0.2126 -0.0645
14493SOL    HW144164   6.782   2.837   7.010  0.5673  1.1408 -2.3811
14493SOL    HW244165   6.701   2.921   7.106 -1.3944 -1.0271 -2.0490
14494SOL     OW44166   6.959   4.371   1.208 -0.6184  0.5634  0.2885
14494SOL    HW144167   6.896   4.419   1.262 -1.7894 -0.4931 -0.1028
14494SOL    HW244168   6.943   4.279   1.227 -1.9489  0.0489 -2.7178
14495SOL     OW44169   6.295   4.498   1.073 -0.2662  0.5755 -0.1673
14495SOL    HW144170   6.374   4.508   1.021  0.8202 -1.6236  0.9228
14495SOL    HW244171   6.247   4.426   1.032 -0.7970  0.6755  0.2556
14496SOL     OW44172   7.310   7.601   3.240 -0.1349 -0.4189  0.1181
14496SOL    HW144173   7.280   7.685   3.274  0.6744  0.1316 -0.5207
14496SOL    HW244174   7.346   7.620   3.154  1.8638 -1.0623  0.7464
14497SOL     OW44175   3.291   1.697   3.641  0.2752 -0.0464 -0.6054
14497SOL    HW144176   3.207   1.650   3.645  1.7074 -2.8597 -0.8980
14497SOL    HW244177   3.346   1.652   3.705  1.0407  3.0739  1.0881
14498SOL     OW44178   1.716   7.313   4.416 -0.1372  0.0624  0.4981
14498SOL    HW144179   1.799   7.350   4.384 -1.2162  1.0848 -1.3178
14498SOL    HW244180   1.725   7.219   4.403  0.6107  0.1972 -0.0465
14499SOL     OW44181   2.459   3.675   4.139  0.0789  0.3474  0.5520
14499SOL    HW144182   2.516   3.603   4.113 -2.2081 -1.5350  0.4360
14499SOL    HW244183   2.501   3.753   4.102  1.1756 -1.2483 -1.8206
14500SOL     OW44184   2.693   1.683   5.755 -0.0825  0.2586 -0.2370
14500SOL    HW144185   2.609   1.729   5.753 -0.2042  0.0028 -1.1361
14500SOL    HW244186   2.671   1.591   5.750  0.2465  0.1867 -0.4024
14501SOL     OW44187   2.976   2.179   3.736  0.7308  0.4204 -0.4230
14501SOL    HW144188   2.957   2.109   3.798 -1.5581  0.0877 -1.3980
14501SOL    HW244189   3.039   2.235   3.781  0.5810 -0.8247  1.4241
14502SOL     OW44190   4.385   4.996   2.709  0.3017 -0.4512  0.1876
14502SOL    HW144191   4.361   4.907   2.732 -0.7506 -0.6556 -1.5065
14502SOL    HW244192   4.452   4.986   2.641  1.2469  0.0932  1.0021
14503SOL     OW44193   1.208   3.553   1.551 -0.3359 -0.2228  0.1830
14503SOL    HW144194   1.193   3.608   1.627 -0.1615 -0.6154  0.5052
14503SOL    HW244195   1.298   3.521   1.561 -0.2612 -0.1611 -0.2599
14504SOL     OW44196   6.395   2.025   5.419 -0.2021 -0.2748 -0.1955
14504SOL    HW144197   6.312   2.062   5.450  1.6730  1.7957  2.9505
14504SOL    HW244198   6.409   1.949   5.476 -0.3586 -1.2227 -1.3900
14505SOL     OW44199   0.589   2.067   2.893  0.8099  0.0411 -0.0292
14505SOL    HW144200   0.550   1.983   2.914  1.5683 -1.6523 -4.3212
14505SOL    HW244201   0.680   2.060   2.924  1.6675 -1.9853 -2.6265
14506SOL     OW44202   1.533   0.895   7.760 -0.0494 -0.2660  0.3514
14506SOL    HW144203   1.470   0.867   7.694  1.0306 -2.5310  0.1743
14506SOL    HW244204   1.480   0.932   7.830 -1.4609 -0.7666 -0.4125
14507SOL     OW44205   2.423   1.200   0.548 -0.0123  0.5892 -0.2652
14507SOL    HW144206   2.346   1.185   0.602  0.0825  2.4609  0.4793
14507SOL    HW244207   2.413   1.290   0.517  1.3045  0.4716 -1.1145
14508SOL     OW44208   5.565   0.874   6.880  0.7895  0.1791  0.6033
14508SOL    HW144209   5.566   0.779   6.873  1.2503  0.1544  0.9778
14508SOL    HW244210   5.627   0.903   6.812 -0.1394  0.2677 -0.2322
14509SOL     OW44211   7.684   7.673   0.814  0.1169 -0.2810  0.5015
14509SOL    HW144212   7.606   7.677   0.868 -1.1925  0.0094 -1.3186
14509SOL    HW244213   7.757   7.674   0.876 -1.2939  0.1372  2.2127
14510SOL     OW44214   0.895   1.486   3.672 -0.0542  0.1372 -0.1698
14510SOL    HW144215   0.824   1.494   3.609 -1.3778  0.7550  1.3368
14510SOL    HW244216   0.971   1.460   3.620 -1.1852  0.2475 -1.9371
14511SOL     OW44217   2.348   6.413   0.713 -0.0804 -0.2617 -0.5239
14511SOL    HW144218   2.258   6.412   0.745  0.1784  2.6273  0.5618
14511SOL    HW244219   2.395   6.354   0.772 -0.9129 -0.3685  0.0449
14512SOL     OW44220   5.566   3.174   6.563  0.4571 -1.0421  0.1993
14512SOL    HW144221   5.645   3.128   6.591  0.4094 -1.3059 -0.0909
14512SOL    HW244222   5.522   3.112   6.504  1.9819  0.5314 -2.7664
14513SOL     OW44223   3.936   1.374   0.360  0.0040  0.0720  0.0916
14513SOL    HW144224   3.976   1.287   0.369 -0.1905  0.0611  1.0068
14513SOL    HW244225   3.971   1.424   0.434  1.9002  1.5268 -1.6550
14514SOL     OW44226   3.546   4.956   0.380 -0.6898  0.3214  0.7019
14514SOL    HW144227   3.563   4.886   0.443  0.8513 -1.8778 -1.9008
14514SOL    HW244228   3.619   5.016   0.389  0.1034 -0.5603  0.3687
14515SOL     OW44229   5.592   6.278   1.514  0.3880 -0.4799 -0.2994
14515SOL    HW144230   5.508   6.319   1.535  2.0059  1.9713  2.0244
14515SOL    HW244231   5.646   6.349   1.480  1.6612 -1.9413 -1.4896
14516SOL     OW44232   0.757   3.327   1.342 -0.0656 -0.1338  0.0720
14516SOL    HW144233   0.750   3.332   1.438 -1.1428  2.1838 -0.0638
14516SOL    HW244234   0.848   3.353   1.324  0.3448 -1.2342  0.4614
14517SOL     OW44235   3.231   6.901   7.588 -0.1085  0.6163 -0.7963
14517SOL    HW144236   3.281   6.820   7.583  0.2605  0.7638  0.2767
14517SOL    HW244237   3.285   6.959   7.643 -0.7201  1.3278 -0.9306
14518SOL     OW44238   0.896   0.065   2.258  0.1952  0.2595  0.0459
14518SOL    HW144239   0.901  -0.030   2.251 -1.2334  0.1292  0.4848
14518SOL    HW244240   0.933   0.085   2.344  1.6174  0.2397 -0.5314
14519SOL     OW44241   1.822   0.207   6.197  0.7765  0.7634  0.1060
14519SOL    HW144242   1.729   0.202   6.216  0.6970 -0.1399 -0.4617
14519SOL    HW244243   1.833   0.158   6.116  1.7690  0.7226  0.2457
14520SOL     OW44244   3.712   6.395   4.681 -0.9808  0.7212 -0.2389
14520SOL    HW144245   3.787   6.349   4.719 -1.4685 -0.8167 -1.0304
14520SOL    HW244246   3.733   6.488   4.691  0.6113  0.3384  0.3443
14521SOL     OW44247   1.344   0.206   0.166  0.5535 -0.5956 -0.0994
14521SOL    HW144248   1.394   0.275   0.123  0.0226  0.1148  0.3949
14521SOL    HW244249   1.385   0.124   0.137  1.2662 -0.0713 -0.5950
14522SOL     OW44250   3.582   5.940   7.429  0.1812  0.6306 -0.0077
14522SOL    HW144251   3.512   5.875   7.432  1.0139 -0.2682  0.7241
14522SOL    HW244252   3.559   6.003   7.497 -1.0019  1.5325 -1.1950
14523SOL     OW44253   5.508   3.146   0.143  0.7423 -0.0547  0.5840
14523SOL    HW144254   5.563   3.216   0.106  1.0881 -1.4258 -1.6215
14523SOL    HW244255   5.557   3.066   0.126 -0.6004 -1.0422  1.2451
14524SOL     OW44256   7.466   5.173   1.485  0.2631  0.4477  0.3409
14524SOL    HW144257   7.408   5.219   1.546  1.4745  2.1913  0.2547
14524SOL    HW244258   7.492   5.240   1.422  1.2699 -0.6373 -0.4270
14525SOL     OW44259   6.961   6.259   3.678  0.3886 -0.6195 -0.3717
14525SOL    HW144260   6.933   6.279   3.589  0.1342 -1.5252 -0.5013
14525SOL    HW244261   7.030   6.323   3.696 -0.6704  0.6442 -0.6046
14526SOL     OW44262   4.912   7.069   1.825 -0.0156 -0.6981  0.5332
14526SOL    HW144263   4.978   7.123   1.869  0.3020 -1.4113  0.9501
14526SOL    HW244264   4.869   7.128   1.764 -0.5718  0.3637  1.9114
14527SOL     OW44265   7.294   1.685   3.522  0.4123 -0.6123 -0.4473
14527SOL    HW144266   7.320   1.655   3.435  0.0167 -1.2705 -0.3429
14527SOL    HW244267   7.307   1.609   3.579 -0.4854 -0.5594 -0.1577
14528SOL     OW44268   3.946   6.458   0.351 -0.2480  0.0237 -0.5734
14528SOL    HW144269   3.955   6.364   0.333 -0.1668  0.1961 -1.4661
14528SOL    HW244270   4.019   6.478   0.409 -1.1786 -0.7784  0.9614
14529SOL     OW44271   3.583   5.095   7.302  0.2070  0.1829 -0.1978
14529SOL    HW144272   3.645   5.048   7.358 -1.4169 -1.7611  0.0658
14529SOL    HW244273   3.576   5.041   7.223 -1.7508 -0.1032  0.1332
14530SOL     OW44274   7.605   2.888   7.421 -0.8505  0.5133 -0.4468
14530SOL    HW144275   7.536   2.931   7.371 -1.0478  0.7971  0.0624
14530SOL    HW244276   7.615   2.941   7.500 -1.0545 -0.3313  0.1684
14531SOL     OW44277   5.973   4.475   4.564 -0.4343 -0.0377 -0.0142
14531SOL    HW144278   5.965   4.515   4.651 -1.0150 -3.1767  1.5392
14531SOL    HW244279   6.059   4.501   4.533 -0.0696  0.8916  1.6698
14532SOL     OW44280   4.033   7.748   1.111 -0.0575 -0.6659  0.3214
14532SOL    HW144281   4.032   7.668   1.164 -1.1103  0.6324  2.3821
14532SOL    HW244282   3.943   7.758   1.080 -0.1170  0.0883  0.7079
14533SOL     OW44283   5.626   4.737   5.450  0.1672 -0.2751  0.1807
14533SOL    HW144284   5.545   4.780   5.422 -1.0198 -1.0064  2.2440
14533SOL    HW244285   5.649   4.679   5.377 -1.4682 -0.4391 -0.2605
14534SOL     OW44286   0.001   1.498   7.107  0.3216  0.3738  0.4570
14534SOL    HW144287   0.041   1.432   7.049 -0.7893 -1.0243  1.2118
14534SOL    HW244288  -0.088   1.466   7.122 -0.6748  2.7343 -0.1278
14535SOL     OW44289   2.346   1.760   3.169 -0.1161  0.1999  0.8421
14535SOL    HW144290   2.373   1.844   3.205  0.6945  0.4311 -0.2415
14535SOL    HW244291   2.394   1.695   3.221 -0.6046  0.4114  1.5601
14536SOL     OW44292   2.810   7.188   6.843 -0.5193  0.2365  0.2725
14536SOL    HW144293   2.746   7.126   6.808 -2.9397  0.5921  3.6345
14536SOL    HW244294   2.846   7.144   6.920 -0.5310  2.0495  1.3609
14537SOL     OW44295   7.612   3.694   3.823 -0.5046  0.4279 -0.4822
14537SOL    HW144296   7.638   3.775   3.780 -0.9781 -0.1929 -2.0139
14537SOL    HW244297   7.607   3.630   3.752  2.4185 -1.6513  0.9663
14538SOL     OW44298   5.810   3.255   3.024 -0.3267  0.3893  0.3847
14538SOL    HW144299   5.842   3.216   2.942 -0.0091  0.6262  0.3939
14538SOL    HW244300   5.743   3.194   3.055 -1.5309  1.0465 -0.8311
14539SOL     OW44301   5.363   5.963   2.007  0.3834 -0.0641  0.0826
14539SOL    HW144302   5.362   5.970   1.912  0.0623  0.0556  0.0940
14539SOL    HW244303   5.447   5.921   2.027  0.2698 -0.4783 -0.2796
14540SOL     OW44304   1.715   6.106   6.456  0.2268  0.5998  0.4260
14540SOL    HW144305   1.632   6.069   6.487  0.3957 -1.0692 -0.9866
14540SOL    HW244306   1.781   6.073   6.517  0.2078 -0.4334 -0.1001
14541SOL     OW44307   4.105   3.267   7.446 -0.5358  0.1830  0.2999
14541SOL    HW144308   4.091   3.233   7.534 -0.8570 -2.0285 -0.5340
14541SOL    HW244309   4.040   3.222   7.392  0.7700  0.1603 -1.3537
14542SOL     OW44310   4.542   3.545   5.984  0.7465  0.0626 -0.5675
14542SOL    HW144311   4.539   3.641   5.985  0.0085  0.0479 -0.8653
14542SOL    HW244312   4.500   3.521   5.902 -1.6568 -0.5929  0.7633
14543SOL     OW44313   1.062   6.397   6.019 -0.1463  0.2377  0.4102
14543SOL    HW144314   1.029   6.378   5.932 -0.6987 -0.1477  0.6988
14543SOL    HW244315   1.005   6.467   6.052 -1.9501 -1.6690  1.6236
14544SOL     OW44316   2.084   7.276   5.094  0.5592  0.2221 -0.1012
14544SOL    HW144317   2.140   7.211   5.137 -0.8843  0.1678  1.8458
14544SOL    HW244318   2.011   7.288   5.154 -0.1485  2.3106 -1.2692
14545SOL     OW44319   7.695   2.228   6.876  0.5553 -0.3245  0.3650
14545SOL    HW144320   7.644   2.222   6.795  1.7813  1.1626 -0.5642
14545SOL    HW244321   7.629   2.235   6.945 -0.5576 -3.2760 -0.2552
14546SOL     OW44322   0.063   1.707   0.080 -0.4048 -0.4441 -0.3055
14546SOL    HW144323   0.123   1.635   0.102  0.6169  0.1027 -1.1902
14546SOL    HW244324   0.017   1.676   0.002  1.0031  0.3526 -1.4974
14547SOL     OW44325   6.438   3.303   5.142 -0.4656  0.2989 -0.7934
14547SOL    HW144326   6.371   3.348   5.090 -1.2254  0.4381  0.2618
14547SOL    HW244327   6.397   3.220   5.166 -0.6288  0.7578  0.6059
14548SOL     OW44328   5.594   0.829   7.153  0.2559  0.1290  0.2779
14548SOL    HW144329   5.584   0.825   7.058 -0.5109 -0.0086  0.3606
14548SOL    HW244330   5.657   0.759   7.174 -0.7999 -0.9188  0.0316
14549SOL     OW44331   1.199   0.777   6.287 -0.0016 -0.5701  0.6551
14549SOL    HW144332   1.149   0.774   6.369  0.4424 -0.7799  0.9234
14549SOL    HW244333   1.212   0.870   6.270 -1.2870 -0.4800  0.0802
14550SOL     OW44334   4.845   2.818   1.277 -0.3148  0.3699  0.1595
14550SOL    HW144335   4.775   2.755   1.267  1.7306 -2.0896  0.2757
14550SOL    HW244336   4.892   2.816   1.193  0.5336  0.7351  0.6056
14551SOL     OW44337   6.368   5.832   3.126  0.6939 -0.7555 -0.3911
14551SOL    HW144338   6.408   5.897   3.184 -2.1976  1.3067 -0.4959
14551SOL    HW244339   6.319   5.774   3.185 -0.9840  0.4084 -0.5746
14552SOL     OW44340   2.764   1.193   1.903  0.1747  0.4552 -0.4586
14552SOL    HW144341   2.755   1.187   1.998  2.2240  1.1786 -0.1747
14552SOL    HW244342   2.684   1.238   1.874  0.3666  1.9338  1.1454
14553SOL     OW44343   5.469   0.082   1.585  0.6041  0.1771  0.2575
14553SOL    HW144344   5.537   0.020   1.560 -0.0262  0.2344 -1.8422
14553SOL    HW244345   5.458   0.138   1.508  0.3920  2.2408  1.6967
14554SOL     OW44346   0.655   1.389   5.863  0.0165  0.3412  0.6057
14554SOL    HW144347   0.608   1.361   5.784  0.1264  1.3410  0.1762
14554SOL    HW244348   0.697   1.471   5.838  2.4269 -0.7364  0.8220
14555SOL     OW44349   5.094   4.884   3.560 -0.3613 -0.1672  0.4422
14555SOL    HW144350   5.152   4.934   3.502 -1.3838 -2.0556 -2.3854
14555SOL    HW244351   5.016   4.940   3.569  0.2891  0.6683  1.0346
14556SOL     OW44352   4.751   7.573   6.117 -0.6880 -0.3728 -0.0877
14556SOL    HW144353   4.746   7.483   6.084 -1.4808  0.0720 -1.2643
14556SOL    HW244354   4.739   7.627   6.039 -0.8800  0.7534  0.7068
14557SOL     OW44355   5.079   6.471   3.016  0.0781  0.0148  0.7421
14557SOL    HW144356   5.097   6.435   2.929  0.2482  0.4225  0.6013
14557SOL    HW244357   5.018   6.543   3.000 -0.2642 -0.2132  1.0174
14558SOL     OW44358   5.529   0.535   3.116 -0.1302  0.1594  0.0547
14558SOL    HW144359   5.476   0.483   3.176  1.1664 -1.7949 -0.3862
14558SOL    HW244360   5.544   0.478   3.041  1.1015  1.2972 -0.6207
14559SOL     OW44361   5.148   3.615   0.155 -0.3232 -0.1004 -0.0509
14559SOL    HW144362   5.132   3.534   0.203  0.4789 -0.7665 -0.8599
14559SOL    HW244363   5.231   3.599   0.109 -1.5364  0.1033 -2.4476
14560SOL     OW44364   4.813   6.779   2.156  0.5376 -0.2257  0.0051
14560SOL    HW144365   4.730   6.734   2.141  0.6620 -0.4270 -0.0721
14560SOL    HW244366   4.876   6.733   2.100  0.2596  1.2878 -1.6553
14561SOL     OW44367   2.575   5.326   7.006 -0.0833  0.2948 -0.2691
14561SOL    HW144368   2.588   5.369   6.922 -1.8151  0.7264 -0.3535
14561SOL    HW244369   2.549   5.396   7.066  0.1947 -0.1528  0.3928
14562SOL     OW44370   5.627   1.219   1.602  0.2721 -0.3307 -0.4868
14562SOL    HW144371   5.626   1.131   1.639 -3.3351  0.3425  1.4765
14562SOL    HW244372   5.658   1.275   1.674 -1.2530  0.3621 -0.3277
14563SOL     OW44373   2.901   2.593   4.348 -0.2072 -0.3063 -0.3984
14563SOL    HW144374   2.865   2.679   4.372  0.1878 -0.0892 -0.5648
14563SOL    HW244375   2.872   2.579   4.258 -1.7009 -1.1273  0.1800
14564SOL     OW44376   0.590   7.503   3.135  0.0827 -0.3068 -0.9321
14564SOL    HW144377   0.644   7.426   3.121  0.7900 -0.1572  0.8026
14564SOL    HW244378   0.637   7.573   3.089 -0.1582 -0.7340 -1.8523
14565SOL     OW44379   5.749   5.737   6.681  0.2821  0.1094 -0.1926
14565SOL    HW144380   5.812   5.806   6.660  0.3301  0.1325  0.0183
14565SOL    HW244381   5.720   5.758   6.770 -1.0923  0.9055 -0.8082
14566SOL     OW44382   5.870   5.077   2.963 -0.0711 -0.1630  0.4264
14566SOL    HW144383   5.905   5.165   2.946 -1.7794  1.1448  2.9616
14566SOL    HW244384   5.931   5.040   3.027 -0.4897  0.0465  0.9521
14567SOL     OW44385   5.170   5.483   4.870 -0.3621 -0.3852  0.1971
14567SOL    HW144386   5.256   5.457   4.902 -0.7636 -1.6930  0.2763
14567SOL    HW244387   5.134   5.539   4.939  0.0351 -0.6140  0.5961
14568SOL     OW44388   2.105   4.168   6.249  0.4116 -0.0181  0.3635
14568SOL    HW144389   2.128   4.116   6.326 -0.6109  0.2127  0.8336
14568SOL    HW244390   2.030   4.220   6.276 -0.9248 -1.0185 -1.2160
14569SOL     OW44391   1.484   1.539   2.194  0.1321 -0.3005  0.1013
14569SOL    HW144392   1.512   1.601   2.126  0.6552  0.1594  0.7217
14569SOL    HW244393   1.560   1.483   2.208  1.0786  1.3598  2.2560
14570SOL     OW44394   2.771   3.985   7.502  0.1303 -0.0992  0.2560
14570SOL    HW144395   2.718   4.046   7.553 -2.4665 -0.8342 -1.3687
14570SOL    HW244396   2.740   3.898   7.527 -0.5820 -0.5011 -1.7852
14571SOL     OW44397   6.022   2.211   4.883 -0.1832  0.2056 -0.2241
14571SOL    HW144398   6.015   2.292   4.833  0.7001  1.1306  1.0660
14571SOL    HW244399   5.970   2.229   4.962 -1.3336 -1.1178 -0.6423
14572SOL     OW44400   2.064   2.392   5.188  0.3736 -0.1791  0.5288
14572SOL    HW144401   2.063   2.300   5.163  1.3592  0.2338 -1.2455
14572SOL    HW244402   2.007   2.435   5.123  0.4635  0.5418  0.9169
14573SOL     OW44403   6.998   1.321   3.445  0.1415  0.4218  0.2463
14573SOL    HW144404   6.970   1.303   3.535  0.9346  0.2473  0.4627
14573SOL    HW244405   7.086   1.285   3.439 -0.4656 -0.9642 -1.0720
14574SOL     OW44406   5.314   1.972   3.597 -0.3476 -0.0427 -0.2539
14574SOL    HW144407   5.246   1.991   3.533 -1.8871 -0.7824  1.0942
14574SOL    HW244408   5.292   2.026   3.673  2.4990  2.2830 -0.8887
14575SOL     OW44409   5.711   5.601   1.707 -0.2902  0.2724  0.1103
14575SOL    HW144410   5.654   5.524   1.699 -1.2668  1.0429 -0.5373
14575SOL    HW244411   5.771   5.594   1.632 -2.0175  1.4256 -1.4879
14576SOL     OW44412   7.727   4.152   3.754  0.3495 -0.5305 -0.1492
14576SOL    HW144413   7.768   4.221   3.805 -0.2762 -1.0076  1.0442
14576SOL    HW244414   7.650   4.193   3.716  0.5218 -0.3099 -0.2574
14577SOL     OW44415   0.591   6.938   3.513 -0.2286  0.5746  0.0248
14577SOL    HW144416   0.587   6.920   3.419  0.8018  0.8755 -0.0858
14577SOL    HW244417   0.677   6.905   3.540 -0.9871 -0.5969  1.1062
14578SOL     OW44418   2.728   0.641   0.982 -0.2314  0.3186 -0.2257
14578SOL    HW144419   2.695   0.677   1.065 -0.2218  2.1670 -0.9706
14578SOL    HW244420   2.706   0.708   0.917  0.2567 -0.8414 -1.6351
14579SOL     OW44421   3.873   0.418   4.037  0.4893  0.5063 -0.2307
14579SOL    HW144422   3.871   0.458   4.124  0.6671 -0.4909  0.2480
14579SOL    HW244423   3.923   0.337   4.049  2.3567  1.3496 -1.6907
14580SOL     OW44424   1.740   5.244   3.471  0.0147 -0.3709 -0.3483
14580SOL    HW144425   1.674   5.175   3.483  0.8691 -1.2861 -0.7616
14580SOL    HW244426   1.711   5.315   3.528 -2.2967 -0.0167 -1.8160
14581SOL     OW44427   6.471   3.400   2.734 -0.5439 -0.2346  0.9235
14581SOL    HW144428   6.517   3.381   2.652  1.2485  0.8161  1.6290
14581SOL    HW244429   6.496   3.328   2.792  1.3009  0.9251  1.6785
14582SOL     OW44430   7.663   1.968   4.955 -0.6087 -0.1521 -0.0650
14582SOL    HW144431   7.720   1.974   5.032 -0.8046 -1.5123  0.2011
14582SOL    HW244432   7.658   2.058   4.923  0.9780  0.1354  0.4163
14583SOL     OW44433   6.250   5.596   2.732  0.0360  0.3734  0.3669
14583SOL    HW144434   6.300   5.625   2.655 -0.1543  0.0014  0.1039
14583SOL    HW244435   6.255   5.670   2.792 -1.5131  1.4716 -0.7910
14584SOL     OW44436   2.954   1.864   4.534  0.7067 -0.6092 -0.1561
14584SOL    HW144437   2.900   1.919   4.593 -1.2926 -2.1637 -0.4354
14584SOL    HW244438   3.040   1.864   4.575 -0.8167 -2.5392  3.5706
14585SOL     OW44439   6.584   2.961   0.889  0.2491 -0.3567  0.3010
14585SOL    HW144440   6.504   2.914   0.913 -0.5850  0.8918  0.0573
14585SOL    HW244441   6.566   3.052   0.911  1.8332 -0.1283  0.7755
14586SOL     OW44442   6.572   7.060   2.131 -0.4459  0.0006 -0.1731
14586SOL    HW144443   6.508   7.113   2.179 -0.8973 -0.4956 -0.2158
14586SOL    HW244444   6.657   7.099   2.152 -0.8460  1.4165 -1.0527
14587SOL     OW44445   2.528   4.297   4.343 -0.0728 -0.0188  0.3110
14587SOL    HW144446   2.551   4.204   4.339 -1.0964 -0.4240  2.5690
14587SOL    HW244447   2.434   4.299   4.325 -0.1654  0.5094  0.8221
14588SOL     OW44448   5.770   2.440   3.836 -0.3273 -0.4613  0.0752
14588SOL    HW144449   5.689   2.485   3.861  0.1850 -0.9859  3.0197
14588SOL    HW244450   5.760   2.352   3.871  1.4878 -0.5433  0.4844
14589SOL     OW44451   5.108   3.676   6.079 -0.1870  0.4012  0.0106
14589SOL    HW144452   5.048   3.661   6.006 -0.1882  0.3515  0.0220
14589SOL    HW244453   5.181   3.724   6.040 -0.6272  1.2088  0.1687
14590SOL     OW44454   5.122   5.218   5.892  0.1595 -0.5238 -0.0307
14590SOL    HW144455   5.077   5.218   5.807  2.1892 -1.3084 -1.1920
14590SOL    HW244456   5.122   5.309   5.920 -2.5864 -0.5606  0.3311
14591SOL     OW44457   6.401   6.836   6.897  0.2786  0.4175 -0.1412
14591SOL    HW144458   6.313   6.812   6.867  0.1119 -0.5932  1.0799
14591SOL    HW244459   6.410   6.929   6.874 -1.3718  0.7210  0.3016
14592SOL     OW44460   2.032   0.527   5.473 -0.0475  0.2312  0.3361
14592SOL    HW144461   2.002   0.494   5.558 -1.1656 -0.1822 -0.1986
14592SOL    HW244462   2.118   0.487   5.460  0.5005  0.9420  1.6325
14593SOL     OW44463   6.226   0.846   1.969  0.3923  0.4847  0.0581
14593SOL    HW144464   6.175   0.802   1.901 -0.0899  0.8221  0.2012
14593SOL    HW244465   6.270   0.774   2.015 -0.7680  0.0918  0.5968
14594SOL     OW44466   1.908   7.424   6.374 -0.5915 -0.0394  0.1824
14594SOL    HW144467   1.942   7.485   6.308 -0.9779  0.5094  0.4863
14594SOL    HW244468   1.839   7.376   6.328 -0.6179  0.0930  0.0822
14595SOL     OW44469   0.151   4.950   4.638 -0.1165  0.4794  0.0926
14595SOL    HW144470   0.178   4.944   4.546  1.3956 -1.5556  0.5897
14595SOL    HW244471   0.153   4.859   4.670 -3.0455  0.7914  1.5325
14596SOL     OW44472   0.791   0.993   6.544  0.7506  0.2448 -0.5308
14596SOL    HW144473   0.837   1.040   6.474 -0.1155 -0.3127 -1.4999
14596SOL    HW244474   0.792   0.901   6.516  2.2162 -0.3327  1.2189
14597SOL     OW44475   0.853   4.248   0.067 -0.0538  0.0444 -0.2027
14597SOL    HW144476   0.931   4.194   0.053 -0.1161 -0.3188  0.7596
14597SOL    HW244477   0.884   4.338   0.060  0.2566 -0.1091 -0.8057
14598SOL     OW44478   4.707   4.740   4.242  0.0318 -0.3355  0.2466
14598SOL    HW144479   4.729   4.832   4.231  1.7470 -0.4087  2.3081
14598SOL    HW244480   4.790   4.694   4.232 -0.7261 -1.6393 -0.3403
14599SOL     OW44481   3.994   5.930   4.449 -0.2453  0.3593 -0.1393
14599SOL    HW144482   4.059   5.999   4.434 -0.5531  1.0904  1.6637
14599SOL    HW244483   3.989   5.883   4.365  0.0464  2.4499 -1.3963
14600SOL     OW44484   7.738   0.042   4.589 -0.0478  0.0791 -0.3903
14600SOL    HW144485   7.716   0.103   4.659 -0.0622 -0.7748  0.3821
14600SOL    HW244486   7.665  -0.021   4.589  0.4974 -0.5687 -0.3995
14601SOL     OW44487   6.561   6.537   6.619 -0.0161 -0.5239  0.0064
14601SOL    HW144488   6.488   6.544   6.557 -0.0206 -1.0204 -0.0516
14601SOL    HW244489   6.626   6.484   6.572 -0.0002 -0.8635  0.4106
14602SOL     OW44490   2.496   1.589   5.498  0.2065  0.0866  0.2065
14602SOL    HW144491   2.470   1.527   5.566  0.8042  1.6323  1.9189
14602SOL    HW244492   2.588   1.566   5.479 -0.5963 -1.7974 -1.8116
14603SOL     OW44493   7.082   3.789   1.016 -0.1425  0.3820  0.2121
14603SOL    HW144494   6.999   3.834   0.998 -0.0122  1.1079  1.2954
14603SOL    HW244495   7.057   3.706   1.055 -0.3655  0.0878 -0.5358
14604SOL     OW44496   1.591   4.175   3.509 -0.1495  0.1884 -0.1801
14604SOL    HW144497   1.554   4.232   3.442  0.9045 -0.7761 -1.6483
14604SOL    HW244498   1.585   4.227   3.590 -1.6805  1.2896 -0.9343
14605SOL     OW44499   5.565   0.073   1.182  0.3298 -0.0203  0.2088
14605SOL    HW144500   5.589   0.002   1.242 -2.3926 -0.1036  1.3607
14605SOL    HW244501   5.558   0.150   1.237  1.1801  0.7086 -0.6674
14606SOL     OW44502   4.852   2.219   2.919  0.0894  0.4737 -0.0978
14606SOL    HW144503   4.844   2.148   2.983 -0.1131  0.7046  0.1332
14606SOL    HW244504   4.946   2.236   2.914  0.0030  1.5278  1.3167
14607SOL     OW44505   2.376   1.996   6.986  0.1756 -0.4477 -0.1107
14607SOL    HW144506   2.291   1.962   7.011 -0.5949  1.0627 -0.6107
14607SOL    HW244507   2.438   1.951   7.044 -0.8319 -2.2064 -0.3094
14608SOL     OW44508   0.967   4.992   2.522  0.3023  0.0187  0.1818
14608SOL    HW144509   0.964   4.996   2.426  1.1041  0.7961  0.1660
14608SOL    HW244510   0.933   4.905   2.544  0.5524 -0.3560 -0.8372
14609SOL     OW44511   2.585   2.220   0.167  0.2595 -1.0013 -0.1882
14609SOL    HW144512   2.643   2.163   0.217  0.5855 -0.2766  0.2839
14609SOL    HW244513   2.581   2.301   0.219  0.9061 -0.0852 -1.4872
14610SOL     OW44514   0.687   4.016   0.489 -0.2489  0.0782 -0.5731
14610SOL    HW144515   0.651   4.057   0.410  0.6153  2.8949  0.3560
14610SOL    HW244516   0.780   4.039   0.487 -0.0277 -0.6133  0.7787
14611SOL     OW44517   3.083   7.126   6.130 -0.2717 -0.0207 -0.0864
14611SOL    HW144518   3.034   7.131   6.048  0.1769  0.3045 -0.3413
14611SOL    HW244519   3.039   7.058   6.180 -1.3188  0.6573 -0.0664
14612SOL     OW44520   7.487   6.708   3.262 -0.7927  0.3539  0.1616
14612SOL    HW144521   7.436   6.788   3.271  0.1746  1.0176 -0.0911
14612SOL    HW244522   7.426   6.645   3.223 -1.6246  0.8903  0.5715
14613SOL     OW44523   4.653   1.527   6.036 -0.6020 -0.1338  0.2339
14613SOL    HW144524   4.656   1.622   6.023 -1.1363 -0.3092 -1.3542
14613SOL    HW244525   4.686   1.490   5.954 -3.3027 -1.3394 -0.4069
14614SOL     OW44526   5.156   1.051   7.559  0.6332  0.1709 -0.1460
14614SOL    HW144527   5.131   1.120   7.621  1.7166  0.7289 -0.3160
14614SOL    HW244528   5.244   1.075   7.531  0.2371 -0.1766 -1.7629
14615SOL     OW44529   1.952   1.318   7.269  0.2991  0.1054  0.0120
14615SOL    HW144530   2.019   1.339   7.204  0.0193 -2.7676 -1.3873
14615SOL    HW244531   2.001   1.277   7.341  0.3556  1.1341  0.5789
14616SOL     OW44532   6.394   6.466   1.659  0.1666  0.4959 -0.0072
14616SOL    HW144533   6.305   6.469   1.694  0.0156  4.2525 -0.3295
14616SOL    HW244534   6.442   6.412   1.722 -1.9650 -0.3301  1.0159
14617SOL     OW44535   4.908   7.356   5.089 -0.0468  0.1794 -0.7170
14617SOL    HW144536   4.979   7.295   5.108 -0.0265 -0.8179 -3.4621
14617SOL    HW244537   4.928   7.388   5.001 -0.6507  3.3931  0.2098
14618SOL     OW44538   1.289   4.582   1.232  0.2429 -0.4717  0.8899
14618SOL    HW144539   1.230   4.572   1.158  0.5657 -0.3150  0.6111
14618SOL    HW244540   1.298   4.676   1.243  2.0554 -0.4537 -0.3735
14619SOL     OW44541   0.256   5.575   2.912  0.2148  0.3938  0.0303
14619SOL    HW144542   0.349   5.567   2.933 -0.0861 -0.3798  1.2077
14619SOL    HW244543   0.235   5.494   2.865 -0.2076 -0.2540  1.2765
14620SOL     OW44544   4.261   3.720   6.500 -1.0260  0.1860 -0.2074
14620SOL    HW144545   4.251   3.810   6.529 -1.0713  0.0825  0.1040
14620SOL    HW244546   4.331   3.723   6.435  0.5124  0.1161  1.3886
14621SOL     OW44547   5.824   4.161   0.001 -0.6301 -0.1293 -0.2518
14621SOL    HW144548   5.748   4.206   0.039  1.3638  1.6036  2.0759
14621SOL    HW244549   5.827   4.191  -0.089 -2.0275  0.7029 -0.0604
14622SOL     OW44550   1.451   2.840   1.415 -0.3621  0.0164  0.3234
14622SOL    HW144551   1.422   2.860   1.504 -3.6315  1.5862 -0.9394
14622SOL    HW244552   1.370   2.817   1.368  1.4233 -2.2822 -1.9378
14623SOL     OW44553   3.175   2.310   0.591 -0.3667 -0.0531  0.3018
14623SOL    HW144554   3.172   2.284   0.683 -0.7027  1.5592  0.7692
14623SOL    HW244555   3.264   2.342   0.578 -0.9784  1.9304  0.7302
14624SOL     OW44556   4.520   2.770   4.600  0.1966  0.0841  0.5482
14624SOL    HW144557   4.522   2.709   4.526  1.0479 -1.8171  2.0305
14624SOL    HW244558   4.610   2.767   4.635 -0.3507  0.3864  2.0466
14625SOL     OW44559   0.535   5.111   4.352 -0.3556 -0.2507  0.4197
14625SOL    HW144560   0.542   5.018   4.376 -1.2237 -0.3375  0.3751
14625SOL    HW244561   0.441   5.125   4.337 -0.0415  0.1730 -1.4432
14626SOL     OW44562   4.868   5.423   6.064 -0.3784  0.5651 -0.0345
14626SOL    HW144563   4.836   5.509   6.037  1.1154  1.0167 -0.5073
14626SOL    HW244564   4.792   5.366   6.059 -1.0689  1.5287 -1.2681
14627SOL     OW44565   0.851   3.411   5.757  0.0751 -0.0161  0.4365
14627SOL    HW144566   0.802   3.395   5.677 -1.2023  0.2474  1.1417
14627SOL    HW244567   0.901   3.330   5.771  0.2708 -0.0767 -0.5838
14628SOL     OW44568   0.091   6.773   7.156 -0.5344  0.3656 -0.5106
14628SOL    HW144569   0.138   6.696   7.125 -0.2900  0.3988 -0.2289
14628SOL    HW244570   0.053   6.747   7.240  0.2030  0.7788 -0.0292
14629SOL     OW44571   6.859   2.241   1.126  0.1718 -0.1425 -0.0993
14629SOL    HW144572   6.770   2.206   1.116  0.2570 -0.4650  0.2568
14629SOL    HW244573   6.845   2.330   1.159 -0.0450  0.1914 -1.0657
14630SOL     OW44574   2.003   6.469   5.046  0.3640 -0.3472 -0.0300
14630SOL    HW144575   2.021   6.380   5.018  0.0997 -0.5374  0.3935
14630SOL    HW244576   1.952   6.459   5.127 -1.9112  0.1410 -1.3011
14631SOL     OW44577   3.623   2.920   1.615 -0.2223  0.5298 -0.1918
14631SOL    HW144578   3.711   2.886   1.596 -0.8897 -0.9049 -0.8304
14631SOL    HW244579   3.638   3.010   1.644  1.2919  1.1444 -2.5781
14632SOL     OW44580   3.015   4.824   5.055 -0.7266 -0.0902 -0.0273
14632SOL    HW144581   3.077   4.868   5.113  1.0157 -0.6501 -1.3834
14632SOL    HW244582   2.979   4.752   5.107 -0.3561  0.3227  0.8148
14633SOL     OW44583   1.843   1.467   2.926  0.4475  0.0252  0.2702
14633SOL    HW144584   1.929   1.493   2.959  0.8368 -0.9969  0.1047
14633SOL    HW244585   1.849   1.372   2.916 -0.1602  0.1126 -1.2771
14634SOL     OW44586   4.235   2.961   4.285  0.3965  0.5483  0.0628
14634SOL    HW144587   4.183   2.915   4.351 -2.2295  1.8968 -0.8981
14634SOL    HW244588   4.213   2.918   4.202  2.2028  0.0552 -0.1884
14635SOL     OW44589   7.295   4.113   0.007 -0.3628  0.1498 -0.2844
14635SOL    HW144590   7.262   4.203  -0.004 -1.4196 -0.0987  0.6516
14635SOL    HW244591   7.323   4.109   0.099 -0.8038 -0.6254 -0.1813
14636SOL     OW44592   2.654   5.722   0.841 -0.5562 -0.2276 -0.0572
14636SOL    HW144593   2.724   5.786   0.852  0.2527 -1.0158 -0.5041
14636SOL    HW244594   2.699   5.641   0.817 -1.6847 -0.4540 -1.5800
14637SOL     OW44595   1.173   3.143   0.478 -0.2553 -0.2620 -0.3589
14637SOL    HW144596   1.253   3.188   0.505 -0.1689 -0.9480  0.5808
14637SOL    HW244597   1.140   3.102   0.559 -0.4363 -1.7036 -1.1285
14638SOL     OW44598   7.182   1.660   2.937 -0.1988  0.2852  0.1398
14638SOL    HW144599   7.114   1.604   2.899 -0.5231  0.8376 -0.1079
14638SOL    HW244600   7.263   1.629   2.897 -0.4557  0.4120 -0.4967
14639SOL     OW44601   4.241   7.548   5.485 -0.0814  0.3699  0.3226
14639SOL    HW144602   4.302   7.536   5.558 -0.1480 -0.3326  0.2768
14639SOL    HW244603   4.291   7.593   5.418 -1.0423  4.6018  2.1475
14640SOL     OW44604   6.513   3.365   3.876 -0.0899  0.0150  0.3680
14640SOL    HW144605   6.535   3.444   3.925 -0.0537 -1.3825  2.8137
14640SOL    HW244606   6.419   3.373   3.859 -0.9922 -0.9362  3.9591
14641SOL     OW44607   1.819   6.350   7.343  0.1526 -0.5725  0.4595
14641SOL    HW144608   1.726   6.329   7.349  0.5763 -2.3752  1.0303
14641SOL    HW244609   1.849   6.304   7.265  0.6291 -0.2192  0.4299
14642SOL     OW44610   2.484   6.961   6.073 -0.2483  0.3376 -0.1775
14642SOL    HW144611   2.536   6.882   6.089 -0.9104 -0.1825 -0.5705
14642SOL    HW244612   2.401   6.929   6.039 -0.8469  1.1669  0.4698
14643SOL     OW44613   4.317   7.492   0.778 -0.3127 -0.1500  0.4002
14643SOL    HW144614   4.312   7.407   0.823  1.5165 -0.7153 -0.3638
14643SOL    HW244615   4.362   7.549   0.839  2.0294 -0.8745 -0.5473
14644SOL     OW44616   1.761   2.153   0.880  0.4391 -0.6320  0.5108
14644SOL    HW144617   1.698   2.170   0.950 -2.2903 -1.4895 -1.5688
14644SOL    HW244618   1.793   2.065   0.899 -1.5486 -1.5544 -0.1018
14645SOL     OW44619   2.657   6.420   6.069  0.1374  0.3375  0.0181
14645SOL    HW144620   2.584   6.386   6.017  0.1752  0.4444 -0.1063
14645SOL    HW244621   2.710   6.469   6.006 -0.5661  1.6694  0.4297
14646SOL     OW44622   6.718   3.452   2.250 -0.0428  0.1293  0.1270
14646SOL    HW144623   6.788   3.390   2.230 -1.8851 -2.2102  0.5074
14646SOL    HW244624   6.727   3.469   2.344 -1.1768 -1.8756  0.6563
14647SOL     OW44625   3.895   1.961   1.431 -0.1295 -0.4678  0.2110
14647SOL    HW144626   3.826   1.903   1.399  0.3308  0.0264 -1.8912
14647SOL    HW244627   3.976   1.922   1.397  0.5098 -0.3532  1.5596
14648SOL     OW44628   7.284   2.765   2.550  0.0229  0.4121 -0.2370
14648SOL    HW144629   7.335   2.684   2.550 -0.4688  0.0987  0.0667
14648SOL    HW244630   7.199   2.740   2.586 -0.6429  0.7487 -1.5150
14649SOL     OW44631   4.137   0.457   6.409  0.4634 -0.4626 -0.5249
14649SOL    HW144632   4.064   0.450   6.471 -0.0740  0.8234 -0.9779
14649SOL    HW244633   4.177   0.371   6.410 -0.0560 -0.7184  0.9788
14650SOL     OW44634   3.533   6.006   7.720  0.2290 -0.0194 -0.0818
14650SOL    HW144635   3.560   5.961   7.801  0.7583 -0.3621 -0.4403
14650SOL    HW244636   3.450   6.047   7.742  1.2533  1.4600  1.2117
14651SOL     OW44637   7.759   3.867   0.113  0.1675 -0.4783 -0.3467
14651SOL    HW144638   7.731   3.856   0.022  1.3972 -0.6521 -0.7242
14651SOL    HW244639   7.697   3.814   0.163 -0.8128 -0.0062 -1.0202
14652SOL     OW44640   2.516   6.236   0.223  0.2909  0.0026 -0.0455
14652SOL    HW144641   2.568   6.271   0.151  0.0521 -0.0899 -0.2682
14652SOL    HW244642   2.580   6.206   0.287  0.5504  2.9104  1.2203
14653SOL     OW44643   5.626   4.565   1.705  0.0441 -0.3623  1.0470
14653SOL    HW144644   5.632   4.471   1.688 -1.9236 -0.3279 -0.1854
14653SOL    HW244645   5.701   4.603   1.660 -0.6537 -1.1031 -0.8193
14654SOL     OW44646   1.019   6.982   4.554  0.4894 -0.0581  0.5010
14654SOL    HW144647   1.025   6.903   4.607  2.8139 -1.1852 -1.2462
14654SOL    HW244648   1.082   7.042   4.594  0.1690  0.1771  0.6589
14655SOL     OW44649   1.074   3.864   4.123 -0.1183 -0.0403 -0.5867
14655SOL    HW144650   1.011   3.936   4.118 -1.0492 -0.8678 -1.1332
14655SOL    HW244651   1.089   3.837   4.033  0.9181  0.0395 -0.4532
14656SOL     OW44652   0.245   3.411   1.883 -0.1624  0.3320 -0.0793
14656SOL    HW144653   0.272   3.346   1.818  0.6102  1.8044 -1.3025
14656SOL    HW244654   0.279   3.378   1.966 -0.2583 -1.0796 -0.5762
14657SOL     OW44655   3.651   2.294   3.201  0.5908 -0.4853  0.3675
14657SOL    HW144656   3.651   2.259   3.290  0.0524 -0.3326  0.4355
14657SOL    HW244657   3.564   2.334   3.192 -0.4955 -2.9413 -1.1928
14658SOL     OW44658   2.664   7.625   2.223  0.2078  0.1538  0.6798
14658SOL    HW144659   2.683   7.534   2.245  0.6821  0.2771  0.7761
14658SOL    HW244660   2.596   7.651   2.285  0.2127 -0.0733  0.7795
14659SOL     OW44661   0.188   2.024   3.990  0.2974  0.0361  0.2317
14659SOL    HW144662   0.102   1.984   4.003  0.3425  0.1584  0.9125
14659SOL    HW244663   0.248   1.949   3.984  0.3910 -0.0137  1.5723
14660SOL     OW44664   0.324   2.857   2.466 -0.2953 -0.3322 -0.2598
14660SOL    HW144665   0.281   2.891   2.545 -0.2071  0.1044 -0.3980
14660SOL    HW244666   0.272   2.892   2.394  0.9753  1.2077 -0.4837
14661SOL     OW44667   4.051   7.560   0.871  0.1521 -0.5549  0.2213
14661SOL    HW144668   4.084   7.603   0.950 -1.5140 -0.3599  0.8402
14661SOL    HW244669   4.124   7.567   0.809  1.0329  0.4442  1.3069
14662SOL     OW44670   0.883   6.316   4.371 -0.6473  0.6560 -0.3595
14662SOL    HW144671   0.914   6.281   4.287 -0.1842  3.4968 -1.5105
14662SOL    HW244672   0.933   6.269   4.437 -0.3038 -0.9817 -1.7080
14663SOL     OW44673   4.824   5.509   4.118  0.3569 -0.1209 -0.5302
14663SOL    HW144674   4.731   5.518   4.096  0.4876  0.7636 -0.7724
14663SOL    HW244675   4.836   5.416   4.136 -0.8632 -0.0539  0.8058
14664SOL     OW44676   6.077   1.645   3.526  0.5217  0.1404  0.0842
14664SOL    HW144677   6.105   1.682   3.442  1.0317 -1.3323 -0.4152
14664SOL    HW244678   6.068   1.551   3.510 -1.7827  0.1321  1.0357
14665SOL     OW44679   2.989   7.466   4.076  0.1954  0.4091 -0.0953
14665SOL    HW144680   3.021   7.469   3.986  1.2869  0.4429  0.2756
14665SOL    HW244681   2.928   7.540   4.082  0.1151  0.4056 -0.8000
14666SOL     OW44682   7.473   5.457   0.269  0.7341  0.3574  0.3147
14666SOL    HW144683   7.421   5.421   0.197  1.0945 -1.5956  0.9719
14666SOL    HW244684   7.411   5.510   0.319  0.7858  2.9691 -2.1309
14667SOL     OW44685   2.983   5.576   7.374 -0.2604  0.0446 -0.1156
14667SOL    HW144686   2.943   5.618   7.298  0.1825 -0.0699 -0.4183
14667SOL    HW244687   2.912   5.524   7.413 -0.6852  0.6974 -0.0079
14668SOL     OW44688   4.406   1.624   3.227  0.6266 -0.0188 -0.2607
14668SOL    HW144689   4.499   1.614   3.209  0.9838  0.5671  1.1416
14668SOL    HW244690   4.385   1.553   3.287 -0.0139 -0.5690 -1.1040
14669SOL     OW44691   6.284   3.585   2.773  0.3808 -0.0706 -0.5327
14669SOL    HW144692   6.325   3.650   2.830 -1.8813  1.3709 -0.4232
14669SOL    HW244693   6.347   3.513   2.769  2.1753  1.3296  0.8418
14670SOL     OW44694   4.311   1.413   4.499  0.0424 -0.1628 -0.2984
14670SOL    HW144695   4.285   1.462   4.577  2.1732  2.4333 -1.0645
14670SOL    HW244696   4.380   1.354   4.529 -2.1795 -2.4762  0.5318
14671SOL     OW44697   1.338   6.743   1.595  0.3669 -0.0383  0.2629
14671SOL    HW144698   1.275   6.742   1.667 -1.4848 -1.4907 -1.2539
14671SOL    HW244699   1.381   6.658   1.599 -0.2393 -0.4092 -0.7002
14672SOL     OW44700   0.231   2.109   5.643  0.0492 -0.0849  0.1680
14672SOL    HW144701   0.182   2.156   5.711  0.7264  0.9834 -0.0581
14672SOL    HW244702   0.224   2.017   5.668  0.9343  0.3216  2.1447
14673SOL     OW44703   3.063   2.129   5.335  0.2227 -0.3788  0.1962
14673SOL    HW144704   2.983   2.116   5.386  0.0923 -1.3475 -0.2357
14673SOL    HW244705   3.133   2.105   5.395  0.0387 -2.1976 -0.2354
14674SOL     OW44706   3.642   4.815   2.358 -0.4507 -0.1749  0.2511
14674SOL    HW144707   3.581   4.782   2.292 -0.4423  1.1493 -0.4557
14674SOL    HW244708   3.685   4.737   2.393 -0.7758 -0.9401 -1.0030
14675SOL     OW44709   6.531   2.053   6.839  0.0858 -0.2276  0.0197
14675SOL    HW144710   6.458   2.007   6.798 -0.4661  0.2559  0.4455
14675SOL    HW244711   6.580   2.090   6.765  0.4273 -1.3097 -0.3198
14676SOL     OW44712   4.942   2.399   1.006 -0.0133  0.1547  0.2119
14676SOL    HW144713   4.927   2.311   1.041  0.7824  0.0753  0.3691
14676SOL    HW244714   4.927   2.391   0.912  1.4782 -0.5039 -0.0007
14677SOL     OW44715   3.699   2.528   6.080  0.2901  0.6327  0.1328
14677SOL    HW144716   3.734   2.562   5.998  0.6011  1.8183  0.7430
14677SOL    HW244717   3.674   2.437   6.060  1.2776  0.5973 -0.9917
14678SOL     OW44718   7.457   6.118   3.074  0.5722 -0.5695 -0.0844
14678SOL    HW144719   7.466   6.045   3.135 -0.3101 -1.6914 -1.2340
14678SOL    HW244720   7.431   6.192   3.129  1.5246 -1.0957  1.1112
14679SOL     OW44721   2.153   0.943   6.189 -0.3756  0.1504 -0.2808
14679SOL    HW144722   2.122   0.925   6.100  0.0628  0.4538 -0.5032
14679SOL    HW244723   2.177   1.036   6.188 -2.0927  0.6439  0.6922
14680SOL     OW44724   5.712   1.239   4.229 -0.5435 -0.2363 -0.0367
14680SOL    HW144725   5.704   1.327   4.266 -0.8875  0.2378 -1.2064
14680SOL    HW244726   5.648   1.238   4.158  0.5716 -0.9062 -1.0376
14681SOL     OW44727   2.835   2.030   2.884 -0.1756  0.3542  0.3416
14681SOL    HW144728   2.914   2.025   2.939 -0.5680 -0.3312  0.8553
14681SOL    HW244729   2.764   2.049   2.946 -0.3018  1.8671 -0.2240
14682SOL     OW44730   4.572   2.438   1.108 -0.6623 -0.3587  0.4640
14682SOL    HW144731   4.596   2.519   1.152  0.7758 -0.7673  0.5102
14682SOL    HW244732   4.503   2.463   1.047  0.5363  1.1528 -0.3522
14683SOL     OW44733   0.731   2.369   2.149  0.0567  0.1054 -0.1261
14683SOL    HW144734   0.702   2.280   2.131  2.0067 -0.3222 -1.3916
14683SOL    HW244735   0.715   2.381   2.243  0.2525 -1.7829  0.1813
14684SOL     OW44736   6.571   3.681   3.341 -0.3873  0.1580 -0.1766
14684SOL    HW144737   6.569   3.771   3.310 -0.6925  1.0927  2.3014
14684SOL    HW244738   6.654   3.646   3.309 -0.0309  1.4848 -0.7763
14685SOL     OW44739   0.768   0.772   5.630 -0.0903 -0.3164  0.5657
14685SOL    HW144740   0.747   0.854   5.584  2.0800 -0.7642 -1.4198
14685SOL    HW244741   0.755   0.792   5.722 -1.8057  1.5505  0.0006
14686SOL     OW44742   6.943   1.775   2.453  0.0887 -0.8826  0.0245
14686SOL    HW144743   7.018   1.752   2.398  1.2051  0.9742  0.6739
14686SOL    HW244744   6.982   1.819   2.529 -1.6608 -0.0804  0.5083
14687SOL     OW44745   7.481   7.409   3.926 -0.1062 -0.2703  0.4344
14687SOL    HW144746   7.437   7.324   3.933 -1.4502  0.3720  0.0006
14687SOL    HW244747   7.564   7.389   3.883  0.7434 -1.7234  2.5548
14688SOL     OW44748   3.764   7.152   2.524  0.5100 -0.1991  0.0861
14688SOL    HW144749   3.819   7.223   2.558  0.2141  0.0671  0.0130
14688SOL    HW244750   3.784   7.149   2.430 -0.4263  0.6541 -0.1578
14689SOL     OW44751   6.586   5.462   5.682  0.0583  0.0640  0.0599
14689SOL    HW144752   6.496   5.429   5.673  0.1812 -0.2815  0.0804
14689SOL    HW244753   6.578   5.538   5.739 -0.2695  0.2423 -0.2173
14690SOL     OW44754   2.757   5.453   4.707  0.2745 -0.1389 -0.5851
14690SOL    HW144755   2.777   5.510   4.782  0.6626 -1.4172  0.3151
14690SOL    HW244756   2.827   5.470   4.645  0.6949 -0.0221 -0.0884
14691SOL     OW44757   1.118   1.405   0.149 -0.1709 -0.1613  0.8101
14691SOL    HW144758   1.200   1.440   0.115 -0.8498 -1.1529 -2.1663
14691SOL    HW244759   1.052   1.472   0.129 -0.8821 -1.4882 -1.7204
14692SOL     OW44760   7.115   3.985   6.423 -0.0996  0.3947 -0.2363
14692SOL    HW144761   7.083   4.060   6.373  0.2770  1.1649  0.6382
14692SOL    HW244762   7.199   4.013   6.458 -1.2028  0.6930  2.4702
14693SOL     OW44763   0.728   4.358   6.232  0.8474  0.4117 -0.0364
14693SOL    HW144764   0.664   4.314   6.288 -0.4319  1.6121 -0.5115
14693SOL    HW244765   0.805   4.301   6.235 -0.7672 -2.0007 -0.7748
14694SOL     OW44766   3.840   0.479   1.008  0.6221  0.1776  0.3834
14694SOL    HW144767   3.757   0.490   1.055 -0.8863  1.5163 -2.3828
14694SOL    HW244768   3.861   0.566   0.976  2.6521 -0.3181  0.2357
14695SOL     OW44769   0.746   1.383   1.380 -0.1278 -0.1507 -0.3263
14695SOL    HW144770   0.750   1.301   1.428  1.9367  0.6369  0.9882
14695SOL    HW244771   0.765   1.360   1.290  1.3327 -1.0240  0.1803
14696SOL     OW44772   3.230   3.597   2.432 -0.4712  0.2712  0.3716
14696SOL    HW144773   3.228   3.574   2.525  0.5668  1.2747  0.6631
14696SOL    HW244774   3.140   3.585   2.403 -0.3460 -2.5611  0.8532
14697SOL     OW44775   2.770   2.202   0.804  0.4416 -0.3218 -0.1751
14697SOL    HW144776   2.837   2.241   0.860  0.7971 -0.6680 -0.3512
14697SOL    HW244777   2.819   2.168   0.729 -0.1353  0.9896 -1.1767
14698SOL     OW44778   5.856   2.794   1.240  0.0577  0.1360  0.1129
14698SOL    HW144779   5.853   2.750   1.155  1.2456  1.1749 -0.4980
14698SOL    HW244780   5.775   2.767   1.284 -0.4355 -0.6496 -1.2265
14699SOL     OW44781   6.530   2.824   7.512  0.6963 -0.2311  0.2559
14699SOL    HW144782   6.471   2.842   7.585 -0.2427 -1.3436 -0.2129
14699SOL    HW244783   6.591   2.758   7.545  0.7514 -0.1760  0.2656
14700SOL     OW44784   3.472   4.474   3.469 -0.0160 -0.7158 -0.2906
14700SOL    HW144785   3.498   4.453   3.380  2.0050 -1.1116  0.3404
14700SOL    HW244786   3.493   4.567   3.480  2.7284 -1.3601  0.6639
14701SOL     OW44787   7.645   0.891   5.334 -0.5606 -0.2150  0.0361
14701SOL    HW144788   7.652   0.809   5.285 -0.9617  0.0977 -0.5630
14701SOL    HW244789   7.552   0.913   5.329 -0.3901  0.4759 -0.1475
14702SOL     OW44790   0.997   2.792   3.375 -0.0824 -0.3814  0.0659
14702SOL    HW144791   1.027   2.857   3.311 -0.5597  0.1322  0.3598
14702SOL    HW244792   0.916   2.757   3.339 -0.8506  0.5729  0.8084
14703SOL     OW44793   6.320   3.496   7.221  0.1217 -0.2099 -0.0023
14703SOL    HW144794   6.349   3.588   7.215  0.8205 -0.4586 -0.6041
14703SOL    HW244795   6.234   3.496   7.179  0.8208 -0.1138 -1.4885
14704SOL     OW44796   6.757   0.653   3.902 -0.4073  0.0122  0.1053
14704SOL    HW144797   6.755   0.682   3.811  0.3281  0.0156  0.0858
14704SOL    HW244798   6.711   0.569   3.902  0.4944 -0.5001 -0.4589
14705SOL     OW44799   0.778   4.577   4.911 -0.0749 -0.0831  0.3970
14705SOL    HW144800   0.712   4.512   4.934  0.6564 -1.1744 -0.5244
14705SOL    HW244801   0.790   4.567   4.817 -0.1664  1.6130  0.1707
14706SOL     OW44802   6.352   2.910   6.852 -0.4005  0.1116 -0.4108
14706SOL    HW144803   6.260   2.916   6.827 -0.3428  1.3867 -0.4094
14706SOL    HW244804   6.375   2.818   6.841 -2.0317 -0.4872  0.8837
14707SOL     OW44805   4.645   4.203   7.226 -0.2915 -0.0704 -0.0088
14707SOL    HW144806   4.649   4.286   7.273 -0.0429  0.4618 -0.9308
14707SOL    HW244807   4.581   4.151   7.273 -1.2411  1.0411 -0.0183
14708SOL     OW44808   5.200   6.033   4.112 -0.1046  0.0902 -0.3748
14708SOL    HW144809   5.142   5.957   4.107 -1.6123  1.1443  0.2238
14708SOL    HW244810   5.219   6.041   4.206  3.0170 -1.6087 -0.7177
14709SOL     OW44811   2.923   0.244   6.547 -0.0250 -0.1181 -0.2045
14709SOL    HW144812   2.970   0.326   6.535 -0.8097  0.6590  1.6153
14709SOL    HW244813   2.943   0.219   6.637 -2.2865 -0.2517  0.3090
14710SOL     OW44814   3.795   5.649   5.389 -0.4243 -0.3362 -0.0652
14710SOL    HW144815   3.703   5.662   5.411 -0.4976  0.4426 -0.7988
14710SOL    HW244816   3.809   5.555   5.401 -1.8938 -0.8658 -1.9853
14711SOL     OW44817   4.831   4.109   3.501 -0.0630  0.3419  0.1564
14711SOL    HW144818   4.913   4.151   3.528 -0.4513  1.2490 -0.0226
14711SOL    HW244819   4.814   4.043   3.568  1.8318 -1.2587 -0.8393
14712SOL     OW44820   3.765   2.235   2.964  0.3849 -0.0473 -0.2786
14712SOL    HW144821   3.716   2.234   3.045 -0.3326 -1.5194 -0.6982
14712SOL    HW244822   3.818   2.155   2.966  0.9246  0.2743 -0.9227
14713SOL     OW44823   4.187   6.289   3.027  0.6933 -0.2029 -0.0984
14713SOL    HW144824   4.135   6.293   2.947  1.5224  1.0529 -0.5841
14713SOL    HW244825   4.275   6.315   3.001  1.3671 -1.3436  0.9146
14714SOL     OW44826   0.106   1.212   2.297  0.8394  0.2019  0.5364
14714SOL    HW144827   0.151   1.292   2.324 -0.3305  1.8779 -1.9955
14714SOL    HW244828   0.114   1.211   2.201 -0.4905 -1.9160  0.3777
14715SOL     OW44829   0.929   3.498   6.312 -0.3033 -0.6186 -0.6749
14715SOL    HW144830   0.835   3.512   6.314 -0.4853 -1.7230  0.8028
14715SOL    HW244831   0.958   3.535   6.229 -2.0778 -0.5425 -1.2906
14716SOL     OW44832   5.689   1.696   5.428 -0.1806 -0.4865 -0.0628
14716SOL    HW144833   5.697   1.778   5.478 -0.2635  0.7697 -1.9889
14716SOL    HW244834   5.678   1.628   5.495 -1.1218  1.1765  1.5755
14717SOL     OW44835   2.408   6.304   4.005 -0.0642 -0.5271  0.3424
14717SOL    HW144836   2.483   6.263   3.963  0.7761  0.7703  0.5465
14717SOL    HW244837   2.429   6.397   4.008 -1.8074 -0.0854  0.1478
14718SOL     OW44838   1.709   6.902   2.110  0.4179  0.4245  0.1753
14718SOL    HW144839   1.659   6.956   2.172  0.2020  0.6716 -0.2136
14718SOL    HW244840   1.643   6.848   2.067  0.4052  1.1337 -0.7298
14719SOL     OW44841   1.428   6.321   5.824 -0.0189 -0.2216  0.2702
14719SOL    HW144842   1.406   6.387   5.759  0.2750  0.0758  0.4701
14719SOL    HW244843   1.423   6.238   5.777 -2.4749 -0.2917  0.4856
14720SOL     OW44844   6.511   6.303   1.856  0.0730  0.0231 -0.0998
14720SOL    HW144845   6.507   6.315   1.951  0.1042 -0.4663 -0.0313
14720SOL    HW244846   6.587   6.247   1.842 -0.8772 -1.2821 -0.2584
14721SOL     OW44847   4.320   1.919   4.897 -0.6990 -0.8342 -0.5529
14721SOL    HW144848   4.290   2.004   4.928  1.8122  0.1531 -0.6115
14721SOL    HW244849   4.308   1.923   4.802 -1.1324 -0.7850 -0.4978
14722SOL     OW44850   6.406   0.866   3.425 -0.1376 -0.2820  0.1993
14722SOL    HW144851   6.330   0.819   3.391  0.2276  0.1611 -1.3199
14722SOL    HW244852   6.433   0.923   3.353  0.2421  1.2818  1.5192
14723SOL     OW44853   5.037   6.974   6.176 -0.2998 -0.2724 -0.0297
14723SOL    HW144854   4.973   6.976   6.246  1.7816 -0.5249  1.9898
14723SOL    HW244855   5.113   7.021   6.211  0.1345  1.3899 -2.8810
14724SOL     OW44856   0.860   1.602   2.497  0.1339 -0.0345 -0.0798
14724SOL    HW144857   0.872   1.512   2.526 -1.6958 -0.7117 -1.2099
14724SOL    HW244858   0.791   1.636   2.553 -1.7052 -0.5673 -1.8928
14725SOL     OW44859   5.094   4.464   6.758  0.7003 -0.2505  0.2518
14725SOL    HW144860   5.084   4.426   6.846  0.3976 -0.5142  0.1052
14725SOL    HW244861   5.021   4.526   6.750 -0.0513 -1.1827 -0.3044
14726SOL     OW44862   2.485   2.340   3.556  0.8650  0.5139 -0.0628
14726SOL    HW144863   2.491   2.263   3.613  1.1248 -0.5486 -1.4754
14726SOL    HW244864   2.558   2.396   3.582  0.9411  0.0828  0.6706
14727SOL     OW44865   7.736   3.053   6.877  0.2199 -0.2827 -0.9679
14727SOL    HW144866   7.775   3.121   6.823  1.3891 -0.3024 -0.1909
14727SOL    HW244867   7.782   3.060   6.961 -1.2664 -0.5046 -0.0939
14728SOL     OW44868   4.337   1.191   6.570 -0.0269  0.4513  0.3957
14728SOL    HW144869   4.287   1.121   6.529  0.7109  1.1568 -1.8446
14728SOL    HW244870   4.420   1.150   6.594 -0.2032  0.1894  0.5618
14729SOL     OW44871   4.691   6.667   1.677 -0.2103 -0.0906  0.6310
14729SOL    HW144872   4.725   6.726   1.744 -2.2531  0.7371  0.9874
14729SOL    HW244873   4.691   6.719   1.597 -0.9542  0.0276  0.7067
14730SOL     OW44874   2.391   1.875   0.358 -0.1838 -0.0549  0.3242
14730SOL    HW144875   2.366   1.947   0.300 -0.9529 -0.4843  0.1200
14730SOL    HW244876   2.408   1.801   0.300  2.2324  0.3751  0.3912
14731SOL     OW44877   6.245   4.406   7.358 -0.0734  0.0132  0.3334
14731SOL    HW144878   6.174   4.368   7.305  0.1171  0.1326 -0.0073
14731SOL    HW244879   6.297   4.456   7.296  1.0546 -1.1160  0.3363
14732SOL     OW44880   2.874   2.195   0.066 -0.3597 -0.1148 -0.0268
14732SOL    HW144881   2.967   2.177   0.073 -0.7560 -1.6863  2.0356
14732SOL    HW244882   2.858   2.267   0.127 -0.3500  1.0179 -1.2963
14733SOL     OW44883   1.106   0.962   5.378  0.5556  0.2876  0.7175
14733SOL    HW144884   1.108   1.032   5.312 -1.0378 -1.1322 -0.9324
14733SOL    HW244885   1.014   0.953   5.400  0.4784 -2.3451 -0.3499
14734SOL     OW44886   7.006   6.137   5.311 -0.1746  0.2069 -0.6039
14734SOL    HW144887   7.000   6.186   5.229  2.1658 -1.1916 -1.6938
14734SOL    HW244888   7.074   6.182   5.360 -0.3178 -0.0358 -0.1843
14735SOL     OW44889   2.385   6.284   6.409  0.3793  0.0977 -0.4133
14735SOL    HW144890   2.423   6.371   6.395 -0.1277  0.3445 -0.2708
14735SOL    HW244891   2.458   6.231   6.441  0.7387  0.4187 -0.6973
14736SOL     OW44892   7.513   2.643   1.520 -0.1203 -0.5226  0.0564
14736SOL    HW144893   7.428   2.644   1.564  0.0378 -0.5946  0.3675
14736SOL    HW244894   7.528   2.733   1.494  0.1022 -0.3442  0.7749
14737SOL     OW44895   2.233   3.549   2.240 -0.1386  0.2816 -0.4366
14737SOL    HW144896   2.239   3.467   2.192 -3.2859  0.1672 -0.8006
14737SOL    HW244897   2.302   3.543   2.307  1.4363 -1.4396 -2.1166
14738SOL     OW44898   5.122   3.704   3.163 -0.1809  0.4153  0.0710
14738SOL    HW144899   5.207   3.747   3.153 -0.2497  0.3022 -1.1843
14738SOL    HW244900   5.128   3.660   3.247  0.5256  1.4654  0.5938
14739SOL     OW44901   4.935   3.211   2.419 -0.1489 -0.5870  0.0257
14739SOL    HW144902   4.897   3.190   2.334  1.9690 -0.3485 -1.0530
14739SOL    HW244903   5.020   3.167   2.418 -0.6611 -1.7948  2.6467
14740SOL     OW44904   4.916   3.704   0.054 -0.0262  0.1697  0.2702
14740SOL    HW144905   4.996   3.683   0.101  0.0008 -0.1861  0.0643
14740SOL    HW244906   4.877   3.620   0.032 -0.9138  0.3403  1.1301
14741SOL     OW44907   2.712   2.792   5.680 -0.3954 -0.3820 -0.4215
14741SOL    HW144908   2.715   2.876   5.634 -1.1137 -0.2818 -0.2868
14741SOL    HW244909   2.759   2.808   5.762 -0.9286  0.0134 -0.1931
14742SOL     OW44910   3.769   2.376   0.647  0.3093 -0.6939 -0.1884
14742SOL    HW144911   3.822   2.414   0.716 -0.5709  1.6592 -0.7263
14742SOL    HW244912   3.699   2.329   0.693 -0.1797  0.7055  0.5545
14743SOL     OW44913   4.986   2.046   2.484  0.1897 -0.1097  0.4844
14743SOL    HW144914   4.962   1.990   2.411 -0.4704 -0.4759  0.9779
14743SOL    HW244915   4.920   2.115   2.484  0.4439  0.1370  0.4676
14744SOL     OW44916   6.730   4.919   3.143 -0.5664 -0.5097 -0.2218
14744SOL    HW144917   6.811   4.946   3.099 -1.1352  0.8392 -0.4930
14744SOL    HW244918   6.660   4.953   3.087 -1.3324  1.6848  1.9120
14745SOL     OW44919   7.006   2.431   3.017  0.0751  0.0116 -0.3912
14745SOL    HW144920   7.014   2.381   3.097 -0.3923  1.2529  0.4637
14745SOL    HW244921   7.055   2.381   2.952  0.4914 -0.9931  0.6681
14746SOL     OW44922   2.838   6.940   4.605  0.5735  0.0235 -0.1549
14746SOL    HW144923   2.896   6.870   4.576  0.8128  0.0720  0.1910
14746SOL    HW244924   2.782   6.958   4.530 -0.1306 -1.1939  0.0506
14747SOL     OW44925   1.475   0.946   7.146  0.4180 -0.5097 -0.0659
14747SOL    HW144926   1.527   1.015   7.187  1.5187 -1.0070 -0.6078
14747SOL    HW244927   1.486   0.960   7.052 -0.0469 -0.9073 -0.1847
14748SOL     OW44928   2.927   3.810   2.966 -0.1676  0.4272  0.2810
14748SOL    HW144929   2.954   3.763   2.887  0.6328 -1.1841  1.4523
14748SOL    HW244930   2.880   3.887   2.933  0.7188  0.1721 -1.7575
14749SOL     OW44931   4.534   6.543   6.077 -0.2438  0.0081  0.3927
14749SOL    HW144932   4.476   6.614   6.048  0.1183  0.2970  0.3791
14749SOL    HW244933   4.619   6.584   6.091  0.1692 -0.5535 -0.3470
14750SOL     OW44934   0.233   6.808   1.196 -0.0492 -0.1795 -0.1491
14750SOL    HW144935   0.299   6.754   1.153  0.5436  0.9553 -0.7284
14750SOL    HW244936   0.158   6.807   1.136 -0.2758 -0.8597  0.1440
14751SOL     OW44937   3.177   4.573   0.137  0.7217 -0.2446  0.2303
14751SOL    HW144938   3.198   4.599   0.227  1.4796 -0.5094  0.1404
14751SOL    HW244939   3.132   4.489   0.147 -2.7031  1.4503  0.5945
14752SOL     OW44940   1.452   4.723   0.847  0.1592 -0.1844  0.4861
14752SOL    HW144941   1.487   4.698   0.932 -0.8244 -0.6256  0.7711
14752SOL    HW244942   1.529   4.745   0.795  1.0378 -2.8376  0.5220
14753SOL     OW44943   2.584   5.801   4.707  0.0263  0.6038  0.3470
14753SOL    HW144944   2.534   5.880   4.683 -0.2566  0.0834 -0.8811
14753SOL    HW244945   2.671   5.817   4.671 -0.2510  0.0479 -0.6274
14754SOL     OW44946   1.323   4.593   7.334 -0.0519 -0.0437  0.0631
14754SOL    HW144947   1.248   4.652   7.336 -0.3373 -0.2939 -1.5904
14754SOL    HW244948   1.285   4.505   7.340  0.0883 -0.1706 -0.7325
14755SOL     OW44949   4.199   7.529   1.590 -0.0417 -0.0085  0.2641
14755SOL    HW144950   4.253   7.451   1.598 -0.2393 -0.3717 -1.4011
14755SOL    HW244951   4.110   7.499   1.607 -0.5313 -0.8837 -3.1090
14756SOL     OW44952   0.245   1.123   0.265  0.1022  0.1997  0.2974
14756SOL    HW144953   0.331   1.143   0.227  0.5892 -0.5827  0.9457
14756SOL    HW244954   0.192   1.200   0.247  0.5428  0.1772 -1.2808
14757SOL     OW44955   4.256   6.229   3.829 -0.2819  0.1890 -0.3329
14757SOL    HW144956   4.162   6.228   3.848 -0.3496 -0.6861 -0.6596
14757SOL    HW244957   4.290   6.302   3.880 -1.3156  1.2010 -1.0471
14758SOL     OW44958   6.202   5.304   6.315  0.0322 -0.0573 -0.0328
14758SOL    HW144959   6.227   5.317   6.406  1.6946  0.2834 -0.4967
14758SOL    HW244960   6.112   5.272   6.318 -0.2096  0.7172  1.6769
14759SOL     OW44961   0.159   7.490   0.746  0.4849 -0.3363  0.3647
14759SOL    HW144962   0.181   7.411   0.698  1.2315 -0.3796  0.7638
14759SOL    HW244963   0.064   7.484   0.760  0.7194 -1.9055  1.6623
14760SOL     OW44964   4.337   2.996   3.819 -0.4860 -0.1647  0.0193
14760SOL    HW144965   4.282   3.070   3.792 -1.7530 -0.6191  1.2449
14760SOL    HW244966   4.339   2.938   3.743 -1.3260  0.0883 -0.2058
14761SOL     OW44967   0.419   6.612   1.953 -0.3562  0.2880 -0.8500
14761SOL    HW144968   0.502   6.639   1.992 -0.2358  1.0260 -1.5962
14761SOL    HW244969   0.359   6.684   1.972 -0.6858 -0.0065 -0.7651
14762SOL     OW44970   7.650   5.605   6.667 -0.2912  0.3873  0.4547
14762SOL    HW144971   7.631   5.691   6.632  0.0565  0.4031  0.2972
14762SOL    HW244972   7.613   5.544   6.604  1.0219  0.4037 -0.3731
14763SOL     OW44973   3.236   3.480   1.669  0.1331 -0.2886  0.3416
14763SOL    HW144974   3.241   3.489   1.764 -0.8974 -0.6079  0.4444
14763SOL    HW244975   3.311   3.528   1.636 -0.7184  1.7692  1.2104
14764SOL     OW44976   1.238   5.120   6.335 -0.0481  0.0283  0.1302
14764SOL    HW144977   1.215   5.090   6.423  0.9240 -0.4443  0.2340
14764SOL    HW244978   1.255   5.214   6.345  0.9034 -0.1855  0.6363
14765SOL     OW44979   4.989   2.348   4.777 -0.2627  0.2206  0.3076
14765SOL    HW144980   4.977   2.257   4.749  0.4500  0.6737 -1.5950
14765SOL    HW244981   4.917   2.363   4.838 -1.1678 -1.2438 -0.3361
14766SOL     OW44982   1.574   6.968   4.895  0.6283 -0.0273  1.0052
14766SOL    HW144983   1.613   6.953   4.809  0.0202 -0.9327  0.8723
14766SOL    HW244984   1.573   7.063   4.905 -0.7523  0.1822 -0.6895
14767SOL     OW44985   1.177   0.349   3.240  0.4666  0.0091 -0.1145
14767SOL    HW144986   1.162   0.430   3.191  0.9420  0.6188  0.7056
14767SOL    HW244987   1.265   0.360   3.277 -0.3165  0.1123  1.8449
14768SOL     OW44988   0.294   5.966   6.589 -0.3035  0.1160 -0.2993
14768SOL    HW144989   0.329   5.880   6.607  0.0642  0.4755  0.7122
14768SOL    HW244990   0.364   6.012   6.543  0.4945  0.7284  1.4451
14769SOL     OW44991   0.863   1.961   3.729  0.4545  0.0888  0.3054
14769SOL    HW144992   0.939   1.988   3.678 -0.5080 -2.3561 -2.7128
14769SOL    HW244993   0.799   2.032   3.715  0.0588 -0.6979 -2.4690
14770SOL     OW44994   6.253   1.160   3.274 -0.1500  0.1223  0.7512
14770SOL    HW144995   6.309   1.196   3.206  0.6308  0.2994  1.4661
14770SOL    HW244996   6.200   1.235   3.303  1.7454  0.8908  2.5096
14771SOL     OW44997   1.438   7.492   2.823 -0.2530  0.5039  0.4454
14771SOL    HW144998   1.348   7.459   2.818  0.6287 -1.8619 -1.7582
14771SOL    HW244999   1.466   7.472   2.912 -1.1591 -0.9672  0.4347
14772SOL     OW45000   3.804   4.673   6.855  0.6319  0.6779 -0.2229
14772SOL    HW145001   3.711   4.652   6.852  0.9565 -0.8680 -0.1337
14772SOL    HW245002   3.810   4.761   6.817 -0.9113  1.0358  0.3070
14773SOL     OW45003   6.244   0.089   2.310 -0.1329 -0.2996  0.6597
14773SOL    HW145004   6.263   0.094   2.404 -1.3750  0.6376  0.8739
14773SOL    HW245005   6.152   0.111   2.303 -0.3494 -1.5046 -0.6896
14774SOL     OW45006   2.903   6.690   1.099 -0.4317  0.2729 -0.3653
14774SOL    HW145007   2.872   6.720   1.013  0.5967  2.9393  0.0932
14774SOL    HW245008   2.865   6.752   1.161  0.3542 -0.4672  0.8966
14775SOL     OW45009   6.456   2.770   2.594 -0.4555  0.2282  0.1350
14775SOL    HW145010   6.388   2.762   2.527  0.4738  0.0169 -0.8145
14775SOL    HW245011   6.462   2.864   2.611  0.2825  0.4354 -1.1530
14776SOL     OW45012   4.247   4.349   5.830  0.6509  0.2849  0.5695
14776SOL    HW145013   4.238   4.418   5.896  0.1685 -0.7581  1.6376
14776SOL    HW245014   4.263   4.396   5.749  2.5212  1.5952  1.6123
14777SOL     OW45015   2.563   3.461   3.981  0.3454  0.5167 -0.0274
14777SOL    HW145016   2.565   3.536   3.921  0.3015  0.2411 -0.3791
14777SOL    HW245017   2.570   3.385   3.924 -3.6588  0.0039 -0.1401
14778SOL     OW45018   5.194   7.000   6.555 -0.1836 -0.6673  0.5877
14778SOL    HW145019   5.167   7.085   6.519 -0.0728  0.2122  2.4771
14778SOL    HW245020   5.123   6.940   6.532  0.7552 -0.6988 -2.7828
14779SOL     OW45021   3.774   2.075   7.439 -0.2868 -0.2445 -0.4211
14779SOL    HW145022   3.756   2.118   7.356 -0.6305 -0.9961 -0.7454
14779SOL    HW245023   3.783   1.982   7.416  2.8346 -0.1190 -0.1367
14780SOL     OW45024   6.677   3.559   0.747  0.2492 -0.0879 -0.1687
14780SOL    HW145025   6.684   3.629   0.812 -0.1823 -0.7614  0.6296
14780SOL    HW245026   6.624   3.595   0.677  0.8846  0.7180 -0.2493
14781SOL     OW45027   2.836   5.169   1.984 -0.1647  0.1353  0.4973
14781SOL    HW145028   2.827   5.149   2.078 -2.1437 -0.4678  0.2270
14781SOL    HW245029   2.929   5.157   1.966  0.2702  0.3298  2.4010
14782SOL     OW45030   6.187   5.032   4.974 -0.3531  0.1101 -0.4386
14782SOL    HW145031   6.261   5.040   4.914 -1.6458  1.1933 -1.9621
14782SOL    HW245032   6.144   5.118   4.972  0.0875  0.5358  2.8377
14783SOL     OW45033   2.595   5.959   1.404  0.4444  0.1453 -0.2052
14783SOL    HW145034   2.651   5.974   1.328  0.1402 -0.0429 -0.4723
14783SOL    HW245035   2.511   5.933   1.366  0.5085 -0.6999  0.2046
14784SOL     OW45036   4.545   6.279   6.365 -0.1870  0.0503 -0.0396
14784SOL    HW145037   4.523   6.343   6.433 -0.9074  0.0448 -0.2597
14784SOL    HW245038   4.518   6.195   6.403  1.6225 -0.2623  0.6377
14785SOL     OW45039   7.518   4.178   6.115 -0.0623 -0.3948 -0.2208
14785SOL    HW145040   7.478   4.228   6.044 -0.4543  0.9119  0.8720
14785SOL    HW245041   7.538   4.092   6.077  0.1144  0.4077 -1.9938
14786SOL     OW45042   1.021   4.774   4.254 -0.2230 -0.4007 -0.1597
14786SOL    HW145043   1.049   4.684   4.236 -0.5554 -0.2159 -1.7910
14786SOL    HW245044   0.949   4.766   4.316 -1.5339 -1.4364 -1.7366
14787SOL     OW45045   2.362   7.417   2.031  0.7465  0.0929  0.3994
14787SOL    HW145046   2.325   7.503   2.012  1.0281  0.3357  0.9485
14787SOL    HW245047   2.301   7.377   2.092  0.5997 -0.1135  0.1208
14788SOL     OW45048   4.752   0.867   6.866  0.2130  0.1892 -0.1250
14788SOL    HW145049   4.804   0.806   6.815  0.3955 -0.9227  1.3425
14788SOL    HW245050   4.816   0.922   6.911  0.2544 -1.6732  2.2844
14789SOL     OW45051   2.253   6.236   4.692 -0.1938  0.2539 -0.1103
14789SOL    HW145052   2.302   6.225   4.611 -1.0202 -3.0542 -0.3186
14789SOL    HW245053   2.319   6.256   4.758  0.9762 -0.6556 -0.9697
14790SOL     OW45054   1.196   3.475   0.777  0.2230  0.5171  0.1675
14790SOL    HW145055   1.238   3.531   0.843 -0.6811  1.2069  0.1733
14790SOL    HW245056   1.152   3.536   0.718  0.9662 -0.0858 -1.0646
14791SOL     OW45057   7.619   0.561   0.013  0.4261 -0.2731 -0.5218
14791SOL    HW145058   7.614   0.475  -0.028 -0.0718 -0.6775  0.3511
14791SOL    HW245059   7.592   0.546   0.103 -0.2808  0.9125 -0.5181
14792SOL     OW45060   6.405   2.012   4.278 -0.1377  0.4109 -0.3714
14792SOL    HW145061   6.373   1.981   4.363  0.4083 -0.5105 -0.4871
14792SOL    HW245062   6.347   1.970   4.214  1.6146 -1.8196 -0.6202
14793SOL     OW45063   7.390   4.941   4.115 -0.4417  0.1833 -0.3002
14793SOL    HW145064   7.462   4.881   4.137  0.7198  1.4979 -0.4312
14793SOL    HW245065   7.387   4.942   4.020 -1.1391 -0.4276 -0.2966
14794SOL     OW45066   3.932   7.238   7.006  0.1305 -0.5334 -0.0151
14794SOL    HW145067   3.873   7.286   6.948 -0.7646 -2.0879 -0.4559
14794SOL    HW245068   3.983   7.182   6.946  1.9613  0.6527  0.3734
14795SOL     OW45069   5.697   6.432   6.214  0.5776  0.2404  0.0948
14795SOL    HW145070   5.633   6.478   6.268 -0.2148 -1.2850  0.4908
14795SOL    HW245071   5.706   6.346   6.255 -0.3391 -1.1313 -2.4090
14796SOL     OW45072   2.378   6.124   2.649  0.7887 -0.0446  0.1091
14796SOL    HW145073   2.414   6.050   2.698 -0.4633 -1.3575 -0.8594
14796SOL    HW245074   2.405   6.107   2.558 -0.7524 -0.1336 -0.3552
14797SOL     OW45075   5.861   6.839   0.865  0.5978 -0.1341  0.5727
14797SOL    HW145076   5.898   6.872   0.783  3.5469 -1.9303  1.0181
14797SOL    HW245077   5.789   6.782   0.837 -1.3619  2.5809 -0.4082
14798SOL     OW45078   7.237   6.164   5.513  0.2179  0.3716  0.3733
14798SOL    HW145079   7.285   6.221   5.572 -0.0554  0.4061  0.5636
14798SOL    HW245080   7.278   6.078   5.524 -1.1136 -0.0924  2.1312
14799SOL     OW45081   0.354   6.731   3.378 -0.0866  0.3834 -0.1069
14799SOL    HW145082   0.275   6.686   3.407 -0.5861  2.6174  2.3748
14799SOL    HW245083   0.327   6.780   3.301  0.1103 -2.1647 -1.9539
14800SOL     OW45084   2.910   3.601   7.526 -0.5317 -0.1343 -0.3290
14800SOL    HW145085   2.987   3.626   7.475  0.9459 -1.9547  0.8584
14800SOL    HW245086   2.870   3.530   7.476 -0.6911 -0.0546 -0.3150
14801SOL     OW45087   6.555   1.007   1.022  0.6216  0.0082 -0.8800
14801SOL    HW145088   6.589   0.921   0.998 -0.2986 -0.6862  0.2024
14801SOL    HW245089   6.632   1.064   1.024  1.4505 -1.1094 -0.2324
14802SOL     OW45090   2.397   3.616   0.999  0.9839  0.1383 -0.1289
14802SOL    HW145091   2.322   3.663   1.034  0.8076  1.6807 -2.4043
14802SOL    HW245092   2.459   3.684   0.974  1.8777 -0.9626 -1.0175
14803SOL     OW45093   2.453   0.580   0.005 -0.2878 -0.3695 -0.2621
14803SOL    HW145094   2.398   0.567  -0.073  1.2332 -0.3879 -1.3795
14803SOL    HW245095   2.534   0.532  -0.014 -0.0031 -0.6471  1.4856
14804SOL     OW45096   5.873   6.117   5.038  0.0416 -0.9187 -0.8237
14804SOL    HW145097   5.865   6.131   5.132 -0.5514 -0.7199 -0.9042
14804SOL    HW245098   5.873   6.021   5.028 -1.6369 -0.9555 -0.7553
14805SOL     OW45099   0.599   2.980   7.045  0.1885 -0.2580  0.2865
14805SOL    HW145100   0.635   2.954   7.130  0.5710 -0.6717  0.0038
14805SOL    HW245101   0.670   2.963   6.983 -0.2816 -0.4795 -0.1946
14806SOL     OW45102   7.025   7.160   0.912  0.5022 -0.0909  0.1291
14806SOL    HW145103   7.046   7.243   0.955  0.0088  0.2492 -0.2662
14806SOL    HW245104   7.040   7.177   0.819  0.1426 -0.3633  0.0190
14807SOL     OW45105   7.353   3.779   0.255 -0.8017 -0.5562  0.3239
14807SOL    HW145106   7.373   3.855   0.310 -0.2186 -0.5502  0.1120
14807SOL    HW245107   7.438   3.751   0.221 -1.1414 -0.5880 -0.5353
14808SOL     OW45108   0.177   4.528   1.464 -0.0476  0.5588  0.4720
14808SOL    HW145109   0.181   4.559   1.554 -1.6720  2.1416  0.0630
14808SOL    HW245110   0.264   4.546   1.429  0.4171  0.4650  1.5425
14809SOL     OW45111   3.099   7.682   0.486  0.2119  0.4481 -0.0964
14809SOL    HW145112   3.118   7.632   0.407 -0.2412 -2.1745  1.3698
14809SOL    HW245113   3.180   7.677   0.537 -0.3224 -0.0269  0.7075
14810SOL     OW45114   3.832   7.690   4.454 -0.5336 -0.6007  0.1195
14810SOL    HW145115   3.778   7.752   4.504 -0.1094  0.6367 -0.9150
14810SOL    HW245116   3.768   7.638   4.404 -0.9163 -1.3328  1.3306
14811SOL     OW45117   5.412   7.657   2.149  0.0385 -0.1268  0.0574
14811SOL    HW145118   5.368   7.742   2.148 -2.0841 -1.1605 -1.1714
14811SOL    HW245119   5.359   7.604   2.209  2.0947 -0.2715  1.8594
14812SOL     OW45120   3.410   2.493   1.022 -0.2595 -0.1357 -0.6782
14812SOL    HW145121   3.445   2.456   1.103  0.0467  1.8415  0.1769
14812SOL    HW245122   3.456   2.447   0.952  0.3931 -1.0293  0.3152
14813SOL     OW45123   0.314   3.592   5.319  0.5180  0.6366 -0.2419
14813SOL    HW145124   0.351   3.566   5.234 -0.0793 -1.0808 -0.0237
14813SOL    HW245125   0.383   3.574   5.382  0.3920  0.3770 -0.1794
14814SOL     OW45126   5.003   6.844   4.837 -0.4029  0.2434 -0.8586
14814SOL    HW145127   5.022   6.762   4.792  0.9484  0.6334 -1.0511
14814SOL    HW245128   5.001   6.821   4.930  1.1748  0.1635 -0.8095
14815SOL     OW45129   0.376   5.098   4.771 -0.2432 -0.0649  0.5914
14815SOL    HW145130   0.415   5.022   4.728  2.5360  1.2531  0.5325
14815SOL    HW245131   0.289   5.106   4.733  0.3374 -1.7357 -1.2400
14816SOL     OW45132   2.438   7.233   2.532 -0.5400  0.7511 -0.1491
14816SOL    HW145133   2.450   7.159   2.591  1.4191  0.8070 -0.3842
14816SOL    HW245134   2.474   7.308   2.580 -0.6558  1.1575 -0.6844
14817SOL     OW45135   6.103   5.286   5.014 -0.3553 -0.2928  0.3067
14817SOL    HW145136   6.036   5.249   5.071 -0.5306  0.6806  0.7674
14817SOL    HW245137   6.069   5.373   4.992  0.7103  0.1789  0.4750
14818SOL     OW45138   5.299   3.352   6.740 -0.0220 -0.4161  0.0533
14818SOL    HW145139   5.221   3.384   6.785  0.6439 -0.0720  1.0069
14818SOL    HW245140   5.266   3.312   6.660 -1.1174  0.3127  0.1127
14819SOL     OW45141   5.411   6.302   6.433  0.1355 -0.3768 -0.1932
14819SOL    HW145142   5.390   6.381   6.383 -0.5179  0.2149  0.9560
14819SOL    HW245143   5.347   6.238   6.403 -2.1267  0.7785  1.7144
14820SOL     OW45144   5.883   1.189   6.314  0.0996 -0.0875  0.1143
14820SOL    HW145145   5.946   1.233   6.371  0.2752 -1.6009  1.1579
14820SOL    HW245146   5.870   1.103   6.355 -2.6341  0.1653 -0.0789
14821SOL     OW45147   0.437   0.961   7.774 -0.0858  0.2538 -0.2685
14821SOL    HW145148   0.447   0.886   7.832 -0.4362  0.1611 -0.3251
14821SOL    HW245149   0.445   1.037   7.831  0.6117  0.1824 -0.2635
14822SOL     OW45150   7.344   5.646   2.966 -0.2508 -0.0406 -0.1215
14822SOL    HW145151   7.380   5.557   2.961  0.6950  0.0359  2.9507
14822SOL    HW245152   7.416   5.703   2.939 -1.0175 -0.1406 -2.5942
14823SOL     OW45153   4.757   5.486   4.979 -0.2371  0.1948  0.0188
14823SOL    HW145154   4.686   5.514   5.037  0.5233 -1.1344  1.6767
14823SOL    HW245155   4.823   5.554   4.989 -0.8544  0.9386 -0.7856
14824SOL     OW45156   3.401   6.232   2.358  0.1751 -0.4970 -0.5411
14824SOL    HW145157   3.389   6.151   2.407  0.4968 -0.1567  0.1183
14824SOL    HW245158   3.315   6.253   2.322  0.0713 -1.0739 -0.6265
14825SOL     OW45159   2.725   0.258   5.961 -0.3235 -0.7053 -0.2539
14825SOL    HW145160   2.738   0.173   5.919  0.3090 -0.0541 -1.4237
14825SOL    HW245161   2.813   0.287   5.985 -0.3741  0.2271 -1.1127
14826SOL     OW45162   4.687   6.813   5.068 -0.3295 -0.3685 -0.5022
14826SOL    HW145163   4.708   6.779   4.981 -0.9936 -0.0069 -0.8074
14826SOL    HW245164   4.602   6.857   5.058  0.4104  1.2563 -0.1057
14827SOL     OW45165   5.864   1.965   2.985  0.7708 -1.0744  0.2813
14827SOL    HW145166   5.775   1.957   2.949  1.0669  0.1990 -0.8099
14827SOL    HW245167   5.910   2.020   2.922  1.5834  0.5057  2.1546
14828SOL     OW45168   1.690   0.121   4.150 -0.2351  0.0383 -0.3977
14828SOL    HW145169   1.756   0.110   4.218  1.4846  0.2174 -1.9551
14828SOL    HW245170   1.670   0.031   4.122 -0.0110  0.0174 -0.4949
14829SOL     OW45171   0.842   0.476   4.692 -0.6541 -0.2092  0.1018
14829SOL    HW145172   0.842   0.398   4.636  0.2396 -0.3974  0.3540
14829SOL    HW245173   0.815   0.444   4.778 -0.4677 -0.2064  0.1613
14830SOL     OW45174   0.526   7.520   2.299 -0.9905  0.3518  0.2511
14830SOL    HW145175   0.566   7.590   2.352 -0.7916 -0.7510  1.6157
14830SOL    HW245176   0.600   7.479   2.254 -0.9521  0.2398  0.4146
14831SOL     OW45177   4.247   6.037   5.063 -0.1060  0.5675 -0.1025
14831SOL    HW145178   4.228   6.085   5.144 -1.2353  0.3041 -0.2023
14831SOL    HW245179   4.216   5.948   5.079  0.0006  0.4180 -0.6927
14832SOL     OW45180   4.787   6.160   5.853 -0.6601 -0.5486 -0.2222
14832SOL    HW145181   4.854   6.221   5.882  0.7597 -1.1065 -2.1270
14832SOL    HW245182   4.830   6.074   5.853 -0.5856 -0.6430 -3.4676
14833SOL     OW45183   5.628   3.594   0.539 -0.0800  0.0745 -0.3355
14833SOL    HW145184   5.609   3.676   0.585  0.0169 -0.3595  0.5005
14833SOL    HW245185   5.542   3.553   0.527  0.0699 -1.0997  1.9551
14834SOL     OW45186   1.965   3.307   3.116 -0.1431  0.0263  0.0940
14834SOL    HW145187   2.006   3.351   3.042  0.0823 -0.5768 -0.1442
14834SOL    HW245188   1.954   3.375   3.182  0.9786  0.2622  0.0519
14835SOL     OW45189   2.481   1.794   0.832 -0.1166 -0.1268  0.1780
14835SOL    HW145190   2.507   1.769   0.744  0.2611 -0.1611  0.2962
14835SOL    HW245191   2.527   1.877   0.848 -0.1149 -0.1643  0.3729
14836SOL     OW45192   1.133   3.977   5.062 -0.1126  0.1491 -0.0504
14836SOL    HW145193   1.167   4.036   5.130 -1.9728 -0.5820  1.6007
14836SOL    HW245194   1.057   4.024   5.027 -0.5920 -0.5283  0.0813
14837SOL     OW45195   1.097   6.434   4.175 -0.5006 -0.1511  0.1991
14837SOL    HW145196   1.180   6.391   4.155  0.0885  1.1416 -0.2442
14837SOL    HW245197   1.111   6.474   4.261 -0.3386  0.8302 -0.2726
14838SOL     OW45198   3.614   4.313   0.698 -0.1461  0.3086 -1.1079
14838SOL    HW145199   3.639   4.222   0.684  0.2082  0.3410 -0.6876
14838SOL    HW245200   3.524   4.318   0.664 -0.6591 -0.5157  0.0427
14839SOL     OW45201   2.348   3.504   3.128 -0.1867  0.0145  0.5415
14839SOL    HW145202   2.311   3.435   3.183 -1.8601  0.2366 -0.2632
14839SOL    HW245203   2.400   3.457   3.062  0.4760 -0.3315  1.2878
14840SOL     OW45204   1.184   2.864   3.144  0.1960 -0.0961 -0.2085
14840SOL    HW145205   1.101   2.845   3.100 -1.2063  0.2102  2.1382
14840SOL    HW245206   1.249   2.815   3.095 -1.5634 -1.4134 -1.3420
14841SOL     OW45207   4.686   7.712   1.204  0.4618  0.1232 -0.0270
14841SOL    HW145208   4.694   7.746   1.115  2.7281  0.9783  0.4340
14841SOL    HW245209   4.754   7.644   1.209  0.3874  0.1223  1.0641
14842SOL     OW45210   4.783   3.311   6.850 -0.0529  0.4463 -0.0420
14842SOL    HW145211   4.792   3.310   6.755 -1.8115 -0.9816 -0.2406
14842SOL    HW245212   4.728   3.387   6.869 -2.6832 -1.2102 -0.5668
14843SOL     OW45213   5.970   4.140   4.048 -0.3177  0.3637  0.5704
14843SOL    HW145214   5.928   4.145   4.134 -1.5836  1.2702 -0.0673
14843SOL    HW245215   6.021   4.221   4.041 -2.0158  1.4064 -0.3905
14844SOL     OW45216   6.930   1.997   0.679 -0.3173 -0.7000  0.2899
14844SOL    HW145217   6.962   1.911   0.706  1.7464  0.1316  0.7429
14844SOL    HW245218   6.871   2.024   0.749  0.7600 -0.8500  1.2908
14845SOL     OW45219   7.148   4.710   5.676 -0.1365  0.0967 -0.0942
14845SOL    HW145220   7.160   4.652   5.751 -1.0685  1.0277  0.8078
14845SOL    HW245221   7.189   4.792   5.702 -1.4609  0.7918 -0.1126
14846SOL     OW45222   1.731   7.410   5.084 -0.2808  0.1018 -0.5960
14846SOL    HW145223   1.802   7.472   5.065 -1.7512  1.9315 -0.4553
14846SOL    HW245224   1.761   7.363   5.161  0.2157  1.8669  0.3509
14847SOL     OW45225   7.527   6.574   3.686 -0.1148 -0.4936  0.1709
14847SOL    HW145226   7.616   6.570   3.651  0.3584 -0.3865  1.2935
14847SOL    HW245227   7.520   6.661   3.724 -0.2260 -0.9487  1.2343
14848SOL     OW45228   7.000   5.356   1.771  0.1486  0.1634 -0.0076
14848SOL    HW145229   6.921   5.305   1.751  0.8219 -0.8565 -0.1172
14848SOL    HW245230   7.072   5.297   1.750  0.9806  1.5192 -1.1129
14849SOL     OW45231   3.050   7.370   5.192 -0.1826 -0.7169 -0.3083
14849SOL    HW145232   3.132   7.329   5.165  0.5261  0.7734 -0.4992
14849SOL    HW245233   3.061   7.388   5.286  0.3239  0.7779 -0.6214
14850SOL     OW45234   0.541   2.724   2.555  0.1934  0.0799 -0.1989
14850SOL    HW145235   0.534   2.654   2.619  0.3082  1.7394  1.7397
14850SOL    HW245236   0.450   2.747   2.536  0.1622 -0.1529 -0.3359
14851SOL     OW45237   5.197   6.860   0.045  0.7115 -0.3858  0.0741
14851SOL    HW145238   5.177   6.918   0.119 -0.9045 -0.6722 -0.0944
14851SOL    HW245239   5.265   6.802   0.077  1.6069  0.8973  0.5997
14852SOL     OW45240   0.476   1.178   7.210  0.2083  0.1981  0.1090
14852SOL    HW145241   0.434   1.214   7.132  2.2471 -1.3881 -1.8569
14852SOL    HW245242   0.570   1.194   7.197  0.7413 -1.4900  1.4870
14853SOL     OW45243   5.606   5.205   3.072  0.0174 -0.3841  0.0153
14853SOL    HW145244   5.637   5.126   3.028 -0.1283 -0.9500  0.9021
14853SOL    HW245245   5.629   5.277   3.012  0.3554 -1.0719 -0.6926
14854SOL     OW45246   0.996   0.998   0.359 -0.1137 -0.1591 -0.2264
14854SOL    HW145247   0.942   0.935   0.408  0.8928  0.6468  2.0231
14854SOL    HW245248   1.085   0.965   0.367  0.2868  0.9525  0.0333
14855SOL     OW45249   0.932   5.577   1.711 -0.1855  0.1245 -0.1546
14855SOL    HW145250   0.881   5.593   1.631  0.7338 -1.5307 -1.1431
14855SOL    HW245251   0.902   5.492   1.742 -0.9442  1.0110  1.6455
14856SOL     OW45252   4.811   1.814   7.673 -0.1183 -0.4668  0.4290
14856SOL    HW145253   4.864   1.783   7.599 -0.7619 -0.0742 -0.2065
14856SOL    HW245254   4.872   1.814   7.747  1.4800  2.1926 -0.7183
14857SOL     OW45255   1.708   1.445   7.273  0.1309  0.5818 -0.4826
14857SOL    HW145256   1.698   1.472   7.182 -1.0175  0.1966 -0.4820
14857SOL    HW245257   1.800   1.420   7.280 -0.3490 -2.0692 -2.2827
14858SOL     OW45258   5.161   4.365   5.106 -0.0289 -0.0540  0.3301
14858SOL    HW145259   5.068   4.381   5.087  0.2987  2.9086  0.7510
14858SOL    HW245260   5.202   4.357   5.019 -0.4736  0.0334  0.1110
14859SOL     OW45261   7.049   5.771   6.409 -0.1123 -0.3894 -0.5234
14859SOL    HW145262   7.144   5.783   6.399 -0.3735  1.5089 -1.0169
14859SOL    HW245263   7.032   5.787   6.501 -0.0508  0.0782 -0.5919
14860SOL     OW45264   5.900   6.815   0.059  0.4577 -0.1844  0.5037
14860SOL    HW145265   5.814   6.795   0.022  0.2876  0.5945  0.4644
14860SOL    HW245266   5.962   6.766   0.004  0.0864 -0.2763  0.1627
14861SOL     OW45267   2.864   5.829   3.012  0.2815 -0.4060  0.4096
14861SOL    HW145268   2.874   5.741   3.048  0.3102 -0.8452 -0.6531
14861SOL    HW245269   2.858   5.885   3.090 -0.3254 -1.3982  1.1079
14862SOL     OW45270   1.064   6.958   6.706 -0.4983 -0.5156 -0.4324
14862SOL    HW145271   1.084   6.992   6.619 -3.4866 -0.8965 -1.4021
14862SOL    HW245272   1.103   6.871   6.708  0.5774 -0.0592 -0.9302
14863SOL     OW45273   1.507   6.810   7.577 -0.4606 -0.1066  0.0547
14863SOL    HW145274   1.419   6.814   7.614 -1.0352 -4.2999 -0.3626
14863SOL    HW245275   1.560   6.771   7.646  0.6761  0.7916 -0.2958
14864SOL     OW45276   0.100   0.674   5.133  0.0313  0.2694 -0.0241
14864SOL    HW145277   0.150   0.592   5.136 -1.5009 -0.7289 -0.6075
14864SOL    HW245278   0.144   0.725   5.065  0.7494 -0.2461  0.0373
14865SOL     OW45279   5.323   4.510   7.771  0.6086 -0.2314 -0.1349
14865SOL    HW145280   5.267   4.571   7.820  2.9495  1.4626  0.6305
14865SOL    HW245281   5.365   4.566   7.705 -0.4162 -1.9451 -2.3686
14866SOL     OW45282   6.824   2.564   1.626 -0.4082 -0.1342  0.3633
14866SOL    HW145283   6.863   2.598   1.707 -0.9172 -0.3413  0.7011
14866SOL    HW245284   6.776   2.638   1.590 -1.4636 -0.4598  1.0654
14867SOL     OW45285   0.516   0.571   0.588  0.0708 -0.4659 -0.3447
14867SOL    HW145286   0.425   0.587   0.610  0.2777 -0.5702  0.6323
14867SOL    HW245287   0.563   0.647   0.622  0.3270 -0.2916 -1.0659
14868SOL     OW45288   1.491   2.723   2.668  1.1682  0.3780  0.0653
14868SOL    HW145289   1.481   2.641   2.717 -0.6356 -0.3670 -1.4573
14868SOL    HW245290   1.579   2.718   2.632  1.5364 -0.2939  1.0005
14869SOL     OW45291   5.604   4.455   7.459  0.5202  0.1466 -0.1685
14869SOL    HW145292   5.596   4.508   7.539 -0.7746 -1.0776  0.5621
14869SOL    HW245293   5.584   4.366   7.488 -1.4650 -0.1060 -2.1369
14870SOL     OW45294   5.907   2.417   4.372  0.3796  0.4534 -0.2896
14870SOL    HW145295   5.881   2.472   4.298  1.3652  0.5030 -0.6097
14870SOL    HW245296   5.892   2.473   4.449 -1.3435  0.1470 -0.3640
14871SOL     OW45297   2.078   7.461   4.379  0.0401  0.2049  0.2515
14871SOL    HW145298   2.006   7.450   4.317  1.1110 -2.5497 -0.6896
14871SOL    HW245299   2.142   7.514   4.332 -0.1844  0.2280 -0.0309
14872SOL     OW45300   4.729   4.476   6.084 -0.6028 -0.2884 -0.3554
14872SOL    HW145301   4.684   4.470   6.168 -2.0472  0.7225 -1.0191
14872SOL    HW245302   4.660   4.492   6.020  0.5885  0.2701 -1.5675
14873SOL     OW45303   3.512   6.362   7.743 -0.2083  0.0397 -0.2751
14873SOL    HW145304   3.516   6.334   7.835  1.6808 -0.3992 -0.4330
14873SOL    HW245305   3.599   6.339   7.708 -0.5955  0.9740 -1.9454
14874SOL     OW45306   7.201   4.467   5.556 -0.1461 -0.2633  0.5696
14874SOL    HW145307   7.136   4.400   5.579 -0.8076  0.3283  0.4756
14874SOL    HW245308   7.173   4.545   5.605 -0.6153  0.5389 -0.8990
14875SOL     OW45309   3.707   3.743   0.704  0.2041  0.2369 -0.1814
14875SOL    HW145310   3.769   3.796   0.654  0.2176  0.7671  0.3982
14875SOL    HW245311   3.666   3.804   0.765  0.8785 -0.5805  1.1332
14876SOL     OW45312   2.164   0.764   1.854 -0.7582 -0.3837 -0.4762
14876SOL    HW145313   2.220   0.717   1.791  0.8121  0.0573  0.5215
14876SOL    HW245314   2.145   0.847   1.812 -0.9759 -0.6938 -0.9922
14877SOL     OW45315   4.060   4.323   6.143 -0.3327  0.2317 -0.3863
14877SOL    HW145316   4.052   4.276   6.060 -0.0083  0.9332 -0.8287
14877SOL    HW245317   4.109   4.402   6.120  0.2693  0.1478  0.5934
14878SOL     OW45318   1.507   1.401   7.595 -0.3539 -0.4498 -0.4506
14878SOL    HW145319   1.460   1.320   7.615  0.6677 -1.2876 -1.3171
14878SOL    HW245320   1.438   1.467   7.584 -1.1200 -0.7369  2.0948
14879SOL     OW45321   7.750   4.956   6.714  0.2242 -0.3109  0.3668
14879SOL    HW145322   7.830   4.955   6.766 -0.6960 -1.2244  1.8051
14879SOL    HW245323   7.681   4.980   6.776 -0.7693 -0.5413 -0.6216
14880SOL     OW45324   3.075   5.629   0.290  0.7414 -0.2461 -0.1332
14880SOL    HW145325   3.065   5.721   0.266  2.9896 -0.4718 -2.3852
14880SOL    HW245326   2.995   5.587   0.258  0.1037  0.7641  0.0813
14881SOL     OW45327   0.378   3.327   4.516  0.1847  0.3053  0.2916
14881SOL    HW145328   0.358   3.391   4.448 -1.2819  0.1001  0.5052
14881SOL    HW245329   0.421   3.379   4.585  0.3659  0.7732 -0.1604
14882SOL     OW45330   0.068   6.290   5.918  0.7464 -0.1774  0.1569
14882SOL    HW145331   0.073   6.195   5.912 -0.3466 -0.2111 -0.5492
14882SOL    HW245332  -0.013   6.313   5.873 -0.5453  0.8640  2.8266
14883SOL     OW45333   5.497   7.253   4.948  0.5463 -0.0743 -0.3574
14883SOL    HW145334   5.584   7.213   4.952  0.2271 -0.7349  0.2912
14883SOL    HW245335   5.464   7.247   5.038 -0.9986 -1.7443 -0.9834
14884SOL     OW45336   0.965   0.397   6.943  0.4115 -0.1559  0.3333
14884SOL    HW145337   1.031   0.405   7.012 -0.6693  0.2268  1.3514
14884SOL    HW245338   0.977   0.309   6.908  2.0991  0.2433 -0.1870
14885SOL     OW45339   0.286   2.864   0.200 -0.0317 -0.3780  0.1859
14885SOL    HW145340   0.327   2.811   0.131 -0.4861  0.6401 -0.8968
14885SOL    HW245341   0.358   2.883   0.261  0.6517 -0.2906 -0.6329
14886SOL     OW45342   5.569   1.733   4.673  0.1985 -0.2126 -0.4427
14886SOL    HW145343   5.641   1.793   4.652  1.3425 -1.8913 -1.6316
14886SOL    HW245344   5.582   1.711   4.765 -0.0075  1.0164 -0.1005
14887SOL     OW45345   7.452   0.929   2.124 -0.3081 -0.0012  0.2624
14887SOL    HW145346   7.479   1.014   2.161 -0.4829  0.1789 -0.0208
14887SOL    HW245347   7.433   0.948   2.033 -1.3462 -0.1337  0.4437
14888SOL     OW45348   4.062   4.425   3.450 -0.1404  0.3390 -0.2325
14888SOL    HW145349   4.029   4.496   3.506  0.2346 -1.0913  1.9016
14888SOL    HW245350   4.046   4.345   3.500  2.0004 -0.8617 -1.3222
14889SOL     OW45351   3.757   3.182   1.618 -0.1484  0.3460  0.0943
14889SOL    HW145352   3.728   3.205   1.706 -0.8102 -0.3504  0.0610
14889SOL    HW245353   3.852   3.173   1.626 -0.1460  0.8001  0.6160
14890SOL     OW45354   0.610   6.788   2.055  0.0028  0.5465  0.1022
14890SOL    HW145355   0.622   6.842   1.977  1.1089 -0.7570 -0.6776
14890SOL    HW245356   0.697   6.751   2.072 -0.9881 -2.2464 -0.3858
14891SOL     OW45357   1.684   3.410   7.551 -0.2974  0.1303  0.6056
14891SOL    HW145358   1.625   3.374   7.485 -0.4550 -0.0700  0.8541
14891SOL    HW245359   1.672   3.354   7.627 -0.0941  0.3429  0.7959
14892SOL     OW45360   5.869   1.060   2.386  0.0984 -0.2574 -0.3787
14892SOL    HW145361   5.811   1.026   2.317  2.3943 -0.3056 -2.4310
14892SOL    HW245362   5.873   0.989   2.450 -0.8592 -0.8812 -0.9669
14893SOL     OW45363   5.833   0.115   5.289 -0.0354 -0.0869  0.5550
14893SOL    HW145364   5.884   0.049   5.243  0.7087  2.0100 -1.9131
14893SOL    HW245365   5.747   0.113   5.247  0.6550  1.8616 -1.1213
14894SOL     OW45366   5.352   3.444   3.103  0.1699 -0.0427  0.0827
14894SOL    HW145367   5.369   3.498   3.181 -0.1838  0.4828 -0.1997
14894SOL    HW245368   5.304   3.368   3.136 -0.1717  0.2851  0.3478
14895SOL     OW45369   2.994   5.975   6.417  0.0350  0.3137 -0.5372
14895SOL    HW145370   3.023   5.905   6.359  1.8255  1.4692 -1.1205
14895SOL    HW245371   3.002   5.938   6.505  0.9745 -0.2431 -0.8364
14896SOL     OW45372   7.547   6.811   2.019  0.1712  0.5505  0.1963
14896SOL    HW145373   7.499   6.846   2.094  0.4017  2.0415 -0.3367
14896SOL    HW245374   7.492   6.830   1.943  0.3418 -0.1922 -0.1274
14897SOL     OW45375   5.776   7.330   3.095  0.1916  0.3128  0.1670
14897SOL    HW145376   5.831   7.409   3.091  0.6476 -0.0011  0.1190
14897SOL    HW245377   5.833   7.260   3.061 -0.1616 -0.0593  0.3387
14898SOL     OW45378   6.984   6.895   1.145 -0.4216 -0.0381  0.3508
14898SOL    HW145379   6.986   6.868   1.237  0.7185  0.5213  0.5032
14898SOL    HW245380   7.030   6.825   1.098 -3.6262 -1.9298 -0.2968
14899SOL     OW45381   7.000   2.262   3.585 -0.4081 -0.2409 -0.0283
14899SOL    HW145382   6.972   2.262   3.677  1.0844 -0.8720  0.4565
14899SOL    HW245383   6.947   2.330   3.544 -0.0188  1.1417  1.6428
14900SOL     OW45384   2.247   0.097   7.589 -0.2744  0.1091  0.4513
14900SOL    HW145385   2.215   0.120   7.676  0.2167 -1.4268  1.0657
14900SOL    HW245386   2.309   0.167   7.567  0.0570  0.2001  1.6023
14901SOL     OW45387   4.642   4.023   1.531  1.1694 -0.0997 -0.2576
14901SOL    HW145388   4.688   4.012   1.615 -0.4626 -1.6034  0.4996
14901SOL    HW245389   4.589   4.101   1.543  0.4533 -0.6681  0.3760
14902SOL     OW45390   4.564   7.240   6.347 -0.5142  0.1763  0.1111
14902SOL    HW145391   4.524   7.153   6.349 -1.9512  0.8117  0.7474
14902SOL    HW245392   4.601   7.247   6.259 -0.4942 -1.0151  0.0083
14903SOL     OW45393   5.665   4.744   3.039  0.0265 -0.0236 -0.3422
14903SOL    HW145394   5.615   4.798   2.978 -1.1145  0.0194  0.5861
14903SOL    HW245395   5.599   4.708   3.098  1.0843 -0.0329  0.8753
14904SOL     OW45396   0.788   7.063   6.683 -0.5162 -0.0383  0.4496
14904SOL    HW145397   0.750   7.009   6.752 -0.1804 -0.5987  0.1920
14904SOL    HW245398   0.882   7.056   6.695 -0.4724  1.0422  0.8397
14905SOL     OW45399   5.901   7.100   0.038  0.2865  0.2048 -0.4187
14905SOL    HW145400   5.987   7.103  -0.002 -0.5621  0.9605 -2.3068
14905SOL    HW245401   5.853   7.036  -0.014 -0.0424 -0.9359  1.2097
14906SOL     OW45402   1.527   0.001   6.798 -0.4244 -0.3226  0.1708
14906SOL    HW145403   1.591  -0.069   6.814 -0.8176 -1.3307 -2.2727
14906SOL    HW245404   1.442  -0.038   6.819 -0.4179  0.5074  1.8911
14907SOL     OW45405   5.410   5.824   1.085 -0.3622  0.2965  0.3371
14907SOL    HW145406   5.350   5.831   1.159  0.4079  0.6746  0.9456
14907SOL    HW245407   5.473   5.895   1.099 -1.5097  1.9030 -1.9436
14908SOL     OW45408   2.531   2.865   1.471  0.2863 -0.2777 -0.1509
14908SOL    HW145409   2.502   2.775   1.454 -0.9183 -0.1750  1.1658
14908SOL    HW245410   2.614   2.854   1.517  0.9069 -0.6657 -1.3315
14909SOL     OW45411   5.262   7.274   1.709 -0.1721 -0.0682 -0.1389
14909SOL    HW145412   5.225   7.279   1.797 -1.3166 -1.6078 -0.4782
14909SOL    HW245413   5.356   7.278   1.721 -0.3510  1.2612  1.0065
14910SOL     OW45414   2.259   4.993   0.901 -0.1334 -0.2722  0.4206
14910SOL    HW145415   2.252   4.899   0.913  0.2130 -0.5076 -1.0948
14910SOL    HW245416   2.332   5.019   0.957 -1.2979 -0.6067  2.1642
14911SOL     OW45417   3.139   1.952   7.661  0.4228 -0.0277 -0.1910
14911SOL    HW145418   3.123   2.030   7.714  0.2642 -1.2523  1.6099
14911SOL    HW245419   3.207   1.904   7.708 -1.0477 -2.0892 -0.0702
14912SOL     OW45420   5.119   5.464   5.994 -0.9099 -0.3466  0.4216
14912SOL    HW145421   5.173   5.471   6.072 -0.4746 -0.4004  0.1259
14912SOL    HW245422   5.031   5.444   6.027 -0.8414  0.1541  0.9242
14913SOL     OW45423   1.054   5.685   4.423 -0.3218 -0.4621  0.0483
14913SOL    HW145424   1.014   5.718   4.342 -0.0587 -0.3555 -0.0395
14913SOL    HW245425   1.008   5.730   4.493 -0.8674 -0.8945 -0.0226
14914SOL     OW45426   6.615   6.191   3.693  0.2266  0.3272 -0.2525
14914SOL    HW145427   6.693   6.247   3.701  1.2673 -0.9896 -0.7936
14914SOL    HW245428   6.580   6.187   3.782  0.3417  1.5207 -0.1308
14915SOL     OW45429   5.748   4.140   3.363 -0.2423 -0.3803 -0.3274
14915SOL    HW145430   5.732   4.215   3.419  1.1188 -1.3325  1.4258
14915SOL    HW245431   5.723   4.170   3.275 -2.3337  1.1762  0.7186
14916SOL     OW45432   1.565   1.322   4.937 -0.4942  0.0158  0.2411
14916SOL    HW145433   1.500   1.267   4.893 -0.4194 -0.4127  0.6478
14916SOL    HW245434   1.529   1.336   5.025 -1.0405  1.5567 -0.2096
14917SOL     OW45435   2.345   1.618   2.924 -0.4428 -0.4645 -0.1275
14917SOL    HW145436   2.344   1.671   3.004 -2.1185 -0.4070 -0.1420
14917SOL    HW245437   2.295   1.670   2.861  0.0336 -0.9506 -0.9127
14918SOL     OW45438   6.457   6.653   3.974  0.0982 -0.5438 -0.6282
14918SOL    HW145439   6.479   6.738   4.012 -0.6857 -0.1749 -0.9639
14918SOL    HW245440   6.494   6.589   4.034  0.1243  0.0353 -0.0190
14919SOL     OW45441   7.130   0.843   2.439  0.4594  0.1491  0.1059
14919SOL    HW145442   7.123   0.845   2.344  1.2351 -0.2795  0.0283
14919SOL    HW245443   7.058   0.898   2.470  0.6048  0.8327 -0.7389
14920SOL     OW45444   0.382   5.878   5.012  0.5755  0.4844  0.0956
14920SOL    HW145445   0.411   5.953   5.063  0.1893  0.9370 -0.3471
14920SOL    HW245446   0.315   5.912   4.954  1.7710  0.2157 -1.5056
14921SOL     OW45447   1.878   6.371   5.394 -0.1131  0.1729  0.3332
14921SOL    HW145448   1.903   6.428   5.467  1.1760 -0.1789  0.1946
14921SOL    HW245449   1.797   6.329   5.422  1.0952 -1.0271  2.1803
14922SOL     OW45450   7.152   0.396   0.939  0.4523 -0.0566  0.1390
14922SOL    HW145451   7.202   0.478   0.940  1.2369 -0.5101 -0.5378
14922SOL    HW245452   7.108   0.395   0.854 -0.1271 -0.0093  0.4327
14923SOL     OW45453   3.089   6.924   4.914  0.2197 -0.0630 -0.0479
14923SOL    HW145454   3.180   6.912   4.887 -0.1591 -1.0177 -0.9813
14923SOL    HW245455   3.063   7.008   4.875  0.8683  0.5245  0.7516
14924SOL     OW45456   6.911   5.012   2.675 -0.1315  0.1795 -0.5196
14924SOL    HW145457   6.865   5.086   2.636 -0.8295 -0.6893 -1.3988
14924SOL    HW245458   6.990   5.050   2.713 -0.8050  1.4659 -0.3672
14925SOL     OW45459   2.774   5.403   5.743  0.3320  0.6256  0.2856
14925SOL    HW145460   2.833   5.424   5.815 -0.3976 -0.0490  1.1041
14925SOL    HW245461   2.707   5.472   5.745  0.0822  0.3796  0.5235
14926SOL     OW45462   5.404   3.066   5.717 -0.1795  0.1898 -0.0470
14926SOL    HW145463   5.347   3.140   5.693 -0.5878 -0.3370 -0.7645
14926SOL    HW245464   5.361   2.990   5.677  0.5897 -0.3390  0.1204
14927SOL     OW45465   5.710   6.077   1.669 -0.2680 -0.2838 -0.2649
14927SOL    HW145466   5.672   6.147   1.615  0.6879  0.9357  0.5890
14927SOL    HW245467   5.708   6.000   1.612 -1.1047  0.4857 -1.3346
14928SOL     OW45468   5.696   7.639   5.146  0.0675  0.9774 -0.4746
14928SOL    HW145469   5.726   7.599   5.064 -2.4264  0.1385 -1.0777
14928SOL    HW245470   5.726   7.579   5.214 -1.0664 -0.4163 -1.1401
14929SOL     OW45471   0.858   1.947   3.047 -0.3423 -0.0188 -0.4032
14929SOL    HW145472   0.933   1.889   3.065  1.0782  2.3311  2.0677
14929SOL    HW245473   0.804   1.941   3.126 -1.3209  0.3998 -1.0245
14930SOL     OW45474   5.795   4.799   2.163 -0.6540 -0.0767  0.5404
14930SOL    HW145475   5.813   4.727   2.103  0.0132 -0.0934  0.7532
14930SOL    HW245476   5.799   4.759   2.250  1.5007  0.5367  0.7722
14931SOL     OW45477   1.908   6.023   7.410 -0.1720  0.7301  0.1071
14931SOL    HW145478   1.932   6.018   7.503  1.1128 -0.1088 -0.2326
14931SOL    HW245479   1.986   6.061   7.368 -0.2090 -0.1672 -0.7985
14932SOL     OW45480   5.023   7.526   7.712 -0.4296  0.3390  0.3894
14932SOL    HW145481   5.081   7.590   7.671 -0.2841 -0.1097 -0.1272
14932SOL    HW245482   4.935   7.560   7.695 -0.3616  0.2886 -0.0907
14933SOL     OW45483   3.393   1.218   0.626 -0.0752  0.3517 -0.4568
14933SOL    HW145484   3.477   1.188   0.661  0.2252 -1.0364 -2.2029
14933SOL    HW245485   3.394   1.312   0.640 -0.9063 -0.0908  5.0550
14934SOL     OW45486   4.728   0.464   1.540  0.0439 -0.0249  0.4839
14934SOL    HW145487   4.717   0.546   1.589 -0.3561  0.4300 -0.3389
14934SOL    HW245488   4.639   0.433   1.524  0.1058  0.4841 -0.9907
14935SOL     OW45489   3.859   6.485   4.392 -0.6496 -0.0118 -0.4450
14935SOL    HW145490   3.845   6.563   4.338 -0.5985  1.4966  1.6002
14935SOL    HW245491   3.950   6.461   4.375 -0.8746 -0.0814 -1.6363
14936SOL     OW45492   6.123   1.945   6.363 -0.1695  0.3776 -0.3277
14936SOL    HW145493   6.057   2.014   6.364 -0.5330  0.0696  1.4568
14936SOL    HW245494   6.203   1.988   6.333 -0.7081  1.2366 -0.5590
14937SOL     OW45495   1.193   4.064   2.735 -0.0023  0.2389 -0.2144
14937SOL    HW145496   1.128   4.084   2.802 -0.7494  0.3426 -0.9515
14937SOL    HW245497   1.165   4.116   2.659 -0.7918 -1.9421 -1.4965
14938SOL     OW45498   7.428   3.479   5.075 -0.1057 -0.7214 -0.4823
14938SOL    HW145499   7.368   3.549   5.098  0.1868 -0.1024 -1.5298
14938SOL    HW245500   7.413   3.464   4.981  0.8314 -1.0746 -0.5887
14939SOL     OW45501   4.814   3.320   1.780 -0.3103 -0.8947 -0.3613
14939SOL    HW145502   4.860   3.254   1.833  0.3516  0.5685  0.9660
14939SOL    HW245503   4.745   3.353   1.838 -1.5855 -1.4307 -1.5323
14940SOL     OW45504   6.721   1.823   2.942 -0.6472 -0.0099 -0.7345
14940SOL    HW145505   6.744   1.784   2.858  1.9037 -0.3027  0.0286
14940SOL    HW245506   6.745   1.758   3.007  0.7123  1.5318  0.3887
14941SOL     OW45507   6.948   2.962   1.558  0.4140 -0.2154  0.1894
14941SOL    HW145508   6.911   2.950   1.646  1.8833 -1.4711  0.6956
14941SOL    HW245509   6.948   2.874   1.520  1.5018 -0.0078 -0.3316
14942SOL     OW45510   5.748   2.818   4.664 -0.1230  0.1943 -0.4408
14942SOL    HW145511   5.808   2.839   4.592 -0.0408 -0.2303 -0.5000
14942SOL    HW245512   5.694   2.896   4.675 -1.7830 -0.5425 -2.5766
14943SOL     OW45513   4.299   5.024   5.644 -0.1220 -0.3634 -0.2172
14943SOL    HW145514   4.297   5.026   5.740 -3.5415 -1.6687 -0.1084
14943SOL    HW245515   4.227   5.081   5.618  0.3994 -0.4763 -1.9910
14944SOL     OW45516   1.558   7.293   6.483 -0.1936  0.4690  0.0625
14944SOL    HW145517   1.525   7.375   6.519 -3.3255 -1.1850  1.3486
14944SOL    HW245518   1.605   7.251   6.555 -0.2356  0.2912 -0.0119
14945SOL     OW45519   5.755   7.088   6.713  0.1104  0.6182 -0.5218
14945SOL    HW145520   5.715   7.041   6.640  1.1731  0.2327 -0.8681
14945SOL    HW245521   5.837   7.123   6.678  0.7513  0.2204  0.5333
14946SOL     OW45522   4.366   2.274   1.923 -0.2848  0.2094 -0.5902
14946SOL    HW145523   4.271   2.264   1.925 -0.3396  0.0348 -2.4516
14946SOL    HW245524   4.398   2.191   1.887  0.2951  1.4240 -3.0667
14947SOL     OW45525   5.962   0.526   2.810  0.5487  0.1066 -0.0980
14947SOL    HW145526   5.931   0.443   2.847 -0.7003  0.3297 -0.5957
14947SOL    HW245527   5.988   0.577   2.887 -1.2257  0.2542  0.4576
14948SOL     OW45528   3.288   0.737   1.988  0.1455 -0.1628  0.3990
14948SOL    HW145529   3.214   0.725   1.928 -0.0620 -1.5168  0.8704
14948SOL    HW245530   3.273   0.822   2.029 -1.7725 -0.8633  1.2804
14949SOL     OW45531   5.938   4.374   1.892  0.0481 -0.2019 -0.2937
14949SOL    HW145532   6.002   4.317   1.935 -1.7225 -1.5950  0.6385
14949SOL    HW245533   5.864   4.316   1.873 -0.9160  1.3277 -1.4107
14950SOL     OW45534   7.537   7.664   4.768 -0.9163 -0.2580 -0.1511
14950SOL    HW145535   7.570   7.574   4.763 -1.7968 -0.6536  0.7728
14950SOL    HW245536   7.476   7.672   4.695  0.5336  0.2194 -1.3757
14951SOL     OW45537   6.428   6.993   6.574  0.1539  0.6672  0.8949
14951SOL    HW145538   6.505   6.937   6.568  0.0593  0.5617  0.6940
14951SOL    HW245539   6.455   7.075   6.532 -0.7801 -0.3478 -1.8399
14952SOL     OW45540   7.529   4.339   1.890  0.8362  0.3466  0.3253
14952SOL    HW145541   7.514   4.382   1.975  1.1144  1.9719 -0.4032
14952SOL    HW245542   7.609   4.380   1.856  1.3825 -1.1149 -0.2283
14953SOL     OW45543   1.459   4.081   1.554 -0.7257  0.0138  0.5998
14953SOL    HW145544   1.488   4.162   1.511 -0.1886 -0.0618  0.8107
14953SOL    HW245545   1.535   4.053   1.606 -1.3377  0.0694  1.5460
14954SOL     OW45546   3.379   3.185   5.806 -0.0567 -0.4842  0.2981
14954SOL    HW145547   3.468   3.158   5.785  0.3129  1.0662 -0.2480
14954SOL    HW245548   3.327   3.105   5.797  1.2407 -1.3807  0.4874
14955SOL     OW45549   7.001   0.996   4.410  0.1303 -0.3135  0.9232
14955SOL    HW145550   6.998   0.921   4.351  0.7187  0.3264  0.0686
14955SOL    HW245551   6.912   1.031   4.409  0.5381  0.8365 -1.1217
14956SOL     OW45552   6.836   1.087   1.006 -0.0332  0.2285  0.1574
14956SOL    HW145553   6.814   1.005   0.962 -0.8415 -0.5019  1.8392
14956SOL    HW245554   6.932   1.086   1.011 -0.0528 -0.8442  0.5681
14957SOL     OW45555   6.423   0.111   3.781 -0.2466  0.6289 -0.4823
14957SOL    HW145556   6.349   0.058   3.811  0.1610 -0.4330 -1.3008
14957SOL    HW245557   6.384   0.195   3.757 -1.0497  0.3742 -0.1070
14958SOL     OW45558   1.354   1.460   1.833 -0.1478 -0.1790 -0.4571
14958SOL    HW145559   1.374   1.384   1.887 -1.3333 -0.0106  0.2604
14958SOL    HW245560   1.293   1.512   1.886  0.8080  1.3924 -0.8420
14959SOL     OW45561   7.067   3.692   1.486 -0.4029  0.5580  0.0952
14959SOL    HW145562   7.117   3.772   1.498 -0.1484  0.3844  0.2000
14959SOL    HW245563   7.072   3.647   1.570 -2.6486  1.6074  0.8717
14960SOL     OW45564   5.070   3.564   5.035  0.3706 -0.4168  0.6827
14960SOL    HW145565   4.990   3.588   4.990  1.3092 -0.1524 -0.9214
14960SOL    HW245566   5.085   3.636   5.097  0.0666  0.1927  0.0570
14961SOL     OW45567   6.132   0.060   4.752  0.0426 -0.0728  0.0429
14961SOL    HW145568   6.154   0.115   4.676 -0.1520 -0.2792 -0.1649
14961SOL    HW245569   6.060   0.005   4.721 -0.4678  0.2850  0.5735
14962SOL     OW45570   0.311   6.445   6.535  0.0877 -0.4391 -0.2497
14962SOL    HW145571   0.315   6.502   6.611  1.1766  0.8004 -1.1742
14962SOL    HW245572   0.239   6.384   6.553  1.7096 -1.7039  2.7628
14963SOL     OW45573   3.778   7.228   1.914 -0.0385  0.4214 -0.0694
14963SOL    HW145574   3.785   7.321   1.937  0.7549  0.4419 -0.3394
14963SOL    HW245575   3.775   7.228   1.818 -3.1755  0.3355 -0.0815
14964SOL     OW45576   7.700   3.023   3.634  0.3011 -0.9627  0.1490
14964SOL    HW145577   7.780   3.030   3.581 -0.4692  1.4942 -0.7962
14964SOL    HW245578   7.645   2.961   3.585  1.0316 -1.5498  0.0444
14965SOL     OW45579   4.701   7.494   1.631  0.9194  0.0018 -0.3629
14965SOL    HW145580   4.738   7.575   1.667 -0.4930  0.4974  0.0595
14965SOL    HW245581   4.637   7.524   1.567  0.1461 -0.7722  0.0359
14966SOL     OW45582   5.729   4.328   5.210  0.2087  0.5866 -0.2385
14966SOL    HW145583   5.813   4.306   5.170 -0.2044 -1.9903  0.1412
14966SOL    HW245584   5.750   4.351   5.300  0.5729  0.5715 -0.3181
14967SOL     OW45585   0.339   1.022   0.911  0.0749  0.1822 -0.3693
14967SOL    HW145586   0.385   0.940   0.929  0.1883 -0.0451 -1.6509
14967SOL    HW245587   0.357   1.076   0.988  0.4325 -0.7982  0.2573
14968SOL     OW45588   6.946   2.370   7.662  0.6688  0.2907 -0.5387
14968SOL    HW145589   6.896   2.346   7.584  1.8195 -0.1601 -1.1708
14968SOL    HW245590   7.033   2.392   7.629  0.9660  0.8117  0.5481
14969SOL     OW45591   7.110   7.038   0.346  0.4565  0.7182  0.4449
14969SOL    HW145592   7.035   6.998   0.390  0.4691  0.8036  0.5411
14969SOL    HW245593   7.186   7.003   0.391  0.4932  0.2159  0.0106
14970SOL     OW45594   4.997   7.431   3.863  0.1616  0.3187 -0.0762
14970SOL    HW145595   4.950   7.359   3.821 -1.0952  0.6914  0.6452
14970SOL    HW245596   5.022   7.396   3.949  0.9573  0.2246 -0.3389
14971SOL     OW45597   6.749   1.172   4.386 -0.5961 -0.0530 -0.0136
14971SOL    HW145598   6.684   1.148   4.452 -0.9887  1.9304  0.3697
14971SOL    HW245599   6.700   1.218   4.319  0.2708  0.6835 -0.1643
14972SOL     OW45600   6.761   4.718   5.663 -0.6874 -0.4048  0.1283
14972SOL    HW145601   6.687   4.687   5.715 -1.0454 -0.6393 -0.5177
14972SOL    HW245602   6.818   4.761   5.727 -1.4764 -0.0381  0.5991
14973SOL     OW45603   1.804   4.183   0.163  0.1559  0.4501  0.7466
14973SOL    HW145604   1.848   4.101   0.143  0.8563  0.5840  1.6547
14973SOL    HW245605   1.813   4.192   0.258 -0.7675  1.0963  0.7892
14974SOL     OW45606   0.142   3.846   5.690  0.2041 -0.0697 -0.1603
14974SOL    HW145607   0.166   3.819   5.601  0.1646 -0.0661 -0.1718
14974SOL    HW245608   0.131   3.764   5.738 -0.3463 -0.0849 -0.3046
14975SOL     OW45609   1.665   2.420   4.509 -0.0940  0.2736 -0.0099
14975SOL    HW145610   1.716   2.402   4.588  1.1020  0.4273 -0.7180
14975SOL    HW245611   1.610   2.342   4.497 -1.7793  1.0591  2.0470
14976SOL     OW45612   1.719   1.184   1.980 -0.4721  0.0051 -0.0362
14976SOL    HW145613   1.652   1.123   2.009 -0.9034  0.1214 -0.7499
14976SOL    HW245614   1.730   1.165   1.887  0.1765  0.2806 -0.0216
14977SOL     OW45615   2.095   7.060   1.448  0.5632  0.5981  0.0345
14977SOL    HW145616   2.185   7.082   1.471  0.8508  0.6111 -1.0819
14977SOL    HW245617   2.050   7.144   1.443  0.5023  0.5976  0.4901
14978SOL     OW45618   4.866   0.342   0.106 -0.3805  0.5014  0.4389
14978SOL    HW145619   4.955   0.375   0.121 -0.1055  0.5554 -1.0830
14978SOL    HW245620   4.842   0.299   0.187  1.3815 -0.2593  0.6073
14979SOL     OW45621   6.826   0.856   6.769  0.2499  0.0635  0.0135
14979SOL    HW145622   6.900   0.814   6.812  1.2381  1.1741 -0.5657
14979SOL    HW245623   6.750   0.826   6.819  1.0487 -1.2094  0.5298
14980SOL     OW45624   3.631   0.721   2.990 -0.0383 -0.0885 -0.1725
14980SOL    HW145625   3.658   0.743   2.901 -2.2610  3.7257 -0.1136
14980SOL    HW245626   3.688   0.775   3.046 -0.4949 -0.3315  0.5463
14981SOL     OW45627   1.764   6.184   3.928 -0.2203 -0.2974  0.0502
14981SOL    HW145628   1.813   6.259   3.894  2.2167 -1.6805  0.2920
14981SOL    HW245629   1.675   6.197   3.896  0.2366  2.3734 -0.3853
14982SOL     OW45630   1.950   5.971   6.877  0.4859  0.1422  0.6359
14982SOL    HW145631   1.937   5.960   6.971  1.4839 -2.0800  0.5645
14982SOL    HW245632   2.042   5.950   6.863 -0.0330 -1.2623 -1.0387
14983SOL     OW45633   2.584   5.350   6.127  0.0150  0.1574 -0.1694
14983SOL    HW145634   2.599   5.400   6.208  0.3300  1.0177 -0.7505
14983SOL    HW245635   2.511   5.395   6.084  0.7201  0.5123 -1.0096
14984SOL     OW45636   2.993   0.067   6.234 -0.7179 -0.0697 -0.0799
14984SOL    HW145637   3.075   0.113   6.214 -0.5057 -1.0909 -1.7729
14984SOL    HW245638   2.933   0.136   6.262  0.1447  0.9827 -0.7300
14985SOL     OW45639   3.653   6.923   0.910 -0.1529 -0.2137 -0.4413
14985SOL    HW145640   3.647   7.017   0.892  0.4855 -0.0737  0.0313
14985SOL    HW245641   3.694   6.918   0.996 -1.6002 -0.8927  0.2425
14986SOL     OW45642   2.382   1.103   5.376 -0.2434 -0.2225  0.5005
14986SOL    HW145643   2.351   1.027   5.426 -1.9676 -0.0778 -0.3035
14986SOL    HW245644   2.303   1.145   5.345  0.7476  1.0202 -0.4091
14987SOL     OW45645   4.810   6.110   0.184  0.2952 -0.1731 -0.7186
14987SOL    HW145646   4.903   6.094   0.199  0.1578  0.3408  0.8509
14987SOL    HW245647   4.794   6.197   0.221 -0.8906 -0.4314 -0.5792
14988SOL     OW45648   4.974   4.357   4.799  0.3368 -0.8512  0.0842
14988SOL    HW145649   4.971   4.327   4.708 -0.1651  0.1874 -0.2544
14988SOL    HW245650   5.058   4.403   4.805 -0.6740  1.2069 -0.5792
14989SOL     OW45651   0.555   4.918   2.544 -0.2972  0.1672  0.2090
14989SOL    HW145652   0.579   4.875   2.626 -1.2608  3.2856  2.3015
14989SOL    HW245653   0.462   4.897   2.532 -1.1304  2.4145  1.9295
14990SOL     OW45654   0.755   7.385   7.398 -0.2889 -0.0406 -0.6528
14990SOL    HW145655   0.844   7.421   7.406  0.4115 -1.7833 -0.1461
14990SOL    HW245656   0.727   7.370   7.488 -0.9904  0.2450 -0.8236
14991SOL     OW45657   0.583   5.199   0.343  0.4148 -0.6095 -0.5821
14991SOL    HW145658   0.499   5.154   0.357 -0.1206  0.1752 -1.1461
14991SOL    HW245659   0.558   5.290   0.325  1.5433  0.3174  2.0422
14992SOL     OW45660   4.520   7.328   1.146  0.1108 -0.6861  0.5642
14992SOL    HW145661   4.556   7.398   1.091  0.7876  0.8528  2.8009
14992SOL    HW245662   4.596   7.283   1.181 -0.2636 -1.0057  0.9800
14993SOL     OW45663   3.087   2.841   4.686 -0.0902 -0.2047 -0.5952
14993SOL    HW145664   3.121   2.888   4.762  0.8368  0.1325 -1.2007
14993SOL    HW245665   3.144   2.765   4.677 -1.7292 -1.6433  0.5334
14994SOL     OW45666   7.770   2.536   5.517  0.4528 -0.0707 -0.1567
14994SOL    HW145667   7.719   2.468   5.473 -0.5144  1.0228 -0.7865
14994SOL    HW245668   7.734   2.539   5.606  1.4199 -1.2829  0.3014
14995SOL     OW45669   6.063   6.752   3.935 -0.4442  0.2656 -0.6048
14995SOL    HW145670   6.121   6.809   3.884  0.3941 -0.4023 -0.4328
14995SOL    HW245671   6.022   6.810   3.998  0.1441  0.7486 -0.6539
14996SOL     OW45672   3.213   0.025   6.462  0.1673  0.3634 -0.1082
14996SOL    HW145673   3.225   0.079   6.384 -0.0404  0.2577 -0.2146
14996SOL    HW245674   3.131  -0.022   6.446 -0.2715  0.9156  0.5117
14997SOL     OW45675   3.281   7.277   0.719  0.0674  0.0842  0.4560
14997SOL    HW145676   3.187   7.293   0.711 -0.0135 -0.9143 -1.0083
14997SOL    HW245677   3.318   7.317   0.641  0.8586  0.3633  0.9634
14998SOL     OW45678   3.220   5.602   7.196 -0.2137  0.1071 -0.1377
14998SOL    HW145679   3.205   5.692   7.167 -0.1767 -0.2845 -1.4451
14998SOL    HW245680   3.144   5.581   7.251 -0.3930  0.8200 -0.1066
14999SOL     OW45681   2.973   3.212   7.111  0.1055 -0.6759  0.5869
14999SOL    HW145682   3.017   3.162   7.042 -0.9612  1.6038 -1.9514
14999SOL    HW245683   3.039   3.274   7.142 -0.3548  0.7304 -1.0842
15000SOL     OW45684   1.827   5.844   6.677  0.0438 -0.3180 -0.2737
15000SOL    HW145685   1.898   5.805   6.625 -0.1947 -1.2861  0.0969
15000SOL    HW245686   1.873   5.899   6.741  0.3841  0.1256 -0.8850
15001SOL     OW45687   1.745   0.221   0.011 -0.0846  0.0762 -0.1090
15001SOL    HW145688   1.680   0.291   0.014 -0.9100 -0.4454 -2.6977
15001SOL    HW245689   1.825   0.264  -0.021 -0.5509 -0.0732 -1.5579
15002SOL     OW45690   5.978   4.050   0.405 -0.4228  0.2013 -0.5284
15002SOL    HW145691   5.947   3.969   0.445 -1.4425  0.2490 -1.1753
15002SOL    HW245692   5.938   4.120   0.457 -0.6950  0.2702 -0.8248
15003SOL     OW45693   1.055   7.097   6.441 -0.1362  0.4699  0.1595
15003SOL    HW145694   1.134   7.138   6.476 -0.4755  1.5523 -0.2996
15003SOL    HW245695   1.027   7.155   6.371 -1.1830 -0.0517  0.1278
15004SOL     OW45696   0.077   2.632   2.974 -0.6205 -0.2771  0.1758
15004SOL    HW145697   0.071   2.704   3.037  1.0160  1.0423 -1.0786
15004SOL    HW245698   0.033   2.666   2.896  0.5236 -0.4504 -0.5634
15005SOL     OW45699   2.833   6.519   6.275  0.1700  0.5095  0.6525
15005SOL    HW145700   2.773   6.477   6.213  0.0849  1.1020  0.3351
15005SOL    HW245701   2.875   6.445   6.320  0.9029  0.0373 -0.7417
15006SOL     OW45702   2.870   1.832   5.883 -0.2989 -0.3253 -0.2912
15006SOL    HW145703   2.806   1.770   5.849 -0.9652 -0.0419  0.4410
15006SOL    HW245704   2.926   1.779   5.941 -1.1107 -0.1825  0.6479
15007SOL     OW45705   7.328   6.822   0.815  0.4295  0.1635 -0.7039
15007SOL    HW145706   7.306   6.903   0.861  0.7437 -0.5053  0.6741
15007SOL    HW245707   7.247   6.798   0.770 -0.5523 -0.2105  1.1506
15008SOL     OW45708   4.752   6.876   3.765  0.2385  0.0530 -0.9236
15008SOL    HW145709   4.779   6.838   3.849 -1.5862 -0.1888 -0.3875
15008SOL    HW245710   4.833   6.898   3.721  1.2936 -1.3154  0.2257
15009SOL     OW45711   3.028   4.368   4.337 -0.3195  0.4394 -0.1278
15009SOL    HW145712   2.973   4.397   4.264 -1.2494 -1.7836 -0.3930
15009SOL    HW245713   3.089   4.306   4.297 -0.1912 -0.0480  0.8090
15010SOL     OW45714   6.212   4.375   0.838 -0.0456 -0.2880 -0.0785
15010SOL    HW145715   6.217   4.304   0.773 -2.9608 -0.3614 -0.3711
15010SOL    HW245716   6.152   4.342   0.905  2.4142  0.0139  2.4956
15011SOL     OW45717   1.493   0.344   2.585  0.1583 -0.8001  0.3778
15011SOL    HW145718   1.570   0.398   2.602  0.0237 -0.4803 -0.0178
15011SOL    HW245719   1.524   0.254   2.595 -0.1307 -0.6696  3.3694
15012SOL     OW45720   5.974   2.892   5.415  0.3295  0.1335 -0.0132
15012SOL    HW145721   5.987   2.984   5.394  1.3115 -0.0402 -0.2355
15012SOL    HW245722   6.063   2.856   5.417  0.0761 -0.4948  1.4946
15013SOL     OW45723   3.269   3.763   0.916 -0.2700  0.0365  0.4678
15013SOL    HW145724   3.218   3.714   0.981  0.0472 -0.8842  0.0421
15013SOL    HW245725   3.337   3.702   0.888 -0.3856  0.4254 -0.7185
15014SOL     OW45726   3.802   1.301   6.219 -0.3678 -0.0413 -0.1968
15014SOL    HW145727   3.754   1.384   6.214 -1.3130 -0.6217 -3.4742
15014SOL    HW245728   3.857   1.301   6.141  0.0159 -2.2473  0.0091
15015SOL     OW45729   1.774   0.318   4.739 -0.7398  1.0427 -0.0326
15015SOL    HW145730   1.704   0.306   4.803 -0.5950  0.8382  0.0886
15015SOL    HW245731   1.835   0.379   4.779 -2.1148  3.2880 -1.1649
15016SOL     OW45732   5.419   6.940   3.916 -0.1945  0.1605  0.6453
15016SOL    HW145733   5.353   6.891   3.965  1.6668 -3.5224 -0.2257
15016SOL    HW245734   5.380   6.954   3.830 -0.8106  0.4541  0.9632
15017SOL     OW45735   4.253   3.885   5.723 -0.1490  0.3449 -0.0894
15017SOL    HW145736   4.185   3.865   5.659 -0.8262  1.2204  0.3333
15017SOL    HW245737   4.251   3.981   5.730  1.5469  0.4412 -0.5263
15018SOL     OW45738   6.581   6.401   2.906  0.0133  0.6233 -0.0214
15018SOL    HW145739   6.551   6.311   2.919 -1.1227  0.9712 -0.1236
15018SOL    HW245740   6.520   6.438   2.842  0.1633  1.6126  0.3825
15019SOL     OW45741   7.356   5.452   6.990  0.5960 -0.6949 -0.4045
15019SOL    HW145742   7.451   5.452   6.981  0.6064  0.4766 -0.4370
15019SOL    HW245743   7.323   5.454   6.901  0.5587 -0.2930 -0.3843
15020SOL     OW45744   1.630   3.776   0.793  0.1174 -0.1368  0.8572
15020SOL    HW145745   1.674   3.854   0.827 -0.3690  0.1038  0.9481
15020SOL    HW245746   1.688   3.703   0.817  0.4486  0.1694  0.9975
15021SOL     OW45747   4.792   2.423   4.961  0.4433 -0.1228  0.2936
15021SOL    HW145748   4.774   2.464   5.045 -1.9388  0.9775 -0.6581
15021SOL    HW245749   4.712   2.376   4.939  0.1341  1.3462 -2.2451
15022SOL     OW45750   1.748   7.714   4.741 -0.1892  0.8061 -0.0037
15022SOL    HW145751   1.839   7.704   4.713 -0.4349  0.6438 -0.7712
15022SOL    HW245752   1.700   7.651   4.688 -0.9757  2.0539 -0.8073
15023SOL     OW45753   5.620   4.171   7.196  0.0640 -0.2542  0.2935
15023SOL    HW145754   5.584   4.083   7.206  0.6396 -0.5744 -0.3575
15023SOL    HW245755   5.685   4.163   7.126 -0.5564  0.8987 -0.4558
15024SOL     OW45756   1.774   4.105   1.404 -0.1949  0.1417  0.2043
15024SOL    HW145757   1.688   4.145   1.397  0.9061  2.5469 -0.6054
15024SOL    HW245758   1.820   4.158   1.470  2.1322  1.9764 -2.6331
15025SOL     OW45759   2.577   3.875   7.234  0.6916  0.1586  0.0368
15025SOL    HW145760   2.636   3.811   7.273 -0.1335  0.1917  1.4213
15025SOL    HW245761   2.496   3.826   7.219  0.8117  0.2937 -1.1584
15026SOL     OW45762   0.934   5.714   3.066 -0.1532 -0.0371  0.1000
15026SOL    HW145763   0.869   5.667   3.014 -0.9702  0.0098  1.0285
15026SOL    HW245764   0.970   5.648   3.125  1.3360 -0.2656 -1.0123
15027SOL     OW45765   3.884   3.718   2.701  0.3197  0.1737  0.0061
15027SOL    HW145766   3.957   3.700   2.761 -0.1908  1.9932  1.2579
15027SOL    HW245767   3.895   3.654   2.631  2.0175 -0.8366  1.1098
15028SOL     OW45768   2.396   5.981   1.935  0.2630  0.0212  0.2031
15028SOL    HW145769   2.394   5.898   1.887 -0.1541 -0.0694  0.3681
15028SOL    HW245770   2.409   6.047   1.868  0.9587 -0.2074  0.1078
15029SOL     OW45771   3.648   3.130   4.015 -0.0383 -0.0749  0.0626
15029SOL    HW145772   3.689   3.198   4.068  1.1987 -0.0610 -0.8754
15029SOL    HW245773   3.648   3.166   3.926 -3.3076  0.5082  0.1380
15030SOL     OW45774   4.711   6.247   0.491 -0.7964  0.0221 -0.5872
15030SOL    HW145775   4.633   6.301   0.504 -0.4154  0.1574  1.4943
15030SOL    HW245776   4.781   6.309   0.471 -0.7553  0.1270 -0.1262
15031SOL     OW45777   3.326   1.545   0.208  0.0443 -0.1886 -0.2809
15031SOL    HW145778   3.233   1.566   0.203  0.4885  2.0091 -0.0133
15031SOL    HW245779   3.352   1.528   0.118 -0.6571 -1.1249 -0.3226
15032SOL     OW45780   2.447   1.587   0.583 -0.0699  0.0269  0.5091
15032SOL    HW145781   2.411   1.546   0.504  0.4967 -0.2800  0.4125
15032SOL    HW245782   2.374   1.641   0.616 -0.0959  0.7299 -0.6182
15033SOL     OW45783   0.963   7.618   1.304 -0.4265 -0.0437 -0.1442
15033SOL    HW145784   0.928   7.679   1.240  0.2346  0.6404  0.1369
15033SOL    HW245785   0.950   7.532   1.264 -1.7287  0.2363 -0.3613
15034SOL     OW45786   6.088   4.642   7.363  0.4599  0.0867 -0.3020
15034SOL    HW145787   6.082   4.679   7.451 -1.2824  1.2634 -0.8408
15034SOL    HW245788   6.152   4.697   7.318 -2.1663  2.7471 -1.1185
15035SOL     OW45789   6.870   0.756   5.852 -0.7168 -0.2073  0.1085
15035SOL    HW145790   6.855   0.794   5.939  0.3063 -0.0021  0.2106
15035SOL    HW245791   6.937   0.690   5.866 -0.7516 -0.3746 -0.4847
15036SOL     OW45792   6.326   0.984   4.910  0.4899 -0.5063  0.9715
15036SOL    HW145793   6.357   0.913   4.853 -1.4152  0.7775 -1.8386
15036SOL    HW245794   6.402   1.042   4.918  1.6283 -2.0458  2.1362
15037SOL     OW45795   3.694   0.305   5.039 -0.1636  0.2150  0.1028
15037SOL    HW145796   3.782   0.322   5.006  0.3414  3.3148  2.5321
15037SOL    HW245797   3.696   0.214   5.068  1.5917 -0.3615 -1.6685
15038SOL     OW45798   3.853   4.832   6.625 -0.3187 -0.1349 -0.6352
15038SOL    HW145799   3.825   4.759   6.569 -1.0241  0.2292 -0.7712
15038SOL    HW245800   3.831   4.910   6.574  2.2947  0.1973 -1.4167
15039SOL     OW45801   2.314   7.379   4.864  0.3547  0.0226  0.3307
15039SOL    HW145802   2.253   7.344   4.800 -0.3104 -0.1448  1.0424
15039SOL    HW245803   2.378   7.309   4.877  1.2595  0.5457 -1.1049
15040SOL     OW45804   6.614   1.046   7.515  0.0285 -0.6168 -0.0751
15040SOL    HW145805   6.706   1.024   7.507 -0.1047 -0.9505 -0.7354
15040SOL    HW245806   6.580   1.045   7.425 -0.7539 -1.1285  0.2107
15041SOL     OW45807   7.045   5.525   6.728 -0.4068  0.3448  0.2429
15041SOL    HW145808   7.057   5.585   6.802 -1.6345  0.8687  0.0412
15041SOL    HW245809   7.134   5.506   6.698  0.1058  0.2874  1.7103
15042SOL     OW45810   6.013   1.363   3.806 -0.0867  0.0176  0.4734
15042SOL    HW145811   5.999   1.338   3.714  0.3630  0.7679  0.1912
15042SOL    HW245812   6.106   1.382   3.812  0.1424 -1.2768  1.4233
15043SOL     OW45813   5.072   6.470   1.739 -0.2139  0.6275 -0.1013
15043SOL    HW145814   5.145   6.471   1.677  1.0492 -1.3173  1.2796
15043SOL    HW245815   5.004   6.419   1.694  1.0195 -1.5427  0.3747
15044SOL     OW45816   5.105   1.681   4.081  0.0627  0.2321  0.3109
15044SOL    HW145817   5.170   1.703   4.148  0.3660  2.4629 -0.6458
15044SOL    HW245818   5.029   1.652   4.131  0.8849  0.0942  1.5397
15045SOL     OW45819   0.419   7.159   7.515 -0.1515  0.1315  0.2076
15045SOL    HW145820   0.420   7.236   7.459  0.3287 -0.5158 -0.6951
15045SOL    HW245821   0.510   7.144   7.538 -0.2808  0.0431  0.6815
15046SOL     OW45822   2.176   3.845   3.742  0.3770  0.0261  0.0617
15046SOL    HW145823   2.210   3.888   3.820  1.9043 -0.0838 -0.4991
15046SOL    HW245824   2.244   3.857   3.676 -1.7256  1.9215 -1.9312
15047SOL     OW45825   2.000   4.305   6.788  0.3920  0.0626 -0.0199
15047SOL    HW145826   1.932   4.252   6.831  0.4852 -0.0305  0.0146
15047SOL    HW245827   1.985   4.292   6.694  0.5750 -0.2332 -0.0103
15048SOL     OW45828   4.733   2.114   2.380 -0.2329  0.2506  0.1472
15048SOL    HW145829   4.643   2.091   2.358 -0.2232  0.3395  0.0158
15048SOL    HW245830   4.737   2.209   2.367 -0.4272  0.4240  1.2058
15049SOL     OW45831   3.221   4.972   4.801  0.4426 -0.2171  0.2683
15049SOL    HW145832   3.276   5.022   4.861 -0.3366  1.2570 -0.1762
15049SOL    HW245833   3.131   4.998   4.823  0.1307  0.2007 -1.3674
15050SOL     OW45834   6.634   6.298   4.316  0.2170 -0.1567 -0.0475
15050SOL    HW145835   6.592   6.263   4.395 -0.5546  0.6693 -0.0843
15050SOL    HW245836   6.616   6.391   4.317  1.7890  0.1814 -0.2524
15051SOL     OW45837   6.423   2.191   3.733 -0.2435 -0.3104 -0.0873
15051SOL    HW145838   6.388   2.128   3.796 -0.1550 -1.2150 -0.9178
15051SOL    HW245839   6.497   2.146   3.693 -0.3927  0.1734 -0.9435
15052SOL     OW45840   7.731   3.196   2.776  0.4052 -0.0073  0.0275
15052SOL    HW145841   7.658   3.134   2.771 -0.3764  0.9689 -1.0312
15052SOL    HW245842   7.743   3.211   2.870 -0.7218 -0.2096  0.2154
15053SOL     OW45843   2.251   6.583   3.659 -0.7805  0.7024 -0.1846
15053SOL    HW145844   2.254   6.487   3.651  0.6351  0.5964  1.1657
15053SOL    HW245845   2.195   6.599   3.734 -2.3660  1.0598 -1.3745
15054SOL     OW45846   1.967   1.408   1.964  0.0964  0.3437 -0.0831
15054SOL    HW145847   1.977   1.393   2.058 -0.2878  0.5678 -0.0016
15054SOL    HW245848   1.909   1.339   1.935  0.3362  0.1850 -0.1858
15055SOL     OW45849   5.387   4.312   2.340 -0.2489  0.3372 -0.1068
15055SOL    HW145850   5.434   4.384   2.297  0.9093 -0.4450 -0.2056
15055SOL    HW245851   5.374   4.342   2.430  1.6661  0.0776  0.3036
15056SOL     OW45852   3.877   1.871   1.058 -0.3683  0.6696  0.0871
15056SOL    HW145853   3.941   1.935   1.025 -0.0811  0.9883  1.2132
15056SOL    HW245854   3.807   1.925   1.095  0.1602  0.3604  1.5996
15057SOL     OW45855   0.427   7.223   4.264 -0.0070 -0.1567  0.0939
15057SOL    HW145856   0.439   7.286   4.193  1.0053  1.0317  1.2605
15057SOL    HW245857   0.490   7.250   4.331 -0.7385 -1.3923  1.3375
15058SOL     OW45858   1.548   6.182   2.470 -0.1885  0.1139 -0.7401
15058SOL    HW145859   1.591   6.260   2.503 -0.1878  0.4140 -1.4399
15058SOL    HW245860   1.606   6.149   2.402  0.0746 -0.8024 -0.0990
15059SOL     OW45861   3.626   5.832   5.185 -0.0975 -0.1818 -0.0465
15059SOL    HW145862   3.572   5.889   5.240  0.4878  0.8943 -0.5500
15059SOL    HW245863   3.713   5.870   5.190  1.0947 -2.8320  2.1028
15060SOL     OW45864   6.368   5.948   5.342 -0.1261  0.0665 -0.0761
15060SOL    HW145865   6.425   5.986   5.408  0.2836  0.2686 -0.5333
15060SOL    HW245866   6.413   5.966   5.259 -1.6696  1.7493 -0.6086
15061SOL     OW45867   3.441   2.244   6.555  0.4038  0.5515 -0.1657
15061SOL    HW145868   3.361   2.292   6.533 -0.7034 -0.9311  0.5116
15061SOL    HW245869   3.418   2.190   6.630  2.6433  1.6132  1.4395
15062SOL     OW45870   3.957   2.239   2.235 -0.0360 -0.0128 -0.0672
15062SOL    HW145871   3.881   2.189   2.204 -0.9652 -1.8598  4.3893
15062SOL    HW245872   3.921   2.299   2.301  2.0546  1.1516  0.1026
15063SOL     OW45873   4.967   0.024   4.883  0.0361 -0.5764 -0.6176
15063SOL    HW145874   5.017   0.104   4.865  1.0744 -1.3223 -1.1989
15063SOL    HW245875   4.905   0.017   4.811 -0.0279 -0.3129 -0.5885
15064SOL     OW45876   2.147   3.581   1.542  0.2234 -0.1431 -0.2441
15064SOL    HW145877   2.120   3.643   1.475  0.0356 -1.4169 -1.3853
15064SOL    HW245878   2.131   3.495   1.503 -2.1727 -0.9877  2.3279
15065SOL     OW45879   3.613   6.591   3.848  0.1251 -0.3080  0.0579
15065SOL    HW145880   3.526   6.586   3.889 -0.3249 -0.4233 -0.8804
15065SOL    HW245881   3.629   6.502   3.816 -0.5456  0.2553 -1.9918
15066SOL     OW45882   2.708   3.623   1.595  0.8457 -0.2015  0.1972
15066SOL    HW145883   2.618   3.590   1.605  0.6151  0.2837 -0.2243
15066SOL    HW245884   2.749   3.607   1.680  0.5185 -0.9011  0.2342
15067SOL     OW45885   0.460   5.851   4.576 -0.4754 -0.0509 -0.3631
15067SOL    HW145886   0.436   5.767   4.614  0.1171 -0.2079 -0.3204
15067SOL    HW245887   0.455   5.913   4.649 -0.1094 -0.2062 -0.2043
15068SOL     OW45888   1.183   6.579   4.396 -0.4759 -0.5373 -0.3828
15068SOL    HW145889   1.244   6.562   4.468 -2.0648  0.3482  1.2463
15068SOL    HW245890   1.215   6.660   4.356 -1.3426  0.7776  1.4272
15069SOL     OW45891   1.160   5.829   2.268 -0.2289 -0.1246  0.0130
15069SOL    HW145892   1.252   5.818   2.245  0.3230  0.4337  1.7802
15069SOL    HW245893   1.153   5.791   2.356 -1.0821  2.1386  0.9845
15070SOL     OW45894   0.078   4.156   4.168  0.2770 -0.0383  0.2078
15070SOL    HW145895   0.034   4.168   4.253  1.6412  1.0516  0.8127
15070SOL    HW245896   0.104   4.064   4.167 -0.7372 -0.3368  0.4729
15071SOL     OW45897   7.749   7.771   1.656 -0.0556  0.4910 -0.4539
15071SOL    HW145898   7.783   7.800   1.571 -0.8246  0.7405 -0.6898
15071SOL    HW245899   7.723   7.680   1.642  0.2196  0.3991 -0.3647
15072SOL     OW45900   5.328   5.908   0.426 -0.4090 -0.3384  0.7502
15072SOL    HW145901   5.318   5.823   0.467 -2.2875  0.5048  2.1584
15072SOL    HW245902   5.399   5.951   0.476 -1.1165 -0.1874  1.6472
15073SOL     OW45903   4.698   1.084   3.046  0.0746 -0.1087  0.3653
15073SOL    HW145904   4.636   1.013   3.066  0.5400 -0.2924  1.2093
15073SOL    HW245905   4.643   1.162   3.040 -0.4473 -0.5302 -0.5804
15074SOL     OW45906   5.912   1.233   7.762 -0.2541 -0.1342 -0.7128
15074SOL    HW145907   5.883   1.287   7.689 -1.1788 -2.3429 -2.1090
15074SOL    HW245908   6.006   1.222   7.748 -0.3260 -0.0656 -1.2679
15075SOL     OW45909   1.813   4.070   7.421  0.5086 -0.2659  0.3062
15075SOL    HW145910   1.738   4.127   7.404  0.4718 -0.4447 -0.1546
15075SOL    HW245911   1.780   4.007   7.485  0.3721 -0.1276  0.3747
15076SOL     OW45912   0.015   4.966   7.442 -0.0788  0.1248 -0.1033
15076SOL    HW145913   0.096   5.012   7.420  0.4229 -1.7221 -2.5629
15076SOL    HW245914  -0.050   5.036   7.454  0.9388  1.5713 -2.3486
15077SOL     OW45915   7.436   1.211   0.817  0.4555  0.2873 -0.0540
15077SOL    HW145916   7.434   1.303   0.789  0.8523  0.8411  1.6406
15077SOL    HW245917   7.360   1.171   0.775  0.7502  1.1541 -1.5099
15078SOL     OW45918   4.927   4.360   3.895 -0.0517 -0.1031  0.7358
15078SOL    HW145919   4.957   4.325   3.810  0.5997 -2.0224  1.6994
15078SOL    HW245920   4.833   4.344   3.896 -0.1921  0.6123  0.0930
15079SOL     OW45921   5.443   3.149   1.663 -0.1558 -0.5849 -0.3527
15079SOL    HW145922   5.458   3.150   1.568  1.2806 -2.2696 -0.2045
15079SOL    HW245923   5.530   3.136   1.701 -0.7019  0.0903  1.2208
15080SOL     OW45924   5.405   3.083   6.370 -0.3115  0.6487  0.6871
15080SOL    HW145925   5.483   3.046   6.328 -0.8753 -1.1146  1.1291
15080SOL    HW245926   5.332   3.052   6.317 -0.7401  2.6884 -0.0106
15081SOL     OW45927   4.021   4.133   6.887  0.2548  0.6356 -0.7231
15081SOL    HW145928   3.976   4.107   6.968  0.3101  0.9932 -0.5752
15081SOL    HW245929   4.087   4.065   6.874  0.5354  0.8096 -0.2290
15082SOL     OW45930   7.756   0.522   6.862 -0.5086  0.2111 -0.4364
15082SOL    HW145931   7.681   0.576   6.837  0.2327  1.4050 -0.1420
15082SOL    HW245932   7.832   0.573   6.835  0.2268 -0.3702  0.5006
15083SOL     OW45933   6.393   0.257   1.736 -0.0656 -0.2098 -0.4267
15083SOL    HW145934   6.396   0.198   1.811  2.0571  1.6518  1.0849
15083SOL    HW245935   6.484   0.260   1.704 -0.4342  1.0170 -1.4352
15084SOL     OW45936   6.603   0.247   5.882  0.0573  0.1180  0.2740
15084SOL    HW145937   6.695   0.265   5.864  0.9546 -2.4948  1.6840
15084SOL    HW245938   6.560   0.252   5.797  1.9281 -0.7388 -0.7758
15085SOL     OW45939   7.427   6.019   0.167  1.2042  0.2957  0.1854
15085SOL    HW145940   7.477   5.976   0.236  1.1937 -0.5793 -0.3394
15085SOL    HW245941   7.373   5.950   0.129 -2.7870  1.6404  2.7142
15086SOL     OW45942   7.503   4.778   2.116  0.0737  0.8369  0.4256
15086SOL    HW145943   7.425   4.773   2.173 -0.1832 -0.3319 -0.0188
15086SOL    HW245944   7.481   4.846   2.053 -1.2846 -0.5781 -0.6951
15087SOL     OW45945   6.330   4.258   0.340  0.5016  0.6059 -0.2824
15087SOL    HW145946   6.303   4.322   0.406 -1.3609 -0.3857  0.0070
15087SOL    HW245947   6.262   4.263   0.272  1.3594  0.2705 -1.1936
15088SOL     OW45948   6.078   6.165   4.788 -0.2719  0.1945  0.3934
15088SOL    HW145949   6.045   6.086   4.744 -0.0906  0.1083  0.4115
15088SOL    HW245950   6.003   6.224   4.790 -1.4265 -1.1550  3.2452
15089SOL     OW45951   7.032   1.998   3.536  0.0590  0.6293 -0.1984
15089SOL    HW145952   7.028   1.974   3.628 -1.8673  2.1294  0.1761
15089SOL    HW245953   7.055   2.091   3.537 -0.2094  0.7158 -1.2215
15090SOL     OW45954   6.083   1.483   2.454 -0.3345 -0.1275 -0.1307
15090SOL    HW145955   6.162   1.493   2.401  0.4042  0.2064  0.9944
15090SOL    HW245956   6.062   1.389   2.449  0.3892 -0.2979 -0.0958
15091SOL     OW45957   3.888   6.253   4.821  0.0502 -0.3384 -0.3282
15091SOL    HW145958   3.906   6.197   4.746 -0.6661 -1.1719  0.1140
15091SOL    HW245959   3.884   6.194   4.896  0.5432  0.4525  0.3560
15092SOL     OW45960   3.364   7.414   3.502 -0.7639  0.5869  0.0378
15092SOL    HW145961   3.445   7.462   3.489 -0.1472 -0.4332 -0.0410
15092SOL    HW245962   3.304   7.447   3.435 -0.0575  0.5867 -0.6010
15093SOL     OW45963   3.136   2.861   3.558  0.0651  0.3374 -0.3898
15093SOL    HW145964   3.224   2.891   3.577 -0.5339  0.0996  3.5694
15093SOL    HW245965   3.139   2.766   3.569 -0.6341  0.3164 -0.2958
15094SOL     OW45966   1.240   5.960   4.622  0.5666 -0.1426  0.5904
15094SOL    HW145967   1.238   5.872   4.661 -0.8069 -0.4606 -0.1316
15094SOL    HW245968   1.201   6.016   4.689 -0.8018 -0.5133  0.1475
15095SOL     OW45969   0.577   0.690   3.302  0.4930  0.0726 -0.2292
15095SOL    HW145970   0.642   0.653   3.242  0.9194  0.8526 -0.2664
15095SOL    HW245971   0.625   0.703   3.384  0.1681 -0.0829 -0.0110
15096SOL     OW45972   3.478   1.567   1.452 -0.3869  0.8785  0.4881
15096SOL    HW145973   3.425   1.562   1.372  1.5018  0.9699 -0.8109
15096SOL    HW245974   3.437   1.638   1.503 -0.8789  1.6668 -0.9494
15097SOL     OW45975   3.557   4.441   4.200  0.4809 -0.4645 -0.3089
15097SOL    HW145976   3.605   4.410   4.123 -0.8545 -2.0720 -0.5609
15097SOL    HW245977   3.486   4.495   4.164  1.2605  0.7876 -0.0239
15098SOL     OW45978   1.769   1.220   7.537 -0.1481  0.3392  0.0678
15098SOL    HW145979   1.714   1.154   7.580 -1.3561  1.8050  0.8418
15098SOL    HW245980   1.710   1.293   7.519  1.7037  2.3698  1.7797
15099SOL     OW45981   2.517   4.146   2.626 -0.6671  0.0200 -0.3714
15099SOL    HW145982   2.453   4.177   2.690  2.0178  2.4161  1.4159
15099SOL    HW245983   2.577   4.092   2.678  0.4465  0.3383 -1.3031
15100SOL     OW45984   0.224   1.052   4.039  0.0310 -0.4444  0.3272
15100SOL    HW145985   0.304   1.027   3.992  0.7579  2.6706 -0.3231
15100SOL    HW245986   0.253   1.070   4.128 -0.3467 -1.2768  0.6223
15101SOL     OW45987   0.059   0.687   0.322  0.1155  0.3178 -0.3537
15101SOL    HW145988   0.151   0.709   0.307 -0.0057  1.4441  0.4253
15101SOL    HW245989   0.015   0.712   0.241  0.6897 -1.7368 -1.3756
15102SOL     OW45990   4.839   0.798   6.485 -0.3031  0.5201 -0.0229
15102SOL    HW145991   4.888   0.743   6.546 -1.6568 -0.9869 -0.2551
15102SOL    HW245992   4.748   0.771   6.494 -0.5002 -0.3977 -3.3109
15103SOL     OW45993   0.079   4.146   4.846  0.5855  0.1762  0.0761
15103SOL    HW145994   0.078   4.198   4.766  0.4092 -0.8966 -0.6509
15103SOL    HW245995   0.083   4.055   4.815  0.9550 -0.2430  1.2962
15104SOL     OW45996   1.061   2.918   6.627 -0.0995  0.4059  0.0496
15104SOL    HW145997   1.011   2.886   6.551 -3.3251 -1.2275  2.6086
15104SOL    HW245998   1.054   3.013   6.623 -2.3144  0.2674 -0.4837
15105SOL     OW45999   6.751   4.904   4.078  0.1465  0.4572 -0.5517
15105SOL    HW146000   6.806   4.891   4.155 -0.9637  1.9037  0.5410
15105SOL    HW246001   6.753   4.820   4.032  1.4570 -0.1911  0.6385
15106SOL     OW46002   1.292   1.685   3.247  0.4089  0.0176 -0.0290
15106SOL    HW146003   1.304   1.668   3.341  2.3152  0.4232 -0.1493
15106SOL    HW246004   1.371   1.649   3.206  0.3706  1.2748 -1.2790
15107SOL     OW46005   5.259   3.000   2.991 -0.3208 -0.3373 -0.8653
15107SOL    HW146006   5.214   2.945   3.055  0.2975 -0.5266 -0.5892
15107SOL    HW246007   5.349   3.005   3.022 -0.6183  1.8361 -0.2271
15108SOL     OW46008   1.340   6.803   4.247 -0.2998  0.3715 -0.0204
15108SOL    HW146009   1.329   6.849   4.164  0.5685  0.7242  0.0436
15108SOL    HW246010   1.378   6.868   4.306  0.4890 -0.2710  0.2093
15109SOL     OW46011   7.759   2.299   3.607 -1.1827  0.3767 -0.6166
15109SOL    HW146012   7.807   2.311   3.525  0.9673 -3.8313 -0.2585
15109SOL    HW246013   7.813   2.341   3.673 -0.3359 -0.3969 -0.8007
15110SOL     OW46014   6.186   6.662   1.534  0.6421  0.0083 -0.2115
15110SOL    HW146015   6.149   6.576   1.512 -0.9230  0.3640  0.9015
15110SOL    HW246016   6.251   6.643   1.602  0.1284 -0.2929  0.2075
15111SOL     OW46017   1.003   6.751   3.784 -1.0193 -0.2508  0.7879
15111SOL    HW146018   0.940   6.680   3.791 -0.9247 -0.5237 -0.8661
15111SOL    HW246019   1.078   6.722   3.836 -1.0859 -1.2585  0.3397
15112SOL     OW46020   2.148   3.781   1.338  1.1544 -0.4324  0.0285
15112SOL    HW146021   2.124   3.736   1.258  3.3216  0.2856 -1.0920
15112SOL    HW246022   2.074   3.840   1.356  0.6719 -0.5621 -1.4581
15113SOL     OW46023   4.068   5.002   6.884 -0.5357  0.5245 -0.4349
15113SOL    HW146024   4.134   5.030   6.947  0.7558 -0.6365 -1.2202
15113SOL    HW246025   4.009   4.945   6.934 -0.3813  0.7864  0.0523
15114SOL     OW46026   2.864   3.674   0.878  0.2625  0.1489  0.3681
15114SOL    HW146027   2.848   3.725   0.958  0.4930 -0.5549  0.8717
15114SOL    HW246028   2.865   3.583   0.908  1.2527 -0.0716 -0.2941
15115SOL     OW46029   7.129   2.266   6.747  0.2390 -0.0993  0.0304
15115SOL    HW146030   7.094   2.181   6.773 -1.1315  0.7818  1.1661
15115SOL    HW246031   7.058   2.306   6.696 -0.7035  1.8628  2.6626
15116SOL     OW46032   2.639   7.108   2.914  0.1720 -0.3323  0.2838
15116SOL    HW146033   2.580   7.183   2.902 -2.5398 -2.1078  1.6774
15116SOL    HW246034   2.664   7.112   3.006  0.3434 -0.8954  0.2628
15117SOL     OW46035   1.537   0.708   1.625 -0.0969 -0.4122 -0.2901
15117SOL    HW146036   1.623   0.694   1.665  0.1432 -1.6326 -1.1619
15117SOL    HW246037   1.480   0.647   1.671 -0.4008  0.0951  0.0020
15118SOL     OW46038   6.504   0.628   4.252  0.4839 -0.3371 -0.0108
15118SOL    HW146039   6.553   0.641   4.333 -1.0837  1.2590  0.7404
15118SOL    HW246040   6.570   0.635   4.183  1.6703 -0.6097  1.0629
15119SOL     OW46041   0.476   0.599   5.035 -0.2671 -0.3444 -0.2528
15119SOL    HW146042   0.398   0.545   5.024 -0.9754  0.3567  1.0072
15119SOL    HW246043   0.478   0.618   5.129  0.2343  1.3654 -0.5696
15120SOL     OW46044   6.846   5.015   1.160 -0.4455 -0.2971  0.1483
15120SOL    HW146045   6.772   5.055   1.114 -0.4703 -2.0312 -1.4060
15120SOL    HW246046   6.864   4.934   1.113  0.0270 -1.8368  2.7862
15121SOL     OW46047   7.390   6.989   5.738 -0.6675  0.3035 -0.3446
15121SOL    HW146048   7.475   6.944   5.742 -1.4416 -1.1680  0.6525
15121SOL    HW246049   7.412   7.080   5.722  1.0961 -0.0832 -0.3421
15122SOL     OW46050   4.609   5.769   4.037  0.7390  0.3043  0.0119
15122SOL    HW146051   4.535   5.773   4.098  0.6340 -2.0205  0.1433
15122SOL    HW246052   4.641   5.859   4.031 -0.7248  0.9885  1.6495
15123SOL     OW46053   3.306   5.025   6.041  0.0968  0.6692  0.1673
15123SOL    HW146054   3.385   5.074   6.063  0.4353  0.0890  0.2728
15123SOL    HW246055   3.234   5.080   6.072  0.4052  1.6797 -0.8716
15124SOL     OW46056   1.800   2.929   6.159 -0.1925  0.5388  0.2172
15124SOL    HW146057   1.778   2.888   6.242 -2.6013  1.9312  0.3575
15124SOL    HW246058   1.777   2.864   6.093  0.4572 -0.0641  0.5747
15125SOL     OW46059   1.533   4.207   5.293  0.4058  0.3040 -0.2425
15125SOL    HW146060   1.627   4.209   5.276  0.3953  1.5729 -0.2305
15125SOL    HW246061   1.493   4.193   5.207  0.6222 -1.3929 -0.0996
15126SOL     OW46062   7.440   7.161   3.692  0.6692 -0.0710 -0.4926
15126SOL    HW146063   7.399   7.145   3.777 -1.2496 -0.0359 -1.3566
15126SOL    HW246064   7.488   7.243   3.703 -0.7545  0.7076  0.1624
15127SOL     OW46065   3.955   6.532   2.192 -0.3844 -0.4939 -0.7976
15127SOL    HW146066   3.897   6.457   2.201 -1.7562  0.6005  0.0513
15127SOL    HW246067   3.911   6.602   2.241  0.4022  1.0917 -2.2178
15128SOL     OW46068   1.644   5.989   2.103  0.1830  0.4123  0.5004
15128SOL    HW146069   1.680   6.038   2.176  2.7836  0.9345 -0.9885
15128SOL    HW246070   1.650   6.049   2.028 -1.6570 -0.3509 -0.3364
15129SOL     OW46071   6.608   5.081   2.273  0.5460  0.1497  0.0794
15129SOL    HW146072   6.513   5.076   2.283  0.7889 -1.6041  2.1843
15129SOL    HW246073   6.634   4.993   2.246  1.5463  0.7277 -0.8955
15130SOL     OW46074   2.722   4.271   0.699  0.1932  0.0604  0.2419
15130SOL    HW146075   2.663   4.242   0.768  0.1240  0.8092  0.5010
15130SOL    HW246076   2.695   4.220   0.622 -0.6692  0.2501  0.4059
15131SOL     OW46077   0.437   5.733   5.391 -0.0192 -0.9253  0.3845
15131SOL    HW146078   0.410   5.681   5.466  0.3513 -2.0518 -0.2445
15131SOL    HW246079   0.385   5.700   5.318 -2.1803  1.7881  0.5344
15132SOL     OW46080   3.484   4.729   3.845  0.1964 -0.1694 -0.0034
15132SOL    HW146081   3.489   4.795   3.914 -3.0541 -0.4611  0.6635
15132SOL    HW246082   3.441   4.654   3.887  0.1092 -1.1717 -1.8011
15133SOL     OW46083   6.626   5.204   5.844 -0.1913 -0.1719 -0.1968
15133SOL    HW146084   6.689   5.271   5.816  0.0497 -1.1164 -2.0420
15133SOL    HW246085   6.545   5.226   5.798 -0.3291 -0.7244 -0.2259
15134SOL     OW46086   5.135   4.262   0.201 -0.1580 -0.4574 -0.0081
15134SOL    HW146087   5.131   4.358   0.206 -0.5269 -0.4935  0.4156
15134SOL    HW246088   5.167   4.234   0.287 -1.8427 -0.8104  0.5274
15135SOL     OW46089   2.419   5.505   1.468 -0.1178  0.4951 -0.0097
15135SOL    HW146090   2.488   5.440   1.452 -0.0782  0.4949  0.1637
15135SOL    HW246091   2.459   5.567   1.530 -1.2084 -1.0033  2.2928
15136SOL     OW46092   0.099   4.663   4.118 -0.5893 -0.3972  0.1888
15136SOL    HW146093   0.129   4.663   4.027 -0.0209 -1.0942  0.3640
15136SOL    HW246094   0.113   4.753   4.148  1.3961 -0.6825  0.2604
15137SOL     OW46095   5.502   6.588   5.704 -0.0047  0.1041  0.2621
15137SOL    HW146096   5.526   6.515   5.762  0.3343 -0.2234 -0.2783
15137SOL    HW246097   5.562   6.658   5.729  0.1148 -0.0231  0.3359
15138SOL     OW46098   1.976   3.513   4.402 -0.2447  0.3749 -0.0500
15138SOL    HW146099   2.041   3.447   4.381  1.1003  1.7218 -0.2817
15138SOL    HW246100   1.999   3.542   4.491 -1.6023 -0.3430  0.5641
15139SOL     OW46101   5.775   7.421   6.771 -0.2610 -0.0203  0.4431
15139SOL    HW146102   5.742   7.331   6.771 -3.3124  0.9333  2.3611
15139SOL    HW246103   5.841   7.423   6.840 -2.0215 -0.3414  2.2504
15140SOL     OW46104   4.555   0.298   4.509 -0.3028 -0.2567  0.1731
15140SOL    HW146105   4.628   0.355   4.533 -2.5018  2.1638  1.5916
15140SOL    HW246106   4.503   0.350   4.448 -1.5891 -1.3711  0.2785
15141SOL     OW46107   4.052   0.862   0.204 -0.6043  0.7237 -0.6284
15141SOL    HW146108   3.995   0.870   0.280 -1.0245  0.1352 -0.8712
15141SOL    HW246109   4.141   0.873   0.239 -0.8418  1.2520 -0.1875
15142SOL     OW46110   2.450   2.638   5.077  0.2653 -0.2028  0.4507
15142SOL    HW146111   2.541   2.666   5.066  0.5853 -0.2640  2.5167
15142SOL    HW246112   2.445   2.553   5.033 -0.1062  1.7736 -3.8305
15143SOL     OW46113   1.775   5.579   2.461  0.4173  0.4155 -0.1637
15143SOL    HW146114   1.839   5.547   2.397 -0.5054  0.6425 -1.2264
15143SOL    HW246115   1.822   5.577   2.544  1.2318 -1.1904 -0.6078
15144SOL     OW46116   5.239   5.898   3.400  0.6779  0.5288  0.1598
15144SOL    HW146117   5.279   5.876   3.484 -0.6127  0.9392  0.9076
15144SOL    HW246118   5.311   5.934   3.348  1.5496  0.0345  0.9886
15145SOL     OW46119   5.125   3.351   0.321 -0.2858 -0.1017 -0.3235
15145SOL    HW146120   5.036   3.335   0.289 -0.4009  0.5099 -0.3154
15145SOL    HW246121   5.116   3.355   0.416  0.2281 -3.0742 -0.0397
15146SOL     OW46122   0.977   3.763   7.224  0.7605  0.2669 -0.2192
15146SOL    HW146123   1.008   3.796   7.308  2.6346 -0.0986 -0.7088
15146SOL    HW246124   0.899   3.814   7.205  0.4583  0.5409  1.5963
15147SOL     OW46125   3.446   2.132   7.689 -0.1479  0.7005 -1.1633
15147SOL    HW146126   3.442   2.046   7.648  3.9127 -0.4513  0.3323
15147SOL    HW246127   3.527   2.171   7.656 -0.6110  2.9022  0.0778
15148SOL     OW46128   7.528   1.887   6.136 -0.1970 -0.0225  0.1188
15148SOL    HW146129   7.513   1.949   6.207 -0.3904 -0.2070  0.2403
15148SOL    HW246130   7.595   1.928   6.081  1.0876 -0.5594  1.2325
15149SOL     OW46131   6.280   0.931   3.673 -0.0217 -0.4317  0.3645
15149SOL    HW146132   6.307   0.894   3.588  1.0677  1.5266 -0.2121
15149SOL    HW246133   6.363   0.949   3.718 -0.3248  3.0693 -0.2413
15150SOL     OW46134   2.204   5.362   7.586  0.0801  0.4912  0.1189
15150SOL    HW146135   2.204   5.281   7.534  1.0948 -0.0353  0.8860
15150SOL    HW246136   2.231   5.430   7.524 -0.6607  0.2322 -0.5039
15151SOL     OW46137   3.274   3.827   6.514  0.1549 -0.5906 -0.0427
15151SOL    HW146138   3.334   3.887   6.469  1.1079 -2.1338 -0.9479
15151SOL    HW246139   3.287   3.844   6.607  0.1002  0.8555 -0.2794
15152SOL     OW46140   7.641   6.348   3.112  0.1693  0.6135  0.5803
15152SOL    HW146141   7.658   6.359   3.019  0.2726 -2.3880  0.1255
15152SOL    HW246142   7.546   6.348   3.119  0.1601  0.7224  0.4600
15153SOL     OW46143   6.950   4.436   0.225 -0.0157  0.0241  0.2868
15153SOL    HW146144   6.859   4.437   0.193 -0.4201  0.8517  1.4043
15153SOL    HW246145   6.979   4.527   0.215 -0.1385  0.2996  2.1620
15154SOL     OW46146   6.081   0.656   4.786  0.3567 -0.3733  0.6202
15154SOL    HW146147   6.008   0.641   4.726 -0.0909 -0.5742  1.2032
15154SOL    HW246148   6.082   0.578   4.842  0.3869  0.0734  1.2572
15155SOL     OW46149   4.743   5.909   4.931 -0.2374 -1.0902  0.4557
15155SOL    HW146150   4.675   5.844   4.945 -1.0391 -0.2653  0.4957
15155SOL    HW246151   4.825   5.861   4.940 -0.8120 -2.0785  0.5014
15156SOL     OW46152   6.064   2.567   0.652  0.4163  0.6116  0.5908
15156SOL    HW146153   6.094   2.505   0.585 -1.1426  1.4554 -0.9952
15156SOL    HW246154   5.971   2.546   0.663  0.2876  1.5278  1.3222
15157SOL     OW46155   4.579   0.978   6.241 -0.2587 -0.6686  0.3505
15157SOL    HW146156   4.631   0.938   6.171 -0.8731  1.0288 -1.1572
15157SOL    HW246157   4.489   0.959   6.217 -0.4612 -0.8267  1.2026
15158SOL     OW46158   3.394   3.364   2.869  0.0299 -0.1597 -0.0126
15158SOL    HW146159   3.374   3.418   2.945  3.0898  1.1180  0.0104
15158SOL    HW246160   3.450   3.295   2.902 -1.1339 -1.4643 -0.6410
15159SOL     OW46161   4.313   1.935   5.284 -0.5604 -0.4330  0.8135
15159SOL    HW146162   4.256   1.894   5.349 -0.6179 -1.1126  0.3486
15159SOL    HW246163   4.359   1.862   5.243  0.4158  0.0852  0.9637
15160SOL     OW46164   2.508   4.991   5.659  0.2168  0.7096  0.1842
15160SOL    HW146165   2.416   4.972   5.639  0.4672  0.5948 -0.8959
15160SOL    HW246166   2.511   4.995   5.755 -0.9238  0.7785  0.2307
15161SOL     OW46167   0.452   3.387   7.410  0.1745 -0.4474  0.0576
15161SOL    HW146168   0.482   3.333   7.484 -1.8884 -3.4810 -1.0779
15161SOL    HW246169   0.372   3.343   7.381 -1.1366  2.7906 -1.6858
15162SOL     OW46170   2.495   3.758   2.477  0.3160 -0.0018 -0.4609
15162SOL    HW146171   2.466   3.668   2.464 -2.2902  0.9801 -2.3962
15162SOL    HW246172   2.472   3.779   2.567 -1.2496 -0.5861 -0.7073
15163SOL     OW46173   7.193   7.477   1.830 -0.3824 -0.1428 -0.2070
15163SOL    HW146174   7.174   7.384   1.842 -1.1310 -0.2157 -1.7928
15163SOL    HW246175   7.171   7.495   1.739  0.5509  1.4129 -0.1630
15164SOL     OW46176   7.124   2.670   2.865 -0.3420  1.1849 -0.1647
15164SOL    HW146177   7.061   2.741   2.871 -1.8317 -0.0244 -0.6633
15164SOL    HW246178   7.070   2.590   2.865  1.2402  0.0605  0.1742
15165SOL     OW46179   3.196   4.235   7.311  0.4523  0.1223 -0.4824
15165SOL    HW146180   3.110   4.251   7.350 -0.1488 -0.3750 -1.5609
15165SOL    HW246181   3.256   4.291   7.360 -0.3858  0.0269  0.6804
15166SOL     OW46182   0.262   0.249   6.904 -0.0347 -0.1903 -0.5730
15166SOL    HW146183   0.273   0.158   6.877 -2.0685 -0.8185  0.5799
15166SOL    HW246184   0.248   0.245   6.998 -1.0270  1.2365 -0.6327
15167SOL     OW46185   1.177   1.629   2.927  0.5238  0.0306  0.1133
15167SOL    HW146186   1.201   1.718   2.952  0.4114  0.3670 -0.9336
15167SOL    HW246187   1.259   1.586   2.904  0.4065  0.5043 -1.3266
15168SOL     OW46188   2.438   5.138   5.283  0.0246  0.0284  0.2743
15168SOL    HW146189   2.437   5.215   5.340 -1.6489 -1.1727  2.0144
15168SOL    HW246190   2.434   5.064   5.344  1.1210 -1.4336 -1.3597
15169SOL     OW46191   0.426   4.328   3.542 -0.3036  0.0393  0.4030
15169SOL    HW146192   0.491   4.353   3.476  0.2062 -2.0875 -0.0044
15169SOL    HW246193   0.344   4.363   3.510 -0.1479 -1.2876 -1.6615
15170SOL     OW46194   2.405   3.012   4.047 -0.3293  0.1426 -0.6084
15170SOL    HW146195   2.468   2.958   4.096 -0.7567  0.4250  0.2785
15170SOL    HW246196   2.400   3.094   4.097 -1.0257  0.3092 -0.9407
15171SOL     OW46197   1.860   0.463   6.191  0.5536 -0.0531  0.0255
15171SOL    HW146198   1.925   0.484   6.259  3.8923 -0.3539 -2.7822
15171SOL    HW246199   1.865   0.368   6.183  2.1910  0.1517 -2.2656
15172SOL     OW46200   2.724   1.411   4.809 -0.0233  0.5137  0.3360
15172SOL    HW146201   2.769   1.337   4.851  0.4297  0.7307  0.2326
15172SOL    HW246202   2.658   1.437   4.873 -0.3193 -0.1067  0.2945
15173SOL     OW46203   0.187   6.254   5.100 -0.5399 -0.1639  0.4032
15173SOL    HW146204   0.187   6.306   5.020  4.3273 -0.8046 -0.3057
15173SOL    HW246205   0.172   6.317   5.170 -0.0134  1.2976 -0.7487
15174SOL     OW46206   0.248   3.205   7.388 -0.4995  0.3343  0.5766
15174SOL    HW146207   0.299   3.179   7.311 -0.8517  0.1322  0.4099
15174SOL    HW246208   0.277   3.146   7.458 -1.6167 -0.8384  0.0925
15175SOL     OW46209   2.778   2.676   4.081  0.1045  0.3190 -0.1921
15175SOL    HW146210   2.737   2.761   4.095  2.2505  1.4658 -0.4769
15175SOL    HW246211   2.864   2.696   4.046  0.3375 -2.0283 -1.1692
15176SOL     OW46212   4.702   0.466   6.878  0.1903  0.3671 -0.3433
15176SOL    HW146213   4.742   0.507   6.802 -0.3919  0.6350 -0.5126
15176SOL    HW246214   4.765   0.479   6.949  0.0631  1.4938 -0.4126
15177SOL     OW46215   0.580   3.301   0.471  0.4305  0.7632 -0.6075
15177SOL    HW146216   0.517   3.303   0.543  2.4324  0.2366  1.2935
15177SOL    HW246217   0.562   3.381   0.421 -1.3062  0.9212  0.1973
15178SOL     OW46218   5.697   3.035   1.979 -0.5420 -0.0944  0.3682
15178SOL    HW146219   5.692   3.042   1.883  0.7780 -0.2638  0.2657
15178SOL    HW246220   5.611   3.001   2.005 -0.9101 -0.0709 -0.7546
15179SOL     OW46221   3.618   5.943   4.053  0.2635  0.0582 -0.3983
15179SOL    HW146222   3.637   5.931   4.146 -0.4813  1.2440 -0.0706
15179SOL    HW246223   3.629   5.856   4.014 -0.1026 -0.5949  0.9206
15180SOL     OW46224   3.176   3.652   2.941  0.3687  0.1102  0.4224
15180SOL    HW146225   3.237   3.622   3.009  0.6504 -1.8321 -0.6174
15180SOL    HW246226   3.102   3.592   2.946 -0.2667  0.8312 -0.0540
15181SOL     OW46227   7.282   0.073   3.302 -0.3898 -0.2655  0.6168
15181SOL    HW146228   7.248   0.135   3.238  1.0621 -0.2763 -0.2143
15181SOL    HW246229   7.366   0.111   3.329 -0.6617 -0.6100  2.0055
15182SOL     OW46230   4.250   3.569   0.293  0.2909 -0.4531  0.7365
15182SOL    HW146231   4.195   3.642   0.320  1.3057 -0.1994  2.2583
15182SOL    HW246232   4.256   3.577   0.198 -0.2534  0.9930  0.8003
15183SOL     OW46233   2.392   3.285   7.611 -0.3702  0.1184  0.1126
15183SOL    HW146234   2.367   3.273   7.702 -0.3588 -0.8407 -0.0090
15183SOL    HW246235   2.311   3.275   7.561 -0.5448  1.5143  0.0661
15184SOL     OW46236   5.862   6.061   3.588  0.4185  0.5958  0.3795
15184SOL    HW146237   5.937   6.015   3.550 -0.4217  0.5904 -1.4072
15184SOL    HW246238   5.893   6.151   3.602  1.4206  0.0546  1.8613
15185SOL     OW46239   6.915   0.987   2.570 -0.2691 -0.3088 -0.6379
15185SOL    HW146240   6.904   0.928   2.644  0.5078 -0.8063 -0.9055
15185SOL    HW246241   6.837   1.041   2.570 -0.6327 -0.8276  0.0781
15186SOL     OW46242   6.612   2.394   6.403  0.1039 -0.0195 -0.2316
15186SOL    HW146243   6.703   2.386   6.373  0.6932 -0.5259  1.5468
15186SOL    HW246244   6.601   2.486   6.425  0.9441 -0.3358  1.6724
15187SOL     OW46245   4.902   6.766   0.768  0.5565  0.1108 -0.5092
15187SOL    HW146246   4.950   6.849   0.763  0.4084  0.1706 -1.0163
15187SOL    HW246247   4.813   6.791   0.792  0.4833  0.1154 -0.7752
15188SOL     OW46248   6.195   6.601   1.091  0.0912  0.7333 -0.1599
15188SOL    HW146249   6.151   6.517   1.081  0.9792  0.3644 -1.0901
15188SOL    HW246250   6.164   6.653   1.016  0.6647  0.7274 -0.4023
15189SOL     OW46251   6.291   5.982   5.730  0.5104 -0.5275  0.6515
15189SOL    HW146252   6.356   5.986   5.659 -0.8974 -2.7572 -0.8830
15189SOL    HW246253   6.341   6.003   5.809  2.4825  0.5034 -0.7808
15190SOL     OW46254   6.606   3.587   7.496  0.4014 -0.3894  0.4568
15190SOL    HW146255   6.560   3.520   7.547 -0.8244  1.6195  2.1729
15190SOL    HW246256   6.559   3.591   7.413 -1.3333  0.2261  1.4176
15191SOL     OW46257   5.800   5.099   6.227 -0.2554  0.3997 -0.1645
15191SOL    HW146258   5.859   5.159   6.273  0.6158 -0.9276  0.5343
15191SOL    HW246259   5.850   5.070   6.151 -0.7134  0.6406 -0.5595
15192SOL     OW46260   6.590   0.416   6.476 -0.2478  0.3407 -0.0441
15192SOL    HW146261   6.604   0.321   6.468  1.0440  0.5302 -0.2816
15192SOL    HW246262   6.616   0.437   6.565  0.3576  0.5940 -0.2703
15193SOL     OW46263   0.948   2.165   0.299 -0.0632  0.4934  0.0819
15193SOL    HW146264   1.019   2.179   0.361 -0.0751 -1.6399  0.6474
15193SOL    HW246265   0.890   2.241   0.311  1.0474  1.2075  1.0950
15194SOL     OW46266   1.841   3.286   1.327 -0.1824  0.2767  0.4310
15194SOL    HW146267   1.860   3.305   1.235 -1.2774  0.2234  0.1724
15194SOL    HW246268   1.905   3.336   1.376  0.1002  0.7050 -0.3608
15195SOL     OW46269   2.781   5.293   3.176 -0.1557  0.6519 -0.2321
15195SOL    HW146270   2.713   5.281   3.242  1.1834  0.2662  1.1286
15195SOL    HW246271   2.809   5.204   3.154 -1.9900  0.6211 -2.9311
15196SOL     OW46272   5.701   6.592   2.084 -0.0124  0.0430 -0.8160
15196SOL    HW146273   5.710   6.508   2.039 -0.6110  0.1211 -1.0825
15196SOL    HW246274   5.642   6.574   2.157  0.4295  0.0709 -0.4469
15197SOL     OW46275   3.909   1.777   7.354  0.4159 -0.3144  0.0499
15197SOL    HW146276   3.885   1.711   7.419 -1.2794  0.5662  0.3850
15197SOL    HW246277   3.843   1.768   7.286  0.5201  0.6250 -0.1862
15198SOL     OW46278   1.348   3.214   4.512  0.1220  0.1283 -0.3176
15198SOL    HW146279   1.291   3.278   4.469 -0.2434  0.6721  0.9250
15198SOL    HW246280   1.337   3.231   4.606  1.0665 -0.8632 -0.0019
15199SOL     OW46281   4.196   1.975   1.651  0.1733  0.5081 -0.7745
15199SOL    HW146282   4.131   1.983   1.581  0.3147  0.2942 -0.9344
15199SOL    HW246283   4.271   1.933   1.608 -0.8712 -2.6270  0.2073
15200SOL     OW46284   1.673   4.809   1.409 -0.2202 -0.5257  0.0098
15200SOL    HW146285   1.725   4.772   1.480  2.4698  0.6690 -1.1942
15200SOL    HW246286   1.652   4.897   1.438 -0.5193 -0.5903 -0.0082
15201SOL     OW46287   5.265   0.789   3.059  0.3392  0.4427 -0.5560
15201SOL    HW146288   5.325   0.839   3.004  2.4818  1.0728  2.1454
15201SOL    HW246289   5.222   0.855   3.113 -1.0014 -0.2373 -0.7506
15202SOL     OW46290   1.717   5.681   6.254 -0.5503 -0.1807  0.1349
15202SOL    HW146291   1.633   5.637   6.237 -0.0854 -1.3526  0.8070
15202SOL    HW246292   1.782   5.611   6.254  0.7599  0.9185 -2.3091
15203SOL     OW46293   7.306   5.453   3.338  0.6902 -0.0719  0.2360
15203SOL    HW146294   7.392   5.475   3.302  0.1732 -0.0549 -1.0156
15203SOL    HW246295   7.245   5.512   3.294 -0.1123 -0.8701  0.2477
15204SOL     OW46296   1.341   4.236   0.922 -0.1325 -0.2402  0.3638
15204SOL    HW146297   1.421   4.264   0.877 -0.6450  0.5993 -0.0523
15204SOL    HW246298   1.367   4.226   1.014  0.5090 -0.2624  0.1850
15205SOL     OW46299   1.828   6.822   1.537 -0.5556  0.4333 -0.4438
15205SOL    HW146300   1.905   6.766   1.549  0.2812  1.3342 -1.3543
15205SOL    HW246301   1.754   6.762   1.535  0.0590 -0.4266  0.8799
15206SOL     OW46302   3.055   4.914   4.582  0.0083 -0.8085  0.4168
15206SOL    HW146303   3.117   4.920   4.655 -1.6601  0.7098  1.8027
15206SOL    HW246304   3.110   4.921   4.504  1.6292  0.2406  1.5624
15207SOL     OW46305   6.618   1.444   3.685  0.4520 -0.3869  0.2995
15207SOL    HW146306   6.558   1.402   3.623 -2.3883  1.1699  1.7675
15207SOL    HW246307   6.660   1.372   3.731  0.0789 -1.5629 -1.1051
15208SOL     OW46308   6.578   3.000   2.302  0.2134 -0.5184 -0.3657
15208SOL    HW146309   6.529   3.055   2.240  2.1257 -0.2686 -1.7347
15208SOL    HW246310   6.543   2.912   2.287 -1.0205 -0.1101 -0.0470
15209SOL     OW46311   3.165   1.081   3.418 -0.1504  0.0297  0.3459
15209SOL    HW146312   3.113   1.145   3.370  1.6932  0.9422 -0.5230
15209SOL    HW246313   3.166   1.113   3.508 -0.1696  0.6177  0.1382
15210SOL     OW46314   3.570   5.483   0.019  0.2825  0.0274 -0.1761
15210SOL    HW146315   3.540   5.504  -0.069  0.8482 -1.2354 -0.7017
15210SOL    HW246316   3.492   5.489   0.074 -0.3534 -0.4609 -1.0091
15211SOL     OW46317   4.925   1.457   3.441 -0.2059 -0.2933 -0.5353
15211SOL    HW146318   4.997   1.517   3.460 -0.0423 -1.1806  2.0212
15211SOL    HW246319   4.860   1.476   3.508 -1.3217 -1.1592 -1.3373
15212SOL     OW46320   2.972   0.691   7.278  0.3946 -0.5465  0.0693
15212SOL    HW146321   3.025   0.762   7.240 -0.1595 -1.0125 -1.6512
15212SOL    HW246322   3.036   0.634   7.320  1.3737 -1.1661 -2.0834
15213SOL     OW46323   0.169   7.380   5.479  0.8044 -0.1274  0.1051
15213SOL    HW146324   0.160   7.350   5.389  0.8148 -0.1952  0.1268
15213SOL    HW246325   0.229   7.318   5.519  1.3080  0.2716 -0.0167
15214SOL     OW46326   5.156   2.763   3.113 -0.1907 -0.1129  0.7337
15214SOL    HW146327   5.092   2.708   3.068 -0.4391  1.3883 -0.8665
15214SOL    HW246328   5.236   2.710   3.117 -0.1901 -0.3581 -1.4522
15215SOL     OW46329   4.637   1.474   4.411 -0.6884 -0.0214 -0.3232
15215SOL    HW146330   4.623   1.568   4.422 -0.4067  0.1703 -1.4453
15215SOL    HW246331   4.642   1.462   4.316 -0.2488 -1.1025 -0.1732
15216SOL     OW46332   1.403   6.789   2.878  0.3232 -0.2868 -0.6435
15216SOL    HW146333   1.405   6.718   2.814  0.6336 -2.5522  1.6909
15216SOL    HW246334   1.311   6.800   2.900  0.2754  0.0449 -1.0029
15217SOL     OW46335   4.728   4.396   5.734 -0.1351 -0.3027  0.2921
15217SOL    HW146336   4.675   4.440   5.800  0.1927 -0.8766  0.9438
15217SOL    HW246337   4.672   4.394   5.656 -0.9147 -0.5331  0.8513
15218SOL     OW46338   3.195   6.262   1.305  0.3682  0.2307 -0.2015
15218SOL    HW146339   3.116   6.306   1.274  0.4144  0.1880 -0.3810
15218SOL    HW246340   3.177   6.169   1.291 -0.0356  0.1308  0.8733
15219SOL     OW46341   0.365   2.051   0.787 -0.3274 -0.2045 -0.0374
15219SOL    HW146342   0.429   2.078   0.853 -2.6571  1.0494  1.8703
15219SOL    HW246343   0.334   2.133   0.748 -2.5913 -0.5308  0.9508
15220SOL     OW46344   5.734   0.663   0.763 -0.0952 -0.2171  0.2109
15220SOL    HW146345   5.767   0.630   0.680  0.7383  0.6018  0.1868
15220SOL    HW246346   5.717   0.756   0.747 -0.4222 -0.1685  0.8054
15221SOL     OW46347   4.129   5.508   3.198  0.1144  0.2948 -0.3349
15221SOL    HW146348   4.075   5.445   3.151 -0.1464  1.6398 -1.9441
15221SOL    HW246349   4.175   5.556   3.129  0.7292  1.4883  0.8568
15222SOL     OW46350   0.375   1.609   5.631  0.3570 -0.5036 -0.3871
15222SOL    HW146351   0.316   1.603   5.556  0.2464  1.1586 -0.4812
15222SOL    HW246352   0.448   1.663   5.599  2.6508 -3.5499 -0.6819
15223SOL     OW46353   0.384   5.216   1.604  0.3533 -0.2971  0.3992
15223SOL    HW146354   0.417   5.142   1.655 -0.6390 -1.5156 -0.6572
15223SOL    HW246355   0.289   5.210   1.611  0.1862 -0.4056 -1.3951
15224SOL     OW46356   2.509   7.297   7.682 -0.3022 -0.4323 -0.0636
15224SOL    HW146357   2.447   7.369   7.667  0.8963  0.2224 -2.4813
15224SOL    HW246358   2.454   7.220   7.697 -1.6512  0.5153  0.0557
15225SOL     OW46359   6.772   5.542   2.075  0.8941 -0.1372  0.1283
15225SOL    HW146360   6.830   5.558   2.000  3.1892  1.1156  2.0051
15225SOL    HW246361   6.775   5.448   2.089  0.7793 -0.3300 -1.0900
15226SOL     OW46362   5.328   6.165   7.539 -0.2182 -0.4871  0.0846
15226SOL    HW146363   5.337   6.260   7.534 -0.6104 -0.5032 -1.4566
15226SOL    HW246364   5.246   6.151   7.587  0.4721 -0.0971  1.4289
15227SOL     OW46365   7.408   3.627   0.552  0.5219  0.2327 -0.0335
15227SOL    HW146366   7.486   3.577   0.578  0.3363 -0.0061  0.0654
15227SOL    HW246367   7.415   3.631   0.456  0.0997 -0.7157 -0.1150
15228SOL     OW46368   7.234   3.092   4.368 -0.1690 -0.3232 -0.4217
15228SOL    HW146369   7.281   3.047   4.439  0.6506 -0.8068 -1.2520
15228SOL    HW246370   7.142   3.088   4.395  0.2691  1.2630  1.5876
15229SOL     OW46371   6.944   2.113   0.440 -0.0252 -0.1051 -0.5439
15229SOL    HW146372   6.951   2.088   0.532  1.5328  0.4915 -0.4676
15229SOL    HW246373   6.974   2.036   0.392 -1.4939 -0.6618 -0.6006
15230SOL     OW46374   0.486   6.886   4.465  0.3599  0.6229  0.1922
15230SOL    HW146375   0.561   6.932   4.503  0.0888  0.0091  1.5153
15230SOL    HW246376   0.411   6.941   4.487 -0.0202 -0.5686  2.1424
15231SOL     OW46377   3.512   4.170   5.117  0.0602 -0.3595  0.5113
15231SOL    HW146378   3.448   4.133   5.056 -1.0330  2.4178 -0.1797
15231SOL    HW246379   3.460   4.229   5.172  1.8812  1.3851  0.4442
15232SOL     OW46380   0.390   4.736   2.261  0.4186 -0.3558 -0.1414
15232SOL    HW146381   0.364   4.827   2.274  2.1304  0.1555 -0.0305
15232SOL    HW246382   0.308   4.687   2.262 -0.4770  1.0953  0.4771
15233SOL     OW46383   2.321   1.687   3.581 -0.1619 -0.3594 -0.4189
15233SOL    HW146384   2.292   1.768   3.538  0.2601 -0.5994 -1.1857
15233SOL    HW246385   2.240   1.641   3.602 -0.3822 -0.8161 -2.1170
15234SOL     OW46386   2.212   0.921   0.926 -0.1101  0.0649 -0.3719
15234SOL    HW146387   2.228   0.978   0.851 -0.1289  1.6398  0.7686
15234SOL    HW246388   2.265   0.958   0.997 -1.2631 -0.4377  0.8041
15235SOL     OW46389   4.249   2.000   1.197  0.0018  0.2586 -0.3596
15235SOL    HW146390   4.178   2.010   1.133  0.3763 -0.4576 -0.8941
15235SOL    HW246391   4.260   2.088   1.233 -0.8977  0.4656 -0.5433
15236SOL     OW46392   4.374   2.438   5.950  0.0635 -0.0748  0.0192
15236SOL    HW146393   4.299   2.481   5.990  0.2224 -0.5330  0.8441
15236SOL    HW246394   4.405   2.499   5.883 -1.7421 -0.3761 -1.1577
15237SOL     OW46395   4.418   6.140   3.604  0.3432  0.3599 -0.1076
15237SOL    HW146396   4.358   6.073   3.570 -0.0300  0.2664  0.7042
15237SOL    HW246397   4.377   6.170   3.685  2.7412 -1.7952  2.0922
15238SOL     OW46398   5.418   6.731   1.834  0.2020 -0.1592 -0.1226
15238SOL    HW146399   5.343   6.774   1.794 -0.0378 -0.0447  0.4365
15238SOL    HW246400   5.381   6.684   1.909  0.5427 -0.8974 -0.4133
15239SOL     OW46401   3.994   5.144   3.311  0.2440 -0.2665 -0.1671
15239SOL    HW146402   4.082   5.180   3.322  0.9254 -2.1700  1.0079
15239SOL    HW246403   3.995   5.100   3.227  0.3884 -0.2472 -0.1746
15240SOL     OW46404   1.092   2.349   5.058 -0.0077 -0.1660 -0.1505
15240SOL    HW146405   1.164   2.377   5.002  1.2018 -1.0131  0.9365
15240SOL    HW246406   1.083   2.418   5.123 -0.5030  0.1579 -0.5529
15241SOL     OW46407   3.157   2.784   2.993 -0.3956  0.1137  0.0117
15241SOL    HW146408   3.183   2.876   2.989  1.0490 -0.1493  1.8915
15241SOL    HW246409   3.131   2.770   3.084 -0.1465 -1.4331 -0.1134
15242SOL     OW46410   4.422   4.365   0.250  0.1590  0.2610  0.0352
15242SOL    HW146411   4.332   4.333   0.242  0.0335  0.4537  0.6193
15242SOL    HW246412   4.436   4.419   0.172 -0.4592  0.7642  0.2665
15243SOL     OW46413   4.934   3.235   2.717  0.0949  0.5641 -0.6907
15243SOL    HW146414   5.026   3.222   2.741 -0.4340 -0.1746  1.1484
15243SOL    HW246415   4.932   3.222   2.622  1.5871 -1.4702 -0.5273
15244SOL     OW46416   4.902   1.605   4.547  0.2568  0.0402 -0.3214
15244SOL    HW146417   4.962   1.636   4.614  1.1353 -1.8555 -0.1918
15244SOL    HW246418   4.815   1.624   4.583  0.7153  1.3090  0.2076
15245SOL     OW46419   3.017   1.494   1.569 -0.6534  0.5726 -0.0375
15245SOL    HW146420   2.926   1.507   1.595 -0.0710  0.6007  2.1479
15245SOL    HW246421   3.068   1.518   1.646  1.0716 -2.2158 -0.1815
15246SOL     OW46422   2.388   5.355   0.865 -0.2677 -0.4629  0.3352
15246SOL    HW146423   2.466   5.367   0.920 -1.1541 -2.7129  2.2810
15246SOL    HW246424   2.423   5.348   0.776  1.7377 -0.9923  1.0934
15247SOL     OW46425   5.122   4.219   1.865  0.7387 -0.0678  0.4347
15247SOL    HW146426   5.091   4.201   1.954  0.6971  1.8553  0.8404
15247SOL    HW246427   5.172   4.300   1.873 -0.7808  1.1558 -1.5842
15248SOL     OW46428   6.113   4.021   6.120  0.1683  0.1746  0.1908
15248SOL    HW146429   6.062   4.079   6.063 -1.7274 -1.4264  0.1461
15248SOL    HW246430   6.138   3.949   6.063  1.0335  0.1111  0.6475
15249SOL     OW46431   3.871   6.064   5.017  0.3677 -0.1607  0.3851
15249SOL    HW146432   3.904   5.981   5.049 -0.8383 -0.3879  1.0851
15249SOL    HW246433   3.831   6.106   5.093  0.2880  0.7260 -0.1240
15250SOL     OW46434   5.860   2.652   3.262  0.4665  0.0439 -0.4900
15250SOL    HW146435   5.815   2.687   3.339 -0.4820 -1.4066 -0.3294
15250SOL    HW246436   5.932   2.712   3.246 -0.6334  1.6131  0.1944
15251SOL     OW46437   0.644   3.662   7.642 -0.0228 -0.6597 -0.5696
15251SOL    HW146438   0.654   3.689   7.551  0.4311 -1.0855 -0.6527
15251SOL    HW246439   0.734   3.653   7.675 -0.1836 -0.4595 -0.0645
15252SOL     OW46440   7.586   6.113   5.622 -0.0520  0.5439  0.1706
15252SOL    HW146441   7.511   6.064   5.588  0.0586 -0.3755  1.1966
15252SOL    HW246442   7.662   6.071   5.582 -0.0051  0.4549  0.3520
15253SOL     OW46443   3.592   2.176   6.320  0.0117 -0.1989 -0.6593
15253SOL    HW146444   3.687   2.181   6.321  0.1312 -0.0269 -3.7959
15253SOL    HW246445   3.565   2.207   6.407  2.7240  1.6531 -0.3707
15254SOL     OW46446   3.144   4.310   6.280  0.5098  0.0685 -0.3430
15254SOL    HW146447   3.124   4.374   6.348  1.1649 -0.2257  0.1334
15254SOL    HW246448   3.235   4.328   6.256  0.3632 -0.0011 -0.9540
15255SOL     OW46449   6.306   0.387   2.079  0.0053  0.2297 -0.1411
15255SOL    HW146450   6.372   0.324   2.052  0.4499  1.4839 -2.2091
15255SOL    HW246451   6.224   0.338   2.078  0.6054 -0.8428  0.5207
15256SOL     OW46452   0.036   0.803   6.247 -0.4215 -0.0932 -0.0418
15256SOL    HW146453  -0.020   0.734   6.210  1.1812 -2.9734  2.4580
15256SOL    HW246454   0.112   0.805   6.189 -1.3659  1.1704 -1.3088
15257SOL     OW46455   4.298   0.692   4.503 -0.1220 -0.6603  0.1500
15257SOL    HW146456   4.346   0.722   4.580 -0.6074  0.1368  0.1514
15257SOL    HW246457   4.247   0.768   4.476 -1.3085 -1.4612  0.0889
15258SOL     OW46458   4.610   1.131   1.075 -0.3135  0.2281 -0.3669
15258SOL    HW146459   4.579   1.052   1.120  1.9883  0.3706  1.7079
15258SOL    HW246460   4.676   1.168   1.135 -0.3579  3.0049 -1.8819
15259SOL     OW46461   5.987   4.517   0.020  0.2432  1.4492 -0.4406
15259SOL    HW146462   5.900   4.479   0.015  0.0095  2.0931 -1.3822
15259SOL    HW246463   6.030   4.491  -0.061  1.3126  0.2441  0.4746
15260SOL     OW46464   5.894   1.059   4.578  0.5726 -0.0228 -0.4050
15260SOL    HW146465   5.881   1.105   4.660  0.2205 -1.2190  0.2369
15260SOL    HW246466   5.858   0.972   4.593  2.3171 -0.9330 -1.1640
15261SOL     OW46467   1.298   1.228   2.989  0.0408 -0.4423  0.3161
15261SOL    HW146468   1.321   1.135   2.983 -0.7023 -0.5442 -1.4828
15261SOL    HW246469   1.287   1.243   3.083  2.0915 -1.6714  0.8172
15262SOL     OW46470   6.158   2.787   7.723  0.3160 -0.5797  0.0667
15262SOL    HW146471   6.144   2.880   7.705  0.6973 -0.1924  1.5804
15262SOL    HW246472   6.140   2.743   7.640 -0.1944  0.8089 -0.5908
15263SOL     OW46473   6.889   7.128   5.598  0.0836  0.0147 -0.7179
15263SOL    HW146474   6.883   7.133   5.503 -1.1739  0.4144 -0.6420
15263SOL    HW246475   6.900   7.035   5.617  0.8321 -0.0147 -1.2663
15264SOL     OW46476   2.340   7.694   3.757 -0.0652 -0.5623  0.4993
15264SOL    HW146477   2.251   7.726   3.741  1.3319  3.4705 -0.3363
15264SOL    HW246478   2.380   7.686   3.671  1.3959  1.2197  0.9473
15265SOL     OW46479   2.332   0.025   3.263 -0.2076  0.1221  0.5520
15265SOL    HW146480   2.372   0.090   3.321  0.0108 -0.2620  0.8349
15265SOL    HW246481   2.405  -0.013   3.215 -0.5278  1.6606 -1.2887
15266SOL     OW46482   7.629   0.625   4.829 -0.0377  0.2622 -0.1895
15266SOL    HW146483   7.713   0.619   4.874  1.3658  3.0763 -2.1437
15266SOL    HW246484   7.598   0.713   4.847 -0.7043  0.5648 -2.4692
15267SOL     OW46485   1.461   6.450   5.525 -0.0363  0.1134 -0.0049
15267SOL    HW146486   1.550   6.481   5.509  1.4175 -2.4976  2.2180
15267SOL    HW246487   1.411   6.529   5.544  2.3037  1.5097  0.7413
15268SOL     OW46488   4.674   1.939   6.818 -0.0352 -0.2819 -0.8086
15268SOL    HW146489   4.730   2.016   6.826 -0.5166  0.0775 -0.7847
15268SOL    HW246490   4.682   1.895   6.902  1.0209 -0.8122 -1.1731
15269SOL     OW46491   4.412   0.424   0.465  0.3755 -0.2047  0.6576
15269SOL    HW146492   4.338   0.370   0.435 -1.2191  1.0410  2.1420
15269SOL    HW246493   4.476   0.418   0.394 -1.3973 -0.8535 -0.9765
15270SOL     OW46494   7.310   2.677   3.347  0.0908 -0.0168  0.1890
15270SOL    HW146495   7.215   2.665   3.341 -0.0361  0.2535  1.4825
15270SOL    HW246496   7.343   2.644   3.263 -0.9660 -1.9605  0.4771
15271SOL     OW46497   1.427   2.586   0.138 -0.3662 -0.4552 -0.7222
15271SOL    HW146498   1.384   2.607   0.055 -0.0144  1.8493 -0.3860
15271SOL    HW246499   1.497   2.650   0.146 -0.1850 -0.8285  1.2085
15272SOL     OW46500   1.392   6.591   4.591 -0.1958 -0.3235  0.3842
15272SOL    HW146501   1.482   6.567   4.613 -0.1628 -0.5545  0.0167
15272SOL    HW246502   1.343   6.579   4.672  0.3194  0.9495  0.9141
15273SOL     OW46503   4.035   7.230   5.086  0.3103 -0.5601  0.4148
15273SOL    HW146504   4.109   7.172   5.076  0.8163 -0.3161  2.2556
15273SOL    HW246505   4.074   7.316   5.104 -0.4151 -0.1483  0.0666
15274SOL     OW46506   0.619   5.995   1.908  0.0429  0.4410 -0.0154
15274SOL    HW146507   0.533   6.020   1.942  0.7575  1.2553  1.2802
15274SOL    HW246508   0.634   6.055   1.836 -0.7085 -0.0894 -0.6323
15275SOL     OW46509   7.389   1.227   3.658  0.0472 -0.0312  0.7492
15275SOL    HW146510   7.334   1.198   3.731 -0.4972 -0.6915  0.1087
15275SOL    HW246511   7.388   1.152   3.598  0.6885  0.4066  0.1898
15276SOL     OW46512   1.787   1.741   5.673  0.0370  0.0678 -0.1365
15276SOL    HW146513   1.762   1.661   5.719  0.7822 -0.5275 -0.7385
15276SOL    HW246514   1.748   1.732   5.587  0.0277  0.4109 -0.1688
15277SOL     OW46515   4.103   3.620   4.576  0.0327  0.1473  0.2335
15277SOL    HW146516   4.042   3.661   4.638  0.7491 -0.0135  1.0680
15277SOL    HW246517   4.181   3.676   4.579  0.8702 -1.0375  1.0841
15278SOL     OW46518   1.371   7.049   3.268  0.4285 -0.3885  0.2380
15278SOL    HW146519   1.420   6.978   3.309  1.3767  1.1901  2.0124
15278SOL    HW246520   1.406   7.129   3.309 -2.6661  0.9174  0.5926
15279SOL     OW46521   5.240   6.575   1.074 -0.0928 -0.0209  0.4987
15279SOL    HW146522   5.237   6.559   1.168 -2.0184  0.8889  0.6450
15279SOL    HW246523   5.234   6.488   1.035 -2.9768 -0.2828  1.2697
15280SOL     OW46524   4.485   3.747   1.087 -0.5714  0.1071  0.0669
15280SOL    HW146525   4.493   3.655   1.112 -0.1294  0.2048  0.3003
15280SOL    HW246526   4.487   3.795   1.169 -0.6714  0.3346 -0.0614
15281SOL     OW46527   1.331   6.839   4.894 -0.1760  0.0077  0.0071
15281SOL    HW146528   1.419   6.878   4.891 -0.2810  0.4441  1.4731
15281SOL    HW246529   1.345   6.747   4.875  0.6617  0.0120  0.5105
15282SOL     OW46530   0.280   0.854   0.614  0.0736  0.0406  0.7075
15282SOL    HW146531   0.309   0.917   0.680 -1.6303  1.7729 -0.0716
15282SOL    HW246532   0.324   0.881   0.533 -1.8596  1.3867 -0.0016
15283SOL     OW46533   0.955   5.959   7.754 -0.5966 -0.5474 -0.6758
15283SOL    HW146534   0.946   6.054   7.742 -0.3033 -0.0576  2.2655
15283SOL    HW246535   0.996   5.929   7.673 -0.0397  1.9398 -1.4191
15284SOL     OW46536   2.163   5.947   0.194 -0.5204 -0.0495 -0.6729
15284SOL    HW146537   2.163   5.866   0.143 -0.4365 -0.4312 -0.0889
15284SOL    HW246538   2.095   6.001   0.154 -1.3858 -0.8781 -0.3661
15285SOL     OW46539   2.461   2.547   5.475 -0.3958  0.1753  0.8265
15285SOL    HW146540   2.389   2.521   5.418  0.5279 -1.8587  0.5097
15285SOL    HW246541   2.463   2.643   5.469 -2.0519  0.1750 -0.3652
15286SOL     OW46542   5.098   4.407   3.404 -0.0193 -0.4904  1.0415
15286SOL    HW146543   5.043   4.483   3.383  0.2920 -0.6910 -0.6361
15286SOL    HW246544   5.050   4.332   3.368 -0.0561 -1.0295  2.1978
15287SOL     OW46545   1.309   2.978   7.603 -0.2419  0.1195  0.1793
15287SOL    HW146546   1.291   2.914   7.534  0.3823 -1.1153  1.1215
15287SOL    HW246547   1.383   3.029   7.569  0.6418 -1.0545  0.2520
15288SOL     OW46548   5.190   5.908   0.109  0.2626 -0.3292  0.0188
15288SOL    HW146549   5.170   5.891   0.017 -1.3710  1.9015 -0.1271
15288SOL    HW246550   5.263   5.849   0.129  0.5561 -1.0083 -2.6398
15289SOL     OW46551   7.673   1.462   1.801 -0.1091 -0.3008 -0.2841
15289SOL    HW146552   7.598   1.428   1.850  0.1218  0.4430  0.6404
15289SOL    HW246553   7.636   1.532   1.746 -0.2127 -0.4396 -0.3899
15290SOL     OW46554   1.820   0.204   5.094  0.3617 -0.1441 -0.6192
15290SOL    HW146555   1.765   0.129   5.073 -0.4779  0.5105 -0.8089
15290SOL    HW246556   1.796   0.271   5.030  1.0124  0.3327 -0.3828
15291SOL     OW46557   6.311   1.394   5.412 -0.0609 -0.1363  0.1153
15291SOL    HW146558   6.304   1.299   5.400 -0.1344 -0.1927  0.5782
15291SOL    HW246559   6.278   1.409   5.501 -2.3105  0.6106 -0.7790
15292SOL     OW46560   4.526   3.851   7.061  0.7503 -0.7582 -0.0675
15292SOL    HW146561   4.446   3.900   7.044  1.4306  1.2965  2.1639
15292SOL    HW246562   4.498   3.759   7.062 -1.4397 -0.1413  0.0209
15293SOL     OW46563   2.106   7.696   3.410 -0.0279  0.1401 -0.1114
15293SOL    HW146564   2.175   7.683   3.344 -0.2571  0.4466 -0.4123
15293SOL    HW246565   2.144   7.759   3.471  0.4675 -0.7028  0.4605
15294SOL     OW46566   6.550   1.621   3.882 -0.1425 -0.1325  0.6434
15294SOL    HW146567   6.467   1.649   3.843 -0.1252  0.8076  1.2396
15294SOL    HW246568   6.583   1.554   3.823 -1.2035 -0.3363  0.2606
15295SOL     OW46569   7.755   6.403   0.569 -0.3079  0.0132  0.6074
15295SOL    HW146570   7.797   6.410   0.483  1.5162 -1.6233  1.2840
15295SOL    HW246571   7.662   6.421   0.552 -0.0487 -0.5295 -1.7428
15296SOL     OW46572   5.303   4.365   4.160 -0.1707  0.2982 -0.6560
15296SOL    HW146573   5.278   4.430   4.095 -1.2227  0.8116  0.2402
15296SOL    HW246574   5.324   4.287   4.108  0.5986  1.1794 -1.6997
15297SOL     OW46575   1.923   4.852   6.604 -0.0247 -0.3026 -0.2359
15297SOL    HW146576   1.913   4.759   6.584  0.1874 -0.3150 -0.2876
15297SOL    HW246577   1.995   4.855   6.667 -0.6246 -0.2547  0.4568
15298SOL     OW46578   4.918   4.302   1.407  0.0574 -0.7246  0.4302
15298SOL    HW146579   4.918   4.280   1.500  0.2116  0.0906  0.6285
15298SOL    HW246580   4.838   4.261   1.372 -1.3252  1.0095  1.4187
15299SOL     OW46581   1.015   0.899   3.979 -0.0350 -0.1504  0.1865
15299SOL    HW146582   0.950   0.953   4.026  0.8665  0.5953  0.6037
15299SOL    HW246583   1.005   0.812   4.017 -0.0222  0.2184  1.0606
15300SOL     OW46584   0.827   2.415   6.558 -0.3636 -0.2802  0.1870
15300SOL    HW146585   0.760   2.348   6.572 -1.1562  0.6457  0.9558
15300SOL    HW246586   0.778   2.494   6.533  0.4043  0.4964  1.0411
15301SOL     OW46587   5.524   0.506   1.172  0.0369 -0.2451  0.4709
15301SOL    HW146588   5.571   0.552   1.242 -2.0951 -0.8236  2.4024
15301SOL    HW246589   5.460   0.570   1.140 -0.6453 -0.7590  0.7878
15302SOL     OW46590   1.154   3.714   2.224  0.4556  0.4241 -0.2029
15302SOL    HW146591   1.202   3.783   2.177 -1.2607  1.6842 -0.2069
15302SOL    HW246592   1.066   3.750   2.236 -0.8778 -2.1966 -1.1872
15303SOL     OW46593   6.109   3.442   0.517  0.3172 -0.7655 -0.0293
15303SOL    HW146594   6.141   3.357   0.549 -0.5814 -1.7016 -1.4577
15303SOL    HW246595   6.015   3.441   0.537  0.5486  0.5603  1.2644
15304SOL     OW46596   2.718   5.010   6.710  0.4589  0.5189  0.7091
15304SOL    HW146597   2.763   5.085   6.750  1.5844 -1.0131  2.4850
15304SOL    HW246598   2.720   4.942   6.777  2.2742 -2.1918 -1.8174
15305SOL     OW46599   4.844   1.186   6.455 -0.5692  0.7254 -0.3030
15305SOL    HW146600   4.927   1.142   6.439 -1.1287 -0.2029 -0.6883
15305SOL    HW246601   4.810   1.207   6.368 -0.5407  1.5117 -0.1403
15306SOL     OW46602   3.261   0.205   4.218  0.5339  0.5358 -0.0786
15306SOL    HW146603   3.268   0.232   4.127 -0.9705  2.0475  0.2077
15306SOL    HW246604   3.351   0.189   4.246  1.1429  1.5576 -1.3756
15307SOL     OW46605   7.477   2.829   7.769 -0.6907 -0.4240  0.0271
15307SOL    HW146606   7.468   2.923   7.753 -1.4455 -0.4863  0.0794
15307SOL    HW246607   7.423   2.788   7.702  0.1176 -0.8504 -0.3873
15308SOL     OW46608   5.151   1.616   6.999 -0.1985  0.3915 -0.3633
15308SOL    HW146609   5.163   1.522   6.985  2.1207  0.4968  0.5113
15308SOL    HW246610   5.155   1.654   6.911 -0.1202 -0.2384 -0.6341
15309SOL     OW46611   5.962   0.139   3.027 -0.1214 -0.0388 -0.3012
15309SOL    HW146612   5.931   0.129   3.117 -0.4147 -0.2903 -0.4270
15309SOL    HW246613   6.028   0.208   3.032  0.3001 -0.4710  0.2051
15310SOL     OW46614   5.947   3.506   3.046  0.4702 -0.3110  0.6550
15310SOL    HW146615   5.930   3.555   3.126 -0.4954  0.5708 -0.0615
15310SOL    HW246616   5.877   3.440   3.043  1.3587 -1.3127  1.2608
15311SOL     OW46617   5.740   6.796   1.415 -0.2450  0.5933  0.6129
15311SOL    HW146618   5.831   6.826   1.420 -0.7629  2.2815  0.5665
15311SOL    HW246619   5.744   6.703   1.439  1.5330  0.5232  0.2233
15312SOL     OW46620   1.488   7.370   4.308 -0.1368 -0.0351  0.2554
15312SOL    HW146621   1.412   7.315   4.327 -0.6815  0.2248 -1.0439
15312SOL    HW246622   1.563   7.319   4.338 -0.8122 -0.3049  1.5416
15313SOL     OW46623   4.444   3.240   0.623 -0.5347 -0.2668 -0.1238
15313SOL    HW146624   4.408   3.154   0.603 -0.1165 -0.1273 -1.5779
15313SOL    HW246625   4.539   3.229   0.619 -0.3942 -0.2408  1.9986
15314SOL     OW46626   7.524   0.260   1.137  0.1464 -0.6430  0.5472
15314SOL    HW146627   7.433   0.233   1.128 -0.4508  0.9073  1.6182
15314SOL    HW246628   7.547   0.294   1.050 -0.9811  0.8649  0.7986
15315SOL     OW46629   2.583   6.339   3.267  0.5103  0.4425 -0.0405
15315SOL    HW146630   2.502   6.288   3.268 -0.4143  1.8272  1.0386
15315SOL    HW246631   2.609   6.343   3.175  0.0331 -1.0552 -0.2516
15316SOL     OW46632   5.358   1.523   5.348 -0.3635 -0.1360 -0.1773
15316SOL    HW146633   5.276   1.475   5.333  0.8025 -2.1188 -0.4525
15316SOL    HW246634   5.366   1.579   5.271 -2.0711  1.0646  0.4466
15317SOL     OW46635   7.125   1.661   1.179 -0.3190  0.0902 -0.0136
15317SOL    HW146636   7.042   1.695   1.212 -1.5063 -2.0998 -0.5228
15317SOL    HW246637   7.157   1.728   1.120 -1.4934  1.1878  0.5427
15318SOL     OW46638   0.156   6.656   1.424  0.5023  0.0986 -0.3223
15318SOL    HW146639   0.168   6.739   1.378 -2.2240  1.3895  1.0734
15318SOL    HW246640   0.138   6.681   1.515 -1.9633 -1.8720 -0.1550
15319SOL     OW46641   2.188   2.660   1.398  0.0760  0.0102  0.4340
15319SOL    HW146642   2.171   2.628   1.309  1.2751 -0.1181  0.2388
15319SOL    HW246643   2.122   2.617   1.452  0.2700 -1.0664 -0.1702
15320SOL     OW46644   5.441   3.100   7.109  0.0566 -0.1333  0.2089
15320SOL    HW146645   5.345   3.109   7.108  0.0048 -0.0257  2.3131
15320SOL    HW246646   5.462   3.059   7.025 -1.7402  0.6274 -0.6654
15321SOL     OW46647   3.001   2.676   1.022  0.1246 -0.3619 -0.2080
15321SOL    HW146648   3.089   2.638   1.024 -0.0880 -0.9094 -0.9467
15321SOL    HW246649   2.998   2.727   0.941 -1.4157 -3.3143 -2.1609
15322SOL     OW46650   0.108   6.941   4.615  0.0729 -0.0754 -0.4768
15322SOL    HW146651   0.161   6.879   4.666  2.4060  1.9891 -0.1837
15322SOL    HW246652   0.159   6.957   4.536 -1.3366  0.1681 -1.3657
15323SOL     OW46653   5.417   2.708   1.162 -0.4119  0.1070  0.1267
15323SOL    HW146654   5.470   2.644   1.115  1.8311  0.3835  2.1054
15323SOL    HW246655   5.432   2.791   1.116 -0.9769 -0.1985 -0.6481
15324SOL     OW46656   6.184   4.146   5.699 -0.4026 -0.0014  0.7445
15324SOL    HW146657   6.253   4.174   5.639 -0.3200 -1.8674 -0.0921
15324SOL    HW246658   6.123   4.097   5.644 -0.0813 -2.1690  2.2260
15325SOL     OW46659   2.552   5.704   0.218 -0.4047 -0.1659 -0.4944
15325SOL    HW146660   2.479   5.667   0.169 -1.5917  0.4785  0.7185
15325SOL    HW246661   2.520   5.789   0.248  1.4072  0.8378 -1.2335
15326SOL     OW46662   3.424   6.998   6.459  0.9587 -0.2054 -0.3235
15326SOL    HW146663   3.462   6.934   6.519 -0.6434 -1.2587 -0.3668
15326SOL    HW246664   3.458   6.972   6.373  0.9785 -0.5045 -0.2282
15327SOL     OW46665   3.028   6.790   4.431 -0.5239  0.5772 -0.3417
15327SOL    HW146666   3.099   6.854   4.421  1.7536 -1.8162 -0.5537
15327SOL    HW246667   2.991   6.782   4.343 -0.4362  1.1634 -0.4342
15328SOL     OW46668   0.187   4.124   0.962  0.1566 -0.2266 -0.4620
15328SOL    HW146669   0.168   4.203   1.013 -0.4721  0.7728 -2.1384
15328SOL    HW246670   0.195   4.156   0.872 -1.5607 -2.2633 -1.4193
15329SOL     OW46671   3.898   7.695   2.957  0.2313 -0.0631 -0.1854
15329SOL    HW146672   3.833   7.626   2.968  0.4754 -0.6353 -1.9832
15329SOL    HW246673   3.947   7.670   2.878 -0.1704  2.5271 -1.3835
15330SOL     OW46674   5.471   6.257   4.304 -0.2225  0.1165  0.6146
15330SOL    HW146675   5.483   6.178   4.356 -0.4313 -0.9306 -0.8683
15330SOL    HW246676   5.559   6.282   4.277 -0.2797 -0.5780 -0.2629
15331NA      NA46677   0.467   4.749   5.297  0.0768  0.0396  0.0671
15332NA      NA46678   2.043   4.466   3.336 -0.0219 -0.3024 -0.1253
15333NA      NA46679   6.398   4.567   1.276 -0.5955 -0.1837  0.2688
15334NA      NA46680   1.600   3.962   4.522  0.1684  0.4589  0.1486
15335NA      NA46681   1.275   2.522   3.673 -0.1938  0.4033 -0.2364
15336NA      NA46682   7.508   5.528   3.726 -0.4280 -0.5870 -0.1921
15337NA      NA46683   0.848   0.689   4.712  0.2511  0.6325 -0.2645
15338NA      NA46684   5.826   2.805   7.143 -0.5350  0.3944  0.6556
15339NA      NA46685   7.321   6.578   4.372  0.3286  0.3310  0.0600
15340NA      NA46686   3.413   4.631   2.823  0.4559  0.2453 -0.2267
15341NA      NA46687   5.258   1.532   1.294  0.1413 -0.2866  0.4570
15342NA      NA46688   2.952   4.612   5.835  0.0000 -0.5670 -0.0102
15343NA      NA46689   3.572   0.406   2.444 -0.4971 -0.1010  0.1682
15344NA      NA46690   6.559   7.142   1.294  0.1027  0.1261  0.5519
15345NA      NA46691   1.238   1.364   1.244  0.0280 -0.1233  0.1869
15346NA      NA46692   2.018   5.505   1.250 -0.3558  0.6371 -0.6763
15347NA      NA46693   0.219   1.912   7.055 -0.1013 -0.2034 -0.1490
15348NA      NA46694   2.556   7.692   6.528  0.7648 -0.2624 -0.2332
15349NA      NA46695   6.300   1.750   6.630  0.0782  0.2569 -0.3014
15350NA      NA46696   4.676   3.669   2.839  0.0750 -0.2752  0.2961
15351NA      NA46697   3.569   0.708   6.675  0.2829 -0.3464  0.1940
15352NA      NA46698   0.063   6.446   0.761 -0.1018 -0.0740 -0.0218
15353NA      NA46699   4.560   4.244   0.659  0.3678 -0.4489 -0.4514
15354NA      NA46700   0.748   4.417   0.543 -0.2041 -0.3996  0.3111
15355NA      NA46701   6.781   4.858   5.493  0.0037 -0.0402  1.0991
15356NA      NA46702   4.924   6.066   3.692  0.2408 -0.2604 -0.2867
15357NA      NA46703   5.609   4.180   6.853 -0.4046  0.2745 -0.1628
15358NA      NA46704   7.472   2.063   1.180 -0.0996  0.0670 -0.7222
15359NA      NA46705   2.562   5.372   4.666  0.3126  0.1112 -0.6494
15360NA      NA46706   6.668   4.935   3.367 -0.4324  0.3157 -0.1272
15361NA      NA46707   6.436   0.321   6.058 -0.2202  0.0438  0.3056
15362NA      NA46708   6.257   5.778   5.399  0.1878 -0.2854  0.7995
15363NA      NA46709   5.365   2.953   7.605 -0.3401 -0.0671  0.0627
15364NA      NA46710   0.169   2.561   5.027 -0.0570  0.1093  0.0728
15365NA      NA46711   6.700   2.044   2.952  0.0188  0.2584 -0.5516
15366NA      NA46712   3.530   2.015   0.792  0.0063  0.0940 -0.4035
15367NA      NA46713   3.129   0.376   5.229  0.3641 -0.3921 -0.0220
15368NA      NA46714   4.831   0.284   3.261 -0.1947  0.1869  0.1105
15369NA      NA46715   4.540   1.420   6.197  0.3785 -0.1707 -0.1574
15370NA      NA46716   3.388   6.585   1.059 -0.0743 -0.0142 -0.1949
15371NA      NA46717   4.802   6.328   2.187  0.2524 -0.1142 -0.4136
15372NA      NA46718   1.960   7.586   2.129 -0.4596  0.2538 -0.2592
15373NA      NA46719   7.265   1.384   4.757 -0.1612 -0.1337 -0.3032
15374CL      CL46720   5.000   6.911   3.609  0.1481 -0.3902  0.1430
15375CL      CL46721   2.587   6.125   7.055 -0.0045 -0.0502  0.1349
15376CL      CL46722   3.768   0.606   5.673  0.5331  0.2411  0.1446
15377CL      CL46723   7.014   0.457   4.300  0.0753 -0.3795 -0.3857
15378CL      CL46724   2.168   3.235   4.402 -0.0257 -0.3193  0.2286
15379CL      CL46725   3.516   2.282   0.805  0.3202 -0.1195 -0.2162
15380CL      CL46726   4.729   7.625   7.690 -0.2665 -0.3857  0.3008
15381CL      CL46727   0.354   3.778   4.587  0.1817  0.2730  0.3062
15382CL      CL46728   3.053   0.646   2.424 -0.0867 -0.1716 -0.4521
15383CL      CL46729   5.397   2.983   1.001 -0.2564  0.2099 -0.0725
15384CL      CL46730   3.863   2.900   7.330  0.1619  0.1733 -0.2070
15385CL      CL46731   4.969   5.700   4.997  0.1589  0.2903  0.0372
15386CL      CL46732   5.543   2.171   6.097 -0.1220 -0.1101 -0.0663
15387CL      CL46733   6.837   1.781   1.213 -0.0430  0.1205  0.2156
15388CL      CL46734   5.769   4.882   1.310  0.3871  0.3129 -0.3115
15389CL      CL46735   7.245   0.810   6.795  0.2235  0.0343 -0.0557
15390CL      CL46736   3.279   5.539   1.440  0.4389  0.1817 -0.1857
15391CL      CL46737   3.922   5.399   1.739 -0.0276  0.1162  0.2405
15392CL      CL46738   4.204   6.842   4.338 -0.2209  0.0021  0.1646
15393CL      CL46739   5.681   5.855   6.978  0.3352 -0.2639  0.0477
15394CL      CL46740   2.063   1.267   0.932  0.0994 -0.3399  0.0999
15395CL      CL46741   7.389   5.892   0.943 -0.0994 -0.0391  0.0219
15396CL      CL46742   0.153   0.228   3.946  0.0853 -0.3476  0.4842
15397CL      CL46743   7.188   6.534   5.623 -0.0030  0.0722 -0.0876
15398CL      CL46744   5.137   1.820   6.451 -0.0509  0.4024 -0.0940
15399CL      CL46745   2.312   0.411   1.362 -0.2147  0.0894 -0.3693
15400CL      CL46746   6.464   1.180   6.403 -0.0764  0.1123 -0.1152
15401CL      CL46747   3.638   3.656   2.105 -0.0534 -0.0120 -0.3062
15402CL      CL46748   0.727   6.466   7.655  0.3258 -0.1033 -0.0944
15403CL      CL46749   7.455   5.332   2.949  0.0379 -0.2374 -0.3735
15404CL      CL46750   1.999   5.301   4.577 -0.1982 -0.4210  0.1285
15405CL      CL46751   1.857   4.612   3.267 -0.0533 -0.1733  0.1522
15406CL      CL46752   6.049   6.354   1.522 -0.2650 -0.5946  0.1273
15407CL      CL46753   6.203   4.956   7.167 -0.0904 -0.0475 -0.1903
15408CL      CL46754   2.882   4.980   7.209  0.0309 -0.0258 -0.3030
15409CL      CL46755   2.461   1.422   5.012 -0.3858 -0.2573  0.1033
15410CL      CL46756   5.487   2.517   5.476  0.1196 -0.2322  0.0113
15411CL      CL46757   6.162   0.670   3.047 -0.0540  0.3201  0.2040
15412CL      CL46758   3.448   3.604   3.423 -0.0353 -0.3340  0.2625
15413CL      CL46759   2.218   6.416   3.010  0.4554  0.4231  0.0091
15414CL      CL46760   3.251   4.186   2.205 -0.0605  0.1559  0.3310
15415CL      CL46761   6.777   6.845   5.066  0.0592 -0.1342  0.5367
15416CL      CL46762   1.057   7.192   2.918 -0.0084 -0.0698 -0.3391
   7.77861   7.77861   7.77861
