;
;   File g6.5Ncore_coo-petim.itp  was generated
;   By user: sairam (1000)
;   On host: sairam
;   At date: Wed. August  3 15:01:51 2023
;
;   This is a standalone topology file
;
;   Created by:
;   ParmEd:       amb2gro_top_gro.py, VERSION 3.4.1
;   Executable:   amb2gro_top_gro.py
;   Library dir:  /usr/local/gromacs/share/gromacs/top
;   Command line:
;     ./amb2gro_top_gro.py -p g6.5Ncore_coo-petim.prmtop -c g6.5Ncore_coo-petim.inpcrd -t g6.5Ncore_coo-petim.itp -g g6.5Ncore_coo-petim.gro -b g6.5Ncore_coo-petim.pdb
;

;[ defaults ]
;; nbfunc        comb-rule       gen-pairs       fudgeLJ fudgeQQ
;1               2               yes             0.5          0.83333333  
;
;[ atomtypes ]
;; name    at.num    mass    charge ptype  sigma      epsilon
;n3             7  14.010000  0.00000000  A     0.32499985        0.71128
;c3             6  12.010000  0.00000000  A     0.33996695      0.4577296
;h1             1   1.008000  0.00000000  A      0.2471353      0.0656888
;hc             1   1.008000  0.00000000  A     0.26495328      0.0656888
;os             8  16.000000  0.00000000  A     0.30000123        0.71128
;c              6  12.010000  0.00000000  A     0.33996695       0.359824
;o              8  16.000000  0.00000000  A     0.29599219        0.87864


[ moleculetype ]
; Name            nrexcl
g6.5Ncore_coo-petim    3

[ atoms ]
;   nr       type  resnr residue  atom   cgnr    charge       mass  typeB    chargeB      massB
; residue    1 aaa rtp aaa q 0.0
    1         n3      1    aaa     N1      1 -0.65416500  14.010000   ; qtot -0.654165
    2         c3      1    aaa     C1      2 0.05178400  12.010000   ; qtot -0.602381
    3         h1      1    aaa     H1      3 0.06475500   1.008000   ; qtot -0.537626
    4         h1      1    aaa     H2      4 0.06475500   1.008000   ; qtot -0.472871
    5         c3      1    aaa     C2      5 0.05178400  12.010000   ; qtot -0.421087
    6         h1      1    aaa     H3      6 0.06475500   1.008000   ; qtot -0.356332
    7         h1      1    aaa     H4      7 0.06475500   1.008000   ; qtot -0.291577
    8         c3      1    aaa     C3      8 0.05178400  12.010000   ; qtot -0.239793
    9         h1      1    aaa     H5      9 0.06475500   1.008000   ; qtot -0.175038
   10         h1      1    aaa     H6     10 0.06475500   1.008000   ; qtot -0.110283
   11         c3      1    aaa     C4     11 0.07871100  12.010000   ; qtot -0.031572
   12         hc      1    aaa     H7     12 0.08683700   1.008000   ; qtot 0.055265
   13         hc      1    aaa     H8     13 0.08683700   1.008000   ; qtot 0.142102
   14         c3      1    aaa     C5     14 0.07871100  12.010000   ; qtot 0.220813
   15         hc      1    aaa     H9     15 0.08683700   1.008000   ; qtot 0.307650
   16         hc      1    aaa    H10     16 0.08683700   1.008000   ; qtot 0.394487
   17         c3      1    aaa     C6     17 0.07871100  12.010000   ; qtot 0.473198
   18         hc      1    aaa    H11     18 0.08683700   1.008000   ; qtot 0.560035
   19         hc      1    aaa    H12     19 0.08683700   1.008000   ; qtot 0.646872
   20         c3      1    aaa     C7     20 -0.74941200  12.010000   ; qtot -0.102540
   21         h1      1    aaa    H13     21 0.26689400   1.008000   ; qtot 0.164354
   22         h1      1    aaa    H14     22 0.26689400   1.008000   ; qtot 0.431248
   23         c3      1    aaa     C8     23 -0.74941200  12.010000   ; qtot -0.318164
   24         h1      1    aaa    H15     24 0.26689400   1.008000   ; qtot -0.051270
   25         h1      1    aaa    H16     25 0.26689400   1.008000   ; qtot 0.215624
   26         c3      1    aaa     C9     26 -0.74941200  12.010000   ; qtot -0.533788
   27         h1      1    aaa    H17     27 0.26689400   1.008000   ; qtot -0.266894
   28         h1      1    aaa    H18     28 0.26689400   1.008000   ; qtot 0.000000
; residue    2 bbb rtp bbb q -0.0
   29         n3      2    bbb     N1     29 -0.59685800  14.010000   ; qtot -0.596858
   30         c3      2    bbb     C1     30 0.10137000  12.010000   ; qtot -0.495488
   31         h1      2    bbb     H1     31 0.04411300   1.008000   ; qtot -0.451375
   32         h1      2    bbb     H2     32 0.04411300   1.008000   ; qtot -0.407262
   33         c3      2    bbb     C2     33 0.10137000  12.010000   ; qtot -0.305892
   34         h1      2    bbb     H3     34 0.04411300   1.008000   ; qtot -0.261779
   35         h1      2    bbb     H4     35 0.04411300   1.008000   ; qtot -0.217666
   36         c3      2    bbb     C3     36 -0.00195300  12.010000   ; qtot -0.219619
   37         h1      2    bbb     H5     37 0.05064400   1.008000   ; qtot -0.168975
   38         h1      2    bbb     H6     38 0.05064400   1.008000   ; qtot -0.118331
   39         c3      2    bbb     C4     39 -0.01612100  12.010000   ; qtot -0.134452
   40         hc      2    bbb     H7     40 0.04936100   1.008000   ; qtot -0.085091
   41         hc      2    bbb     H8     41 0.04936100   1.008000   ; qtot -0.035730
   42         c3      2    bbb     C5     42 0.11363000  12.010000   ; qtot 0.077900
   43         hc      2    bbb     H9     43 0.06265900   1.008000   ; qtot 0.140559
   44         hc      2    bbb    H10     44 0.06265900   1.008000   ; qtot 0.203218
   45         c3      2    bbb     C6     45 0.11363000  12.010000   ; qtot 0.316848
   46         hc      2    bbb    H11     46 0.06265900   1.008000   ; qtot 0.379507
   47         hc      2    bbb    H12     47 0.06265900   1.008000   ; qtot 0.442166
   48         c3      2    bbb     C7     48 0.05858200  12.010000   ; qtot 0.500748
   49         h1      2    bbb    H13     49 0.06123400   1.008000   ; qtot 0.561982
   50         h1      2    bbb    H14     50 0.06123400   1.008000   ; qtot 0.623216
   51         c3      2    bbb     C8     51 -0.72423400  12.010000   ; qtot -0.101018
   52         h1      2    bbb    H15     52 0.25637600   1.008000   ; qtot 0.155358
   53         h1      2    bbb    H16     53 0.25637600   1.008000   ; qtot 0.411734
   54         c3      2    bbb     C9     54 -0.72423400  12.010000   ; qtot -0.312500
   55         h1      2    bbb    H17     55 0.25637600   1.008000   ; qtot -0.056124
   56         h1      2    bbb    H18     56 0.25637600   1.008000   ; qtot 0.200252
   57         os      2    bbb     O1     57 -0.20025300  16.000000   ; qtot -0.000001
; residue    3 bbb rtp bbb q -0.0
   58         n3      3    bbb     N1     58 -0.59685800  14.010000   ; qtot -0.596859
   59         c3      3    bbb     C1     59 0.10137000  12.010000   ; qtot -0.495489
   60         h1      3    bbb     H1     60 0.04411300   1.008000   ; qtot -0.451376
   61         h1      3    bbb     H2     61 0.04411300   1.008000   ; qtot -0.407263
   62         c3      3    bbb     C2     62 0.10137000  12.010000   ; qtot -0.305893
   63         h1      3    bbb     H3     63 0.04411300   1.008000   ; qtot -0.261780
   64         h1      3    bbb     H4     64 0.04411300   1.008000   ; qtot -0.217667
   65         c3      3    bbb     C3     65 -0.00195300  12.010000   ; qtot -0.219620
   66         h1      3    bbb     H5     66 0.05064400   1.008000   ; qtot -0.168976
   67         h1      3    bbb     H6     67 0.05064400   1.008000   ; qtot -0.118332
   68         c3      3    bbb     C4     68 -0.01612100  12.010000   ; qtot -0.134453
   69         hc      3    bbb     H7     69 0.04936100   1.008000   ; qtot -0.085092
   70         hc      3    bbb     H8     70 0.04936100   1.008000   ; qtot -0.035731
   71         c3      3    bbb     C5     71 0.11363000  12.010000   ; qtot 0.077899
   72         hc      3    bbb     H9     72 0.06265900   1.008000   ; qtot 0.140558
   73         hc      3    bbb    H10     73 0.06265900   1.008000   ; qtot 0.203217
   74         c3      3    bbb     C6     74 0.11363000  12.010000   ; qtot 0.316847
   75         hc      3    bbb    H11     75 0.06265900   1.008000   ; qtot 0.379506
   76         hc      3    bbb    H12     76 0.06265900   1.008000   ; qtot 0.442165
   77         c3      3    bbb     C7     77 0.05858200  12.010000   ; qtot 0.500747
   78         h1      3    bbb    H13     78 0.06123400   1.008000   ; qtot 0.561981
   79         h1      3    bbb    H14     79 0.06123400   1.008000   ; qtot 0.623215
   80         c3      3    bbb     C8     80 -0.72423400  12.010000   ; qtot -0.101019
   81         h1      3    bbb    H15     81 0.25637600   1.008000   ; qtot 0.155357
   82         h1      3    bbb    H16     82 0.25637600   1.008000   ; qtot 0.411733
   83         c3      3    bbb     C9     83 -0.72423400  12.010000   ; qtot -0.312501
   84         h1      3    bbb    H17     84 0.25637600   1.008000   ; qtot -0.056125
   85         h1      3    bbb    H18     85 0.25637600   1.008000   ; qtot 0.200251
   86         os      3    bbb     O1     86 -0.20025300  16.000000   ; qtot -0.000002
; residue    4 bbb rtp bbb q -0.0
   87         n3      4    bbb     N1     87 -0.59685800  14.010000   ; qtot -0.596860
   88         c3      4    bbb     C1     88 0.10137000  12.010000   ; qtot -0.495490
   89         h1      4    bbb     H1     89 0.04411300   1.008000   ; qtot -0.451377
   90         h1      4    bbb     H2     90 0.04411300   1.008000   ; qtot -0.407264
   91         c3      4    bbb     C2     91 0.10137000  12.010000   ; qtot -0.305894
   92         h1      4    bbb     H3     92 0.04411300   1.008000   ; qtot -0.261781
   93         h1      4    bbb     H4     93 0.04411300   1.008000   ; qtot -0.217668
   94         c3      4    bbb     C3     94 -0.00195300  12.010000   ; qtot -0.219621
   95         h1      4    bbb     H5     95 0.05064400   1.008000   ; qtot -0.168977
   96         h1      4    bbb     H6     96 0.05064400   1.008000   ; qtot -0.118333
   97         c3      4    bbb     C4     97 -0.01612100  12.010000   ; qtot -0.134454
   98         hc      4    bbb     H7     98 0.04936100   1.008000   ; qtot -0.085093
   99         hc      4    bbb     H8     99 0.04936100   1.008000   ; qtot -0.035732
  100         c3      4    bbb     C5    100 0.11363000  12.010000   ; qtot 0.077898
  101         hc      4    bbb     H9    101 0.06265900   1.008000   ; qtot 0.140557
  102         hc      4    bbb    H10    102 0.06265900   1.008000   ; qtot 0.203216
  103         c3      4    bbb     C6    103 0.11363000  12.010000   ; qtot 0.316846
  104         hc      4    bbb    H11    104 0.06265900   1.008000   ; qtot 0.379505
  105         hc      4    bbb    H12    105 0.06265900   1.008000   ; qtot 0.442164
  106         c3      4    bbb     C7    106 0.05858200  12.010000   ; qtot 0.500746
  107         h1      4    bbb    H13    107 0.06123400   1.008000   ; qtot 0.561980
  108         h1      4    bbb    H14    108 0.06123400   1.008000   ; qtot 0.623214
  109         c3      4    bbb     C8    109 -0.72423400  12.010000   ; qtot -0.101020
  110         h1      4    bbb    H15    110 0.25637600   1.008000   ; qtot 0.155356
  111         h1      4    bbb    H16    111 0.25637600   1.008000   ; qtot 0.411732
  112         c3      4    bbb     C9    112 -0.72423400  12.010000   ; qtot -0.312502
  113         h1      4    bbb    H17    113 0.25637600   1.008000   ; qtot -0.056126
  114         h1      4    bbb    H18    114 0.25637600   1.008000   ; qtot 0.200250
  115         os      4    bbb     O1    115 -0.20025300  16.000000   ; qtot -0.000003
; residue    5 bbb rtp bbb q -0.0
  116         n3      5    bbb     N1    116 -0.59685800  14.010000   ; qtot -0.596861
  117         c3      5    bbb     C1    117 0.10137000  12.010000   ; qtot -0.495491
  118         h1      5    bbb     H1    118 0.04411300   1.008000   ; qtot -0.451378
  119         h1      5    bbb     H2    119 0.04411300   1.008000   ; qtot -0.407265
  120         c3      5    bbb     C2    120 0.10137000  12.010000   ; qtot -0.305895
  121         h1      5    bbb     H3    121 0.04411300   1.008000   ; qtot -0.261782
  122         h1      5    bbb     H4    122 0.04411300   1.008000   ; qtot -0.217669
  123         c3      5    bbb     C3    123 -0.00195300  12.010000   ; qtot -0.219622
  124         h1      5    bbb     H5    124 0.05064400   1.008000   ; qtot -0.168978
  125         h1      5    bbb     H6    125 0.05064400   1.008000   ; qtot -0.118334
  126         c3      5    bbb     C4    126 -0.01612100  12.010000   ; qtot -0.134455
  127         hc      5    bbb     H7    127 0.04936100   1.008000   ; qtot -0.085094
  128         hc      5    bbb     H8    128 0.04936100   1.008000   ; qtot -0.035733
  129         c3      5    bbb     C5    129 0.11363000  12.010000   ; qtot 0.077897
  130         hc      5    bbb     H9    130 0.06265900   1.008000   ; qtot 0.140556
  131         hc      5    bbb    H10    131 0.06265900   1.008000   ; qtot 0.203215
  132         c3      5    bbb     C6    132 0.11363000  12.010000   ; qtot 0.316845
  133         hc      5    bbb    H11    133 0.06265900   1.008000   ; qtot 0.379504
  134         hc      5    bbb    H12    134 0.06265900   1.008000   ; qtot 0.442163
  135         c3      5    bbb     C7    135 0.05858200  12.010000   ; qtot 0.500745
  136         h1      5    bbb    H13    136 0.06123400   1.008000   ; qtot 0.561979
  137         h1      5    bbb    H14    137 0.06123400   1.008000   ; qtot 0.623213
  138         c3      5    bbb     C8    138 -0.72423400  12.010000   ; qtot -0.101021
  139         h1      5    bbb    H15    139 0.25637600   1.008000   ; qtot 0.155355
  140         h1      5    bbb    H16    140 0.25637600   1.008000   ; qtot 0.411731
  141         c3      5    bbb     C9    141 -0.72423400  12.010000   ; qtot -0.312503
  142         h1      5    bbb    H17    142 0.25637600   1.008000   ; qtot -0.056127
  143         h1      5    bbb    H18    143 0.25637600   1.008000   ; qtot 0.200249
  144         os      5    bbb     O1    144 -0.20025300  16.000000   ; qtot -0.000004
; residue    6 bbb rtp bbb q -0.0
  145         n3      6    bbb     N1    145 -0.59685800  14.010000   ; qtot -0.596862
  146         c3      6    bbb     C1    146 0.10137000  12.010000   ; qtot -0.495492
  147         h1      6    bbb     H1    147 0.04411300   1.008000   ; qtot -0.451379
  148         h1      6    bbb     H2    148 0.04411300   1.008000   ; qtot -0.407266
  149         c3      6    bbb     C2    149 0.10137000  12.010000   ; qtot -0.305896
  150         h1      6    bbb     H3    150 0.04411300   1.008000   ; qtot -0.261783
  151         h1      6    bbb     H4    151 0.04411300   1.008000   ; qtot -0.217670
  152         c3      6    bbb     C3    152 -0.00195300  12.010000   ; qtot -0.219623
  153         h1      6    bbb     H5    153 0.05064400   1.008000   ; qtot -0.168979
  154         h1      6    bbb     H6    154 0.05064400   1.008000   ; qtot -0.118335
  155         c3      6    bbb     C4    155 -0.01612100  12.010000   ; qtot -0.134456
  156         hc      6    bbb     H7    156 0.04936100   1.008000   ; qtot -0.085095
  157         hc      6    bbb     H8    157 0.04936100   1.008000   ; qtot -0.035734
  158         c3      6    bbb     C5    158 0.11363000  12.010000   ; qtot 0.077896
  159         hc      6    bbb     H9    159 0.06265900   1.008000   ; qtot 0.140555
  160         hc      6    bbb    H10    160 0.06265900   1.008000   ; qtot 0.203214
  161         c3      6    bbb     C6    161 0.11363000  12.010000   ; qtot 0.316844
  162         hc      6    bbb    H11    162 0.06265900   1.008000   ; qtot 0.379503
  163         hc      6    bbb    H12    163 0.06265900   1.008000   ; qtot 0.442162
  164         c3      6    bbb     C7    164 0.05858200  12.010000   ; qtot 0.500744
  165         h1      6    bbb    H13    165 0.06123400   1.008000   ; qtot 0.561978
  166         h1      6    bbb    H14    166 0.06123400   1.008000   ; qtot 0.623212
  167         c3      6    bbb     C8    167 -0.72423400  12.010000   ; qtot -0.101022
  168         h1      6    bbb    H15    168 0.25637600   1.008000   ; qtot 0.155354
  169         h1      6    bbb    H16    169 0.25637600   1.008000   ; qtot 0.411730
  170         c3      6    bbb     C9    170 -0.72423400  12.010000   ; qtot -0.312504
  171         h1      6    bbb    H17    171 0.25637600   1.008000   ; qtot -0.056128
  172         h1      6    bbb    H18    172 0.25637600   1.008000   ; qtot 0.200248
  173         os      6    bbb     O1    173 -0.20025300  16.000000   ; qtot -0.000005
; residue    7 bbb rtp bbb q -0.0
  174         n3      7    bbb     N1    174 -0.59685800  14.010000   ; qtot -0.596863
  175         c3      7    bbb     C1    175 0.10137000  12.010000   ; qtot -0.495493
  176         h1      7    bbb     H1    176 0.04411300   1.008000   ; qtot -0.451380
  177         h1      7    bbb     H2    177 0.04411300   1.008000   ; qtot -0.407267
  178         c3      7    bbb     C2    178 0.10137000  12.010000   ; qtot -0.305897
  179         h1      7    bbb     H3    179 0.04411300   1.008000   ; qtot -0.261784
  180         h1      7    bbb     H4    180 0.04411300   1.008000   ; qtot -0.217671
  181         c3      7    bbb     C3    181 -0.00195300  12.010000   ; qtot -0.219624
  182         h1      7    bbb     H5    182 0.05064400   1.008000   ; qtot -0.168980
  183         h1      7    bbb     H6    183 0.05064400   1.008000   ; qtot -0.118336
  184         c3      7    bbb     C4    184 -0.01612100  12.010000   ; qtot -0.134457
  185         hc      7    bbb     H7    185 0.04936100   1.008000   ; qtot -0.085096
  186         hc      7    bbb     H8    186 0.04936100   1.008000   ; qtot -0.035735
  187         c3      7    bbb     C5    187 0.11363000  12.010000   ; qtot 0.077895
  188         hc      7    bbb     H9    188 0.06265900   1.008000   ; qtot 0.140554
  189         hc      7    bbb    H10    189 0.06265900   1.008000   ; qtot 0.203213
  190         c3      7    bbb     C6    190 0.11363000  12.010000   ; qtot 0.316843
  191         hc      7    bbb    H11    191 0.06265900   1.008000   ; qtot 0.379502
  192         hc      7    bbb    H12    192 0.06265900   1.008000   ; qtot 0.442161
  193         c3      7    bbb     C7    193 0.05858200  12.010000   ; qtot 0.500743
  194         h1      7    bbb    H13    194 0.06123400   1.008000   ; qtot 0.561977
  195         h1      7    bbb    H14    195 0.06123400   1.008000   ; qtot 0.623211
  196         c3      7    bbb     C8    196 -0.72423400  12.010000   ; qtot -0.101023
  197         h1      7    bbb    H15    197 0.25637600   1.008000   ; qtot 0.155353
  198         h1      7    bbb    H16    198 0.25637600   1.008000   ; qtot 0.411729
  199         c3      7    bbb     C9    199 -0.72423400  12.010000   ; qtot -0.312505
  200         h1      7    bbb    H17    200 0.25637600   1.008000   ; qtot -0.056129
  201         h1      7    bbb    H18    201 0.25637600   1.008000   ; qtot 0.200247
  202         os      7    bbb     O1    202 -0.20025300  16.000000   ; qtot -0.000006
; residue    8 bbb rtp bbb q -0.0
  203         n3      8    bbb     N1    203 -0.59685800  14.010000   ; qtot -0.596864
  204         c3      8    bbb     C1    204 0.10137000  12.010000   ; qtot -0.495494
  205         h1      8    bbb     H1    205 0.04411300   1.008000   ; qtot -0.451381
  206         h1      8    bbb     H2    206 0.04411300   1.008000   ; qtot -0.407268
  207         c3      8    bbb     C2    207 0.10137000  12.010000   ; qtot -0.305898
  208         h1      8    bbb     H3    208 0.04411300   1.008000   ; qtot -0.261785
  209         h1      8    bbb     H4    209 0.04411300   1.008000   ; qtot -0.217672
  210         c3      8    bbb     C3    210 -0.00195300  12.010000   ; qtot -0.219625
  211         h1      8    bbb     H5    211 0.05064400   1.008000   ; qtot -0.168981
  212         h1      8    bbb     H6    212 0.05064400   1.008000   ; qtot -0.118337
  213         c3      8    bbb     C4    213 -0.01612100  12.010000   ; qtot -0.134458
  214         hc      8    bbb     H7    214 0.04936100   1.008000   ; qtot -0.085097
  215         hc      8    bbb     H8    215 0.04936100   1.008000   ; qtot -0.035736
  216         c3      8    bbb     C5    216 0.11363000  12.010000   ; qtot 0.077894
  217         hc      8    bbb     H9    217 0.06265900   1.008000   ; qtot 0.140553
  218         hc      8    bbb    H10    218 0.06265900   1.008000   ; qtot 0.203212
  219         c3      8    bbb     C6    219 0.11363000  12.010000   ; qtot 0.316842
  220         hc      8    bbb    H11    220 0.06265900   1.008000   ; qtot 0.379501
  221         hc      8    bbb    H12    221 0.06265900   1.008000   ; qtot 0.442160
  222         c3      8    bbb     C7    222 0.05858200  12.010000   ; qtot 0.500742
  223         h1      8    bbb    H13    223 0.06123400   1.008000   ; qtot 0.561976
  224         h1      8    bbb    H14    224 0.06123400   1.008000   ; qtot 0.623210
  225         c3      8    bbb     C8    225 -0.72423400  12.010000   ; qtot -0.101024
  226         h1      8    bbb    H15    226 0.25637600   1.008000   ; qtot 0.155352
  227         h1      8    bbb    H16    227 0.25637600   1.008000   ; qtot 0.411728
  228         c3      8    bbb     C9    228 -0.72423400  12.010000   ; qtot -0.312506
  229         h1      8    bbb    H17    229 0.25637600   1.008000   ; qtot -0.056130
  230         h1      8    bbb    H18    230 0.25637600   1.008000   ; qtot 0.200246
  231         os      8    bbb     O1    231 -0.20025300  16.000000   ; qtot -0.000007
; residue    9 bbb rtp bbb q -0.0
  232         n3      9    bbb     N1    232 -0.59685800  14.010000   ; qtot -0.596865
  233         c3      9    bbb     C1    233 0.10137000  12.010000   ; qtot -0.495495
  234         h1      9    bbb     H1    234 0.04411300   1.008000   ; qtot -0.451382
  235         h1      9    bbb     H2    235 0.04411300   1.008000   ; qtot -0.407269
  236         c3      9    bbb     C2    236 0.10137000  12.010000   ; qtot -0.305899
  237         h1      9    bbb     H3    237 0.04411300   1.008000   ; qtot -0.261786
  238         h1      9    bbb     H4    238 0.04411300   1.008000   ; qtot -0.217673
  239         c3      9    bbb     C3    239 -0.00195300  12.010000   ; qtot -0.219626
  240         h1      9    bbb     H5    240 0.05064400   1.008000   ; qtot -0.168982
  241         h1      9    bbb     H6    241 0.05064400   1.008000   ; qtot -0.118338
  242         c3      9    bbb     C4    242 -0.01612100  12.010000   ; qtot -0.134459
  243         hc      9    bbb     H7    243 0.04936100   1.008000   ; qtot -0.085098
  244         hc      9    bbb     H8    244 0.04936100   1.008000   ; qtot -0.035737
  245         c3      9    bbb     C5    245 0.11363000  12.010000   ; qtot 0.077893
  246         hc      9    bbb     H9    246 0.06265900   1.008000   ; qtot 0.140552
  247         hc      9    bbb    H10    247 0.06265900   1.008000   ; qtot 0.203211
  248         c3      9    bbb     C6    248 0.11363000  12.010000   ; qtot 0.316841
  249         hc      9    bbb    H11    249 0.06265900   1.008000   ; qtot 0.379500
  250         hc      9    bbb    H12    250 0.06265900   1.008000   ; qtot 0.442159
  251         c3      9    bbb     C7    251 0.05858200  12.010000   ; qtot 0.500741
  252         h1      9    bbb    H13    252 0.06123400   1.008000   ; qtot 0.561975
  253         h1      9    bbb    H14    253 0.06123400   1.008000   ; qtot 0.623209
  254         c3      9    bbb     C8    254 -0.72423400  12.010000   ; qtot -0.101025
  255         h1      9    bbb    H15    255 0.25637600   1.008000   ; qtot 0.155351
  256         h1      9    bbb    H16    256 0.25637600   1.008000   ; qtot 0.411727
  257         c3      9    bbb     C9    257 -0.72423400  12.010000   ; qtot -0.312507
  258         h1      9    bbb    H17    258 0.25637600   1.008000   ; qtot -0.056131
  259         h1      9    bbb    H18    259 0.25637600   1.008000   ; qtot 0.200245
  260         os      9    bbb     O1    260 -0.20025300  16.000000   ; qtot -0.000008
; residue   10 bbb rtp bbb q -0.0
  261         n3     10    bbb     N1    261 -0.59685800  14.010000   ; qtot -0.596866
  262         c3     10    bbb     C1    262 0.10137000  12.010000   ; qtot -0.495496
  263         h1     10    bbb     H1    263 0.04411300   1.008000   ; qtot -0.451383
  264         h1     10    bbb     H2    264 0.04411300   1.008000   ; qtot -0.407270
  265         c3     10    bbb     C2    265 0.10137000  12.010000   ; qtot -0.305900
  266         h1     10    bbb     H3    266 0.04411300   1.008000   ; qtot -0.261787
  267         h1     10    bbb     H4    267 0.04411300   1.008000   ; qtot -0.217674
  268         c3     10    bbb     C3    268 -0.00195300  12.010000   ; qtot -0.219627
  269         h1     10    bbb     H5    269 0.05064400   1.008000   ; qtot -0.168983
  270         h1     10    bbb     H6    270 0.05064400   1.008000   ; qtot -0.118339
  271         c3     10    bbb     C4    271 -0.01612100  12.010000   ; qtot -0.134460
  272         hc     10    bbb     H7    272 0.04936100   1.008000   ; qtot -0.085099
  273         hc     10    bbb     H8    273 0.04936100   1.008000   ; qtot -0.035738
  274         c3     10    bbb     C5    274 0.11363000  12.010000   ; qtot 0.077892
  275         hc     10    bbb     H9    275 0.06265900   1.008000   ; qtot 0.140551
  276         hc     10    bbb    H10    276 0.06265900   1.008000   ; qtot 0.203210
  277         c3     10    bbb     C6    277 0.11363000  12.010000   ; qtot 0.316840
  278         hc     10    bbb    H11    278 0.06265900   1.008000   ; qtot 0.379499
  279         hc     10    bbb    H12    279 0.06265900   1.008000   ; qtot 0.442158
  280         c3     10    bbb     C7    280 0.05858200  12.010000   ; qtot 0.500740
  281         h1     10    bbb    H13    281 0.06123400   1.008000   ; qtot 0.561974
  282         h1     10    bbb    H14    282 0.06123400   1.008000   ; qtot 0.623208
  283         c3     10    bbb     C8    283 -0.72423400  12.010000   ; qtot -0.101026
  284         h1     10    bbb    H15    284 0.25637600   1.008000   ; qtot 0.155350
  285         h1     10    bbb    H16    285 0.25637600   1.008000   ; qtot 0.411726
  286         c3     10    bbb     C9    286 -0.72423400  12.010000   ; qtot -0.312508
  287         h1     10    bbb    H17    287 0.25637600   1.008000   ; qtot -0.056132
  288         h1     10    bbb    H18    288 0.25637600   1.008000   ; qtot 0.200244
  289         os     10    bbb     O1    289 -0.20025300  16.000000   ; qtot -0.000009
; residue   11 bbb rtp bbb q -0.0
  290         n3     11    bbb     N1    290 -0.59685800  14.010000   ; qtot -0.596867
  291         c3     11    bbb     C1    291 0.10137000  12.010000   ; qtot -0.495497
  292         h1     11    bbb     H1    292 0.04411300   1.008000   ; qtot -0.451384
  293         h1     11    bbb     H2    293 0.04411300   1.008000   ; qtot -0.407271
  294         c3     11    bbb     C2    294 0.10137000  12.010000   ; qtot -0.305901
  295         h1     11    bbb     H3    295 0.04411300   1.008000   ; qtot -0.261788
  296         h1     11    bbb     H4    296 0.04411300   1.008000   ; qtot -0.217675
  297         c3     11    bbb     C3    297 -0.00195300  12.010000   ; qtot -0.219628
  298         h1     11    bbb     H5    298 0.05064400   1.008000   ; qtot -0.168984
  299         h1     11    bbb     H6    299 0.05064400   1.008000   ; qtot -0.118340
  300         c3     11    bbb     C4    300 -0.01612100  12.010000   ; qtot -0.134461
  301         hc     11    bbb     H7    301 0.04936100   1.008000   ; qtot -0.085100
  302         hc     11    bbb     H8    302 0.04936100   1.008000   ; qtot -0.035739
  303         c3     11    bbb     C5    303 0.11363000  12.010000   ; qtot 0.077891
  304         hc     11    bbb     H9    304 0.06265900   1.008000   ; qtot 0.140550
  305         hc     11    bbb    H10    305 0.06265900   1.008000   ; qtot 0.203209
  306         c3     11    bbb     C6    306 0.11363000  12.010000   ; qtot 0.316839
  307         hc     11    bbb    H11    307 0.06265900   1.008000   ; qtot 0.379498
  308         hc     11    bbb    H12    308 0.06265900   1.008000   ; qtot 0.442157
  309         c3     11    bbb     C7    309 0.05858200  12.010000   ; qtot 0.500739
  310         h1     11    bbb    H13    310 0.06123400   1.008000   ; qtot 0.561973
  311         h1     11    bbb    H14    311 0.06123400   1.008000   ; qtot 0.623207
  312         c3     11    bbb     C8    312 -0.72423400  12.010000   ; qtot -0.101027
  313         h1     11    bbb    H15    313 0.25637600   1.008000   ; qtot 0.155349
  314         h1     11    bbb    H16    314 0.25637600   1.008000   ; qtot 0.411725
  315         c3     11    bbb     C9    315 -0.72423400  12.010000   ; qtot -0.312509
  316         h1     11    bbb    H17    316 0.25637600   1.008000   ; qtot -0.056133
  317         h1     11    bbb    H18    317 0.25637600   1.008000   ; qtot 0.200243
  318         os     11    bbb     O1    318 -0.20025300  16.000000   ; qtot -0.000010
; residue   12 bbb rtp bbb q -0.0
  319         n3     12    bbb     N1    319 -0.59685800  14.010000   ; qtot -0.596868
  320         c3     12    bbb     C1    320 0.10137000  12.010000   ; qtot -0.495498
  321         h1     12    bbb     H1    321 0.04411300   1.008000   ; qtot -0.451385
  322         h1     12    bbb     H2    322 0.04411300   1.008000   ; qtot -0.407272
  323         c3     12    bbb     C2    323 0.10137000  12.010000   ; qtot -0.305902
  324         h1     12    bbb     H3    324 0.04411300   1.008000   ; qtot -0.261789
  325         h1     12    bbb     H4    325 0.04411300   1.008000   ; qtot -0.217676
  326         c3     12    bbb     C3    326 -0.00195300  12.010000   ; qtot -0.219629
  327         h1     12    bbb     H5    327 0.05064400   1.008000   ; qtot -0.168985
  328         h1     12    bbb     H6    328 0.05064400   1.008000   ; qtot -0.118341
  329         c3     12    bbb     C4    329 -0.01612100  12.010000   ; qtot -0.134462
  330         hc     12    bbb     H7    330 0.04936100   1.008000   ; qtot -0.085101
  331         hc     12    bbb     H8    331 0.04936100   1.008000   ; qtot -0.035740
  332         c3     12    bbb     C5    332 0.11363000  12.010000   ; qtot 0.077890
  333         hc     12    bbb     H9    333 0.06265900   1.008000   ; qtot 0.140549
  334         hc     12    bbb    H10    334 0.06265900   1.008000   ; qtot 0.203208
  335         c3     12    bbb     C6    335 0.11363000  12.010000   ; qtot 0.316838
  336         hc     12    bbb    H11    336 0.06265900   1.008000   ; qtot 0.379497
  337         hc     12    bbb    H12    337 0.06265900   1.008000   ; qtot 0.442156
  338         c3     12    bbb     C7    338 0.05858200  12.010000   ; qtot 0.500738
  339         h1     12    bbb    H13    339 0.06123400   1.008000   ; qtot 0.561972
  340         h1     12    bbb    H14    340 0.06123400   1.008000   ; qtot 0.623206
  341         c3     12    bbb     C8    341 -0.72423400  12.010000   ; qtot -0.101028
  342         h1     12    bbb    H15    342 0.25637600   1.008000   ; qtot 0.155348
  343         h1     12    bbb    H16    343 0.25637600   1.008000   ; qtot 0.411724
  344         c3     12    bbb     C9    344 -0.72423400  12.010000   ; qtot -0.312510
  345         h1     12    bbb    H17    345 0.25637600   1.008000   ; qtot -0.056134
  346         h1     12    bbb    H18    346 0.25637600   1.008000   ; qtot 0.200242
  347         os     12    bbb     O1    347 -0.20025300  16.000000   ; qtot -0.000011
; residue   13 bbb rtp bbb q -0.0
  348         n3     13    bbb     N1    348 -0.59685800  14.010000   ; qtot -0.596869
  349         c3     13    bbb     C1    349 0.10137000  12.010000   ; qtot -0.495499
  350         h1     13    bbb     H1    350 0.04411300   1.008000   ; qtot -0.451386
  351         h1     13    bbb     H2    351 0.04411300   1.008000   ; qtot -0.407273
  352         c3     13    bbb     C2    352 0.10137000  12.010000   ; qtot -0.305903
  353         h1     13    bbb     H3    353 0.04411300   1.008000   ; qtot -0.261790
  354         h1     13    bbb     H4    354 0.04411300   1.008000   ; qtot -0.217677
  355         c3     13    bbb     C3    355 -0.00195300  12.010000   ; qtot -0.219630
  356         h1     13    bbb     H5    356 0.05064400   1.008000   ; qtot -0.168986
  357         h1     13    bbb     H6    357 0.05064400   1.008000   ; qtot -0.118342
  358         c3     13    bbb     C4    358 -0.01612100  12.010000   ; qtot -0.134463
  359         hc     13    bbb     H7    359 0.04936100   1.008000   ; qtot -0.085102
  360         hc     13    bbb     H8    360 0.04936100   1.008000   ; qtot -0.035741
  361         c3     13    bbb     C5    361 0.11363000  12.010000   ; qtot 0.077889
  362         hc     13    bbb     H9    362 0.06265900   1.008000   ; qtot 0.140548
  363         hc     13    bbb    H10    363 0.06265900   1.008000   ; qtot 0.203207
  364         c3     13    bbb     C6    364 0.11363000  12.010000   ; qtot 0.316837
  365         hc     13    bbb    H11    365 0.06265900   1.008000   ; qtot 0.379496
  366         hc     13    bbb    H12    366 0.06265900   1.008000   ; qtot 0.442155
  367         c3     13    bbb     C7    367 0.05858200  12.010000   ; qtot 0.500737
  368         h1     13    bbb    H13    368 0.06123400   1.008000   ; qtot 0.561971
  369         h1     13    bbb    H14    369 0.06123400   1.008000   ; qtot 0.623205
  370         c3     13    bbb     C8    370 -0.72423400  12.010000   ; qtot -0.101029
  371         h1     13    bbb    H15    371 0.25637600   1.008000   ; qtot 0.155347
  372         h1     13    bbb    H16    372 0.25637600   1.008000   ; qtot 0.411723
  373         c3     13    bbb     C9    373 -0.72423400  12.010000   ; qtot -0.312511
  374         h1     13    bbb    H17    374 0.25637600   1.008000   ; qtot -0.056135
  375         h1     13    bbb    H18    375 0.25637600   1.008000   ; qtot 0.200241
  376         os     13    bbb     O1    376 -0.20025300  16.000000   ; qtot -0.000012
; residue   14 bbb rtp bbb q -0.0
  377         n3     14    bbb     N1    377 -0.59685800  14.010000   ; qtot -0.596870
  378         c3     14    bbb     C1    378 0.10137000  12.010000   ; qtot -0.495500
  379         h1     14    bbb     H1    379 0.04411300   1.008000   ; qtot -0.451387
  380         h1     14    bbb     H2    380 0.04411300   1.008000   ; qtot -0.407274
  381         c3     14    bbb     C2    381 0.10137000  12.010000   ; qtot -0.305904
  382         h1     14    bbb     H3    382 0.04411300   1.008000   ; qtot -0.261791
  383         h1     14    bbb     H4    383 0.04411300   1.008000   ; qtot -0.217678
  384         c3     14    bbb     C3    384 -0.00195300  12.010000   ; qtot -0.219631
  385         h1     14    bbb     H5    385 0.05064400   1.008000   ; qtot -0.168987
  386         h1     14    bbb     H6    386 0.05064400   1.008000   ; qtot -0.118343
  387         c3     14    bbb     C4    387 -0.01612100  12.010000   ; qtot -0.134464
  388         hc     14    bbb     H7    388 0.04936100   1.008000   ; qtot -0.085103
  389         hc     14    bbb     H8    389 0.04936100   1.008000   ; qtot -0.035742
  390         c3     14    bbb     C5    390 0.11363000  12.010000   ; qtot 0.077888
  391         hc     14    bbb     H9    391 0.06265900   1.008000   ; qtot 0.140547
  392         hc     14    bbb    H10    392 0.06265900   1.008000   ; qtot 0.203206
  393         c3     14    bbb     C6    393 0.11363000  12.010000   ; qtot 0.316836
  394         hc     14    bbb    H11    394 0.06265900   1.008000   ; qtot 0.379495
  395         hc     14    bbb    H12    395 0.06265900   1.008000   ; qtot 0.442154
  396         c3     14    bbb     C7    396 0.05858200  12.010000   ; qtot 0.500736
  397         h1     14    bbb    H13    397 0.06123400   1.008000   ; qtot 0.561970
  398         h1     14    bbb    H14    398 0.06123400   1.008000   ; qtot 0.623204
  399         c3     14    bbb     C8    399 -0.72423400  12.010000   ; qtot -0.101030
  400         h1     14    bbb    H15    400 0.25637600   1.008000   ; qtot 0.155346
  401         h1     14    bbb    H16    401 0.25637600   1.008000   ; qtot 0.411722
  402         c3     14    bbb     C9    402 -0.72423400  12.010000   ; qtot -0.312512
  403         h1     14    bbb    H17    403 0.25637600   1.008000   ; qtot -0.056136
  404         h1     14    bbb    H18    404 0.25637600   1.008000   ; qtot 0.200240
  405         os     14    bbb     O1    405 -0.20025300  16.000000   ; qtot -0.000013
; residue   15 bbb rtp bbb q -0.0
  406         n3     15    bbb     N1    406 -0.59685800  14.010000   ; qtot -0.596871
  407         c3     15    bbb     C1    407 0.10137000  12.010000   ; qtot -0.495501
  408         h1     15    bbb     H1    408 0.04411300   1.008000   ; qtot -0.451388
  409         h1     15    bbb     H2    409 0.04411300   1.008000   ; qtot -0.407275
  410         c3     15    bbb     C2    410 0.10137000  12.010000   ; qtot -0.305905
  411         h1     15    bbb     H3    411 0.04411300   1.008000   ; qtot -0.261792
  412         h1     15    bbb     H4    412 0.04411300   1.008000   ; qtot -0.217679
  413         c3     15    bbb     C3    413 -0.00195300  12.010000   ; qtot -0.219632
  414         h1     15    bbb     H5    414 0.05064400   1.008000   ; qtot -0.168988
  415         h1     15    bbb     H6    415 0.05064400   1.008000   ; qtot -0.118344
  416         c3     15    bbb     C4    416 -0.01612100  12.010000   ; qtot -0.134465
  417         hc     15    bbb     H7    417 0.04936100   1.008000   ; qtot -0.085104
  418         hc     15    bbb     H8    418 0.04936100   1.008000   ; qtot -0.035743
  419         c3     15    bbb     C5    419 0.11363000  12.010000   ; qtot 0.077887
  420         hc     15    bbb     H9    420 0.06265900   1.008000   ; qtot 0.140546
  421         hc     15    bbb    H10    421 0.06265900   1.008000   ; qtot 0.203205
  422         c3     15    bbb     C6    422 0.11363000  12.010000   ; qtot 0.316835
  423         hc     15    bbb    H11    423 0.06265900   1.008000   ; qtot 0.379494
  424         hc     15    bbb    H12    424 0.06265900   1.008000   ; qtot 0.442153
  425         c3     15    bbb     C7    425 0.05858200  12.010000   ; qtot 0.500735
  426         h1     15    bbb    H13    426 0.06123400   1.008000   ; qtot 0.561969
  427         h1     15    bbb    H14    427 0.06123400   1.008000   ; qtot 0.623203
  428         c3     15    bbb     C8    428 -0.72423400  12.010000   ; qtot -0.101031
  429         h1     15    bbb    H15    429 0.25637600   1.008000   ; qtot 0.155345
  430         h1     15    bbb    H16    430 0.25637600   1.008000   ; qtot 0.411721
  431         c3     15    bbb     C9    431 -0.72423400  12.010000   ; qtot -0.312513
  432         h1     15    bbb    H17    432 0.25637600   1.008000   ; qtot -0.056137
  433         h1     15    bbb    H18    433 0.25637600   1.008000   ; qtot 0.200239
  434         os     15    bbb     O1    434 -0.20025300  16.000000   ; qtot -0.000014
; residue   16 bbb rtp bbb q -0.0
  435         n3     16    bbb     N1    435 -0.59685800  14.010000   ; qtot -0.596872
  436         c3     16    bbb     C1    436 0.10137000  12.010000   ; qtot -0.495502
  437         h1     16    bbb     H1    437 0.04411300   1.008000   ; qtot -0.451389
  438         h1     16    bbb     H2    438 0.04411300   1.008000   ; qtot -0.407276
  439         c3     16    bbb     C2    439 0.10137000  12.010000   ; qtot -0.305906
  440         h1     16    bbb     H3    440 0.04411300   1.008000   ; qtot -0.261793
  441         h1     16    bbb     H4    441 0.04411300   1.008000   ; qtot -0.217680
  442         c3     16    bbb     C3    442 -0.00195300  12.010000   ; qtot -0.219633
  443         h1     16    bbb     H5    443 0.05064400   1.008000   ; qtot -0.168989
  444         h1     16    bbb     H6    444 0.05064400   1.008000   ; qtot -0.118345
  445         c3     16    bbb     C4    445 -0.01612100  12.010000   ; qtot -0.134466
  446         hc     16    bbb     H7    446 0.04936100   1.008000   ; qtot -0.085105
  447         hc     16    bbb     H8    447 0.04936100   1.008000   ; qtot -0.035744
  448         c3     16    bbb     C5    448 0.11363000  12.010000   ; qtot 0.077886
  449         hc     16    bbb     H9    449 0.06265900   1.008000   ; qtot 0.140545
  450         hc     16    bbb    H10    450 0.06265900   1.008000   ; qtot 0.203204
  451         c3     16    bbb     C6    451 0.11363000  12.010000   ; qtot 0.316834
  452         hc     16    bbb    H11    452 0.06265900   1.008000   ; qtot 0.379493
  453         hc     16    bbb    H12    453 0.06265900   1.008000   ; qtot 0.442152
  454         c3     16    bbb     C7    454 0.05858200  12.010000   ; qtot 0.500734
  455         h1     16    bbb    H13    455 0.06123400   1.008000   ; qtot 0.561968
  456         h1     16    bbb    H14    456 0.06123400   1.008000   ; qtot 0.623202
  457         c3     16    bbb     C8    457 -0.72423400  12.010000   ; qtot -0.101032
  458         h1     16    bbb    H15    458 0.25637600   1.008000   ; qtot 0.155344
  459         h1     16    bbb    H16    459 0.25637600   1.008000   ; qtot 0.411720
  460         c3     16    bbb     C9    460 -0.72423400  12.010000   ; qtot -0.312514
  461         h1     16    bbb    H17    461 0.25637600   1.008000   ; qtot -0.056138
  462         h1     16    bbb    H18    462 0.25637600   1.008000   ; qtot 0.200238
  463         os     16    bbb     O1    463 -0.20025300  16.000000   ; qtot -0.000015
; residue   17 bbb rtp bbb q -0.0
  464         n3     17    bbb     N1    464 -0.59685800  14.010000   ; qtot -0.596873
  465         c3     17    bbb     C1    465 0.10137000  12.010000   ; qtot -0.495503
  466         h1     17    bbb     H1    466 0.04411300   1.008000   ; qtot -0.451390
  467         h1     17    bbb     H2    467 0.04411300   1.008000   ; qtot -0.407277
  468         c3     17    bbb     C2    468 0.10137000  12.010000   ; qtot -0.305907
  469         h1     17    bbb     H3    469 0.04411300   1.008000   ; qtot -0.261794
  470         h1     17    bbb     H4    470 0.04411300   1.008000   ; qtot -0.217681
  471         c3     17    bbb     C3    471 -0.00195300  12.010000   ; qtot -0.219634
  472         h1     17    bbb     H5    472 0.05064400   1.008000   ; qtot -0.168990
  473         h1     17    bbb     H6    473 0.05064400   1.008000   ; qtot -0.118346
  474         c3     17    bbb     C4    474 -0.01612100  12.010000   ; qtot -0.134467
  475         hc     17    bbb     H7    475 0.04936100   1.008000   ; qtot -0.085106
  476         hc     17    bbb     H8    476 0.04936100   1.008000   ; qtot -0.035745
  477         c3     17    bbb     C5    477 0.11363000  12.010000   ; qtot 0.077885
  478         hc     17    bbb     H9    478 0.06265900   1.008000   ; qtot 0.140544
  479         hc     17    bbb    H10    479 0.06265900   1.008000   ; qtot 0.203203
  480         c3     17    bbb     C6    480 0.11363000  12.010000   ; qtot 0.316833
  481         hc     17    bbb    H11    481 0.06265900   1.008000   ; qtot 0.379492
  482         hc     17    bbb    H12    482 0.06265900   1.008000   ; qtot 0.442151
  483         c3     17    bbb     C7    483 0.05858200  12.010000   ; qtot 0.500733
  484         h1     17    bbb    H13    484 0.06123400   1.008000   ; qtot 0.561967
  485         h1     17    bbb    H14    485 0.06123400   1.008000   ; qtot 0.623201
  486         c3     17    bbb     C8    486 -0.72423400  12.010000   ; qtot -0.101033
  487         h1     17    bbb    H15    487 0.25637600   1.008000   ; qtot 0.155343
  488         h1     17    bbb    H16    488 0.25637600   1.008000   ; qtot 0.411719
  489         c3     17    bbb     C9    489 -0.72423400  12.010000   ; qtot -0.312515
  490         h1     17    bbb    H17    490 0.25637600   1.008000   ; qtot -0.056139
  491         h1     17    bbb    H18    491 0.25637600   1.008000   ; qtot 0.200237
  492         os     17    bbb     O1    492 -0.20025300  16.000000   ; qtot -0.000016
; residue   18 bbb rtp bbb q -0.0
  493         n3     18    bbb     N1    493 -0.59685800  14.010000   ; qtot -0.596874
  494         c3     18    bbb     C1    494 0.10137000  12.010000   ; qtot -0.495504
  495         h1     18    bbb     H1    495 0.04411300   1.008000   ; qtot -0.451391
  496         h1     18    bbb     H2    496 0.04411300   1.008000   ; qtot -0.407278
  497         c3     18    bbb     C2    497 0.10137000  12.010000   ; qtot -0.305908
  498         h1     18    bbb     H3    498 0.04411300   1.008000   ; qtot -0.261795
  499         h1     18    bbb     H4    499 0.04411300   1.008000   ; qtot -0.217682
  500         c3     18    bbb     C3    500 -0.00195300  12.010000   ; qtot -0.219635
  501         h1     18    bbb     H5    501 0.05064400   1.008000   ; qtot -0.168991
  502         h1     18    bbb     H6    502 0.05064400   1.008000   ; qtot -0.118347
  503         c3     18    bbb     C4    503 -0.01612100  12.010000   ; qtot -0.134468
  504         hc     18    bbb     H7    504 0.04936100   1.008000   ; qtot -0.085107
  505         hc     18    bbb     H8    505 0.04936100   1.008000   ; qtot -0.035746
  506         c3     18    bbb     C5    506 0.11363000  12.010000   ; qtot 0.077884
  507         hc     18    bbb     H9    507 0.06265900   1.008000   ; qtot 0.140543
  508         hc     18    bbb    H10    508 0.06265900   1.008000   ; qtot 0.203202
  509         c3     18    bbb     C6    509 0.11363000  12.010000   ; qtot 0.316832
  510         hc     18    bbb    H11    510 0.06265900   1.008000   ; qtot 0.379491
  511         hc     18    bbb    H12    511 0.06265900   1.008000   ; qtot 0.442150
  512         c3     18    bbb     C7    512 0.05858200  12.010000   ; qtot 0.500732
  513         h1     18    bbb    H13    513 0.06123400   1.008000   ; qtot 0.561966
  514         h1     18    bbb    H14    514 0.06123400   1.008000   ; qtot 0.623200
  515         c3     18    bbb     C8    515 -0.72423400  12.010000   ; qtot -0.101034
  516         h1     18    bbb    H15    516 0.25637600   1.008000   ; qtot 0.155342
  517         h1     18    bbb    H16    517 0.25637600   1.008000   ; qtot 0.411718
  518         c3     18    bbb     C9    518 -0.72423400  12.010000   ; qtot -0.312516
  519         h1     18    bbb    H17    519 0.25637600   1.008000   ; qtot -0.056140
  520         h1     18    bbb    H18    520 0.25637600   1.008000   ; qtot 0.200236
  521         os     18    bbb     O1    521 -0.20025300  16.000000   ; qtot -0.000017
; residue   19 bbb rtp bbb q -0.0
  522         n3     19    bbb     N1    522 -0.59685800  14.010000   ; qtot -0.596875
  523         c3     19    bbb     C1    523 0.10137000  12.010000   ; qtot -0.495505
  524         h1     19    bbb     H1    524 0.04411300   1.008000   ; qtot -0.451392
  525         h1     19    bbb     H2    525 0.04411300   1.008000   ; qtot -0.407279
  526         c3     19    bbb     C2    526 0.10137000  12.010000   ; qtot -0.305909
  527         h1     19    bbb     H3    527 0.04411300   1.008000   ; qtot -0.261796
  528         h1     19    bbb     H4    528 0.04411300   1.008000   ; qtot -0.217683
  529         c3     19    bbb     C3    529 -0.00195300  12.010000   ; qtot -0.219636
  530         h1     19    bbb     H5    530 0.05064400   1.008000   ; qtot -0.168992
  531         h1     19    bbb     H6    531 0.05064400   1.008000   ; qtot -0.118348
  532         c3     19    bbb     C4    532 -0.01612100  12.010000   ; qtot -0.134469
  533         hc     19    bbb     H7    533 0.04936100   1.008000   ; qtot -0.085108
  534         hc     19    bbb     H8    534 0.04936100   1.008000   ; qtot -0.035747
  535         c3     19    bbb     C5    535 0.11363000  12.010000   ; qtot 0.077883
  536         hc     19    bbb     H9    536 0.06265900   1.008000   ; qtot 0.140542
  537         hc     19    bbb    H10    537 0.06265900   1.008000   ; qtot 0.203201
  538         c3     19    bbb     C6    538 0.11363000  12.010000   ; qtot 0.316831
  539         hc     19    bbb    H11    539 0.06265900   1.008000   ; qtot 0.379490
  540         hc     19    bbb    H12    540 0.06265900   1.008000   ; qtot 0.442149
  541         c3     19    bbb     C7    541 0.05858200  12.010000   ; qtot 0.500731
  542         h1     19    bbb    H13    542 0.06123400   1.008000   ; qtot 0.561965
  543         h1     19    bbb    H14    543 0.06123400   1.008000   ; qtot 0.623199
  544         c3     19    bbb     C8    544 -0.72423400  12.010000   ; qtot -0.101035
  545         h1     19    bbb    H15    545 0.25637600   1.008000   ; qtot 0.155341
  546         h1     19    bbb    H16    546 0.25637600   1.008000   ; qtot 0.411717
  547         c3     19    bbb     C9    547 -0.72423400  12.010000   ; qtot -0.312517
  548         h1     19    bbb    H17    548 0.25637600   1.008000   ; qtot -0.056141
  549         h1     19    bbb    H18    549 0.25637600   1.008000   ; qtot 0.200235
  550         os     19    bbb     O1    550 -0.20025300  16.000000   ; qtot -0.000018
; residue   20 bbb rtp bbb q -0.0
  551         n3     20    bbb     N1    551 -0.59685800  14.010000   ; qtot -0.596876
  552         c3     20    bbb     C1    552 0.10137000  12.010000   ; qtot -0.495506
  553         h1     20    bbb     H1    553 0.04411300   1.008000   ; qtot -0.451393
  554         h1     20    bbb     H2    554 0.04411300   1.008000   ; qtot -0.407280
  555         c3     20    bbb     C2    555 0.10137000  12.010000   ; qtot -0.305910
  556         h1     20    bbb     H3    556 0.04411300   1.008000   ; qtot -0.261797
  557         h1     20    bbb     H4    557 0.04411300   1.008000   ; qtot -0.217684
  558         c3     20    bbb     C3    558 -0.00195300  12.010000   ; qtot -0.219637
  559         h1     20    bbb     H5    559 0.05064400   1.008000   ; qtot -0.168993
  560         h1     20    bbb     H6    560 0.05064400   1.008000   ; qtot -0.118349
  561         c3     20    bbb     C4    561 -0.01612100  12.010000   ; qtot -0.134470
  562         hc     20    bbb     H7    562 0.04936100   1.008000   ; qtot -0.085109
  563         hc     20    bbb     H8    563 0.04936100   1.008000   ; qtot -0.035748
  564         c3     20    bbb     C5    564 0.11363000  12.010000   ; qtot 0.077882
  565         hc     20    bbb     H9    565 0.06265900   1.008000   ; qtot 0.140541
  566         hc     20    bbb    H10    566 0.06265900   1.008000   ; qtot 0.203200
  567         c3     20    bbb     C6    567 0.11363000  12.010000   ; qtot 0.316830
  568         hc     20    bbb    H11    568 0.06265900   1.008000   ; qtot 0.379489
  569         hc     20    bbb    H12    569 0.06265900   1.008000   ; qtot 0.442148
  570         c3     20    bbb     C7    570 0.05858200  12.010000   ; qtot 0.500730
  571         h1     20    bbb    H13    571 0.06123400   1.008000   ; qtot 0.561964
  572         h1     20    bbb    H14    572 0.06123400   1.008000   ; qtot 0.623198
  573         c3     20    bbb     C8    573 -0.72423400  12.010000   ; qtot -0.101036
  574         h1     20    bbb    H15    574 0.25637600   1.008000   ; qtot 0.155340
  575         h1     20    bbb    H16    575 0.25637600   1.008000   ; qtot 0.411716
  576         c3     20    bbb     C9    576 -0.72423400  12.010000   ; qtot -0.312518
  577         h1     20    bbb    H17    577 0.25637600   1.008000   ; qtot -0.056142
  578         h1     20    bbb    H18    578 0.25637600   1.008000   ; qtot 0.200234
  579         os     20    bbb     O1    579 -0.20025300  16.000000   ; qtot -0.000019
; residue   21 bbb rtp bbb q -0.0
  580         n3     21    bbb     N1    580 -0.59685800  14.010000   ; qtot -0.596877
  581         c3     21    bbb     C1    581 0.10137000  12.010000   ; qtot -0.495507
  582         h1     21    bbb     H1    582 0.04411300   1.008000   ; qtot -0.451394
  583         h1     21    bbb     H2    583 0.04411300   1.008000   ; qtot -0.407281
  584         c3     21    bbb     C2    584 0.10137000  12.010000   ; qtot -0.305911
  585         h1     21    bbb     H3    585 0.04411300   1.008000   ; qtot -0.261798
  586         h1     21    bbb     H4    586 0.04411300   1.008000   ; qtot -0.217685
  587         c3     21    bbb     C3    587 -0.00195300  12.010000   ; qtot -0.219638
  588         h1     21    bbb     H5    588 0.05064400   1.008000   ; qtot -0.168994
  589         h1     21    bbb     H6    589 0.05064400   1.008000   ; qtot -0.118350
  590         c3     21    bbb     C4    590 -0.01612100  12.010000   ; qtot -0.134471
  591         hc     21    bbb     H7    591 0.04936100   1.008000   ; qtot -0.085110
  592         hc     21    bbb     H8    592 0.04936100   1.008000   ; qtot -0.035749
  593         c3     21    bbb     C5    593 0.11363000  12.010000   ; qtot 0.077881
  594         hc     21    bbb     H9    594 0.06265900   1.008000   ; qtot 0.140540
  595         hc     21    bbb    H10    595 0.06265900   1.008000   ; qtot 0.203199
  596         c3     21    bbb     C6    596 0.11363000  12.010000   ; qtot 0.316829
  597         hc     21    bbb    H11    597 0.06265900   1.008000   ; qtot 0.379488
  598         hc     21    bbb    H12    598 0.06265900   1.008000   ; qtot 0.442147
  599         c3     21    bbb     C7    599 0.05858200  12.010000   ; qtot 0.500729
  600         h1     21    bbb    H13    600 0.06123400   1.008000   ; qtot 0.561963
  601         h1     21    bbb    H14    601 0.06123400   1.008000   ; qtot 0.623197
  602         c3     21    bbb     C8    602 -0.72423400  12.010000   ; qtot -0.101037
  603         h1     21    bbb    H15    603 0.25637600   1.008000   ; qtot 0.155339
  604         h1     21    bbb    H16    604 0.25637600   1.008000   ; qtot 0.411715
  605         c3     21    bbb     C9    605 -0.72423400  12.010000   ; qtot -0.312519
  606         h1     21    bbb    H17    606 0.25637600   1.008000   ; qtot -0.056143
  607         h1     21    bbb    H18    607 0.25637600   1.008000   ; qtot 0.200233
  608         os     21    bbb     O1    608 -0.20025300  16.000000   ; qtot -0.000020
; residue   22 bbb rtp bbb q -0.0
  609         n3     22    bbb     N1    609 -0.59685800  14.010000   ; qtot -0.596878
  610         c3     22    bbb     C1    610 0.10137000  12.010000   ; qtot -0.495508
  611         h1     22    bbb     H1    611 0.04411300   1.008000   ; qtot -0.451395
  612         h1     22    bbb     H2    612 0.04411300   1.008000   ; qtot -0.407282
  613         c3     22    bbb     C2    613 0.10137000  12.010000   ; qtot -0.305912
  614         h1     22    bbb     H3    614 0.04411300   1.008000   ; qtot -0.261799
  615         h1     22    bbb     H4    615 0.04411300   1.008000   ; qtot -0.217686
  616         c3     22    bbb     C3    616 -0.00195300  12.010000   ; qtot -0.219639
  617         h1     22    bbb     H5    617 0.05064400   1.008000   ; qtot -0.168995
  618         h1     22    bbb     H6    618 0.05064400   1.008000   ; qtot -0.118351
  619         c3     22    bbb     C4    619 -0.01612100  12.010000   ; qtot -0.134472
  620         hc     22    bbb     H7    620 0.04936100   1.008000   ; qtot -0.085111
  621         hc     22    bbb     H8    621 0.04936100   1.008000   ; qtot -0.035750
  622         c3     22    bbb     C5    622 0.11363000  12.010000   ; qtot 0.077880
  623         hc     22    bbb     H9    623 0.06265900   1.008000   ; qtot 0.140539
  624         hc     22    bbb    H10    624 0.06265900   1.008000   ; qtot 0.203198
  625         c3     22    bbb     C6    625 0.11363000  12.010000   ; qtot 0.316828
  626         hc     22    bbb    H11    626 0.06265900   1.008000   ; qtot 0.379487
  627         hc     22    bbb    H12    627 0.06265900   1.008000   ; qtot 0.442146
  628         c3     22    bbb     C7    628 0.05858200  12.010000   ; qtot 0.500728
  629         h1     22    bbb    H13    629 0.06123400   1.008000   ; qtot 0.561962
  630         h1     22    bbb    H14    630 0.06123400   1.008000   ; qtot 0.623196
  631         c3     22    bbb     C8    631 -0.72423400  12.010000   ; qtot -0.101038
  632         h1     22    bbb    H15    632 0.25637600   1.008000   ; qtot 0.155338
  633         h1     22    bbb    H16    633 0.25637600   1.008000   ; qtot 0.411714
  634         c3     22    bbb     C9    634 -0.72423400  12.010000   ; qtot -0.312520
  635         h1     22    bbb    H17    635 0.25637600   1.008000   ; qtot -0.056144
  636         h1     22    bbb    H18    636 0.25637600   1.008000   ; qtot 0.200232
  637         os     22    bbb     O1    637 -0.20025300  16.000000   ; qtot -0.000021
; residue   23 bbb rtp bbb q -0.0
  638         n3     23    bbb     N1    638 -0.59685800  14.010000   ; qtot -0.596879
  639         c3     23    bbb     C1    639 0.10137000  12.010000   ; qtot -0.495509
  640         h1     23    bbb     H1    640 0.04411300   1.008000   ; qtot -0.451396
  641         h1     23    bbb     H2    641 0.04411300   1.008000   ; qtot -0.407283
  642         c3     23    bbb     C2    642 0.10137000  12.010000   ; qtot -0.305913
  643         h1     23    bbb     H3    643 0.04411300   1.008000   ; qtot -0.261800
  644         h1     23    bbb     H4    644 0.04411300   1.008000   ; qtot -0.217687
  645         c3     23    bbb     C3    645 -0.00195300  12.010000   ; qtot -0.219640
  646         h1     23    bbb     H5    646 0.05064400   1.008000   ; qtot -0.168996
  647         h1     23    bbb     H6    647 0.05064400   1.008000   ; qtot -0.118352
  648         c3     23    bbb     C4    648 -0.01612100  12.010000   ; qtot -0.134473
  649         hc     23    bbb     H7    649 0.04936100   1.008000   ; qtot -0.085112
  650         hc     23    bbb     H8    650 0.04936100   1.008000   ; qtot -0.035751
  651         c3     23    bbb     C5    651 0.11363000  12.010000   ; qtot 0.077879
  652         hc     23    bbb     H9    652 0.06265900   1.008000   ; qtot 0.140538
  653         hc     23    bbb    H10    653 0.06265900   1.008000   ; qtot 0.203197
  654         c3     23    bbb     C6    654 0.11363000  12.010000   ; qtot 0.316827
  655         hc     23    bbb    H11    655 0.06265900   1.008000   ; qtot 0.379486
  656         hc     23    bbb    H12    656 0.06265900   1.008000   ; qtot 0.442145
  657         c3     23    bbb     C7    657 0.05858200  12.010000   ; qtot 0.500727
  658         h1     23    bbb    H13    658 0.06123400   1.008000   ; qtot 0.561961
  659         h1     23    bbb    H14    659 0.06123400   1.008000   ; qtot 0.623195
  660         c3     23    bbb     C8    660 -0.72423400  12.010000   ; qtot -0.101039
  661         h1     23    bbb    H15    661 0.25637600   1.008000   ; qtot 0.155337
  662         h1     23    bbb    H16    662 0.25637600   1.008000   ; qtot 0.411713
  663         c3     23    bbb     C9    663 -0.72423400  12.010000   ; qtot -0.312521
  664         h1     23    bbb    H17    664 0.25637600   1.008000   ; qtot -0.056145
  665         h1     23    bbb    H18    665 0.25637600   1.008000   ; qtot 0.200231
  666         os     23    bbb     O1    666 -0.20025300  16.000000   ; qtot -0.000022
; residue   24 bbb rtp bbb q -0.0
  667         n3     24    bbb     N1    667 -0.59685800  14.010000   ; qtot -0.596880
  668         c3     24    bbb     C1    668 0.10137000  12.010000   ; qtot -0.495510
  669         h1     24    bbb     H1    669 0.04411300   1.008000   ; qtot -0.451397
  670         h1     24    bbb     H2    670 0.04411300   1.008000   ; qtot -0.407284
  671         c3     24    bbb     C2    671 0.10137000  12.010000   ; qtot -0.305914
  672         h1     24    bbb     H3    672 0.04411300   1.008000   ; qtot -0.261801
  673         h1     24    bbb     H4    673 0.04411300   1.008000   ; qtot -0.217688
  674         c3     24    bbb     C3    674 -0.00195300  12.010000   ; qtot -0.219641
  675         h1     24    bbb     H5    675 0.05064400   1.008000   ; qtot -0.168997
  676         h1     24    bbb     H6    676 0.05064400   1.008000   ; qtot -0.118353
  677         c3     24    bbb     C4    677 -0.01612100  12.010000   ; qtot -0.134474
  678         hc     24    bbb     H7    678 0.04936100   1.008000   ; qtot -0.085113
  679         hc     24    bbb     H8    679 0.04936100   1.008000   ; qtot -0.035752
  680         c3     24    bbb     C5    680 0.11363000  12.010000   ; qtot 0.077878
  681         hc     24    bbb     H9    681 0.06265900   1.008000   ; qtot 0.140537
  682         hc     24    bbb    H10    682 0.06265900   1.008000   ; qtot 0.203196
  683         c3     24    bbb     C6    683 0.11363000  12.010000   ; qtot 0.316826
  684         hc     24    bbb    H11    684 0.06265900   1.008000   ; qtot 0.379485
  685         hc     24    bbb    H12    685 0.06265900   1.008000   ; qtot 0.442144
  686         c3     24    bbb     C7    686 0.05858200  12.010000   ; qtot 0.500726
  687         h1     24    bbb    H13    687 0.06123400   1.008000   ; qtot 0.561960
  688         h1     24    bbb    H14    688 0.06123400   1.008000   ; qtot 0.623194
  689         c3     24    bbb     C8    689 -0.72423400  12.010000   ; qtot -0.101040
  690         h1     24    bbb    H15    690 0.25637600   1.008000   ; qtot 0.155336
  691         h1     24    bbb    H16    691 0.25637600   1.008000   ; qtot 0.411712
  692         c3     24    bbb     C9    692 -0.72423400  12.010000   ; qtot -0.312522
  693         h1     24    bbb    H17    693 0.25637600   1.008000   ; qtot -0.056146
  694         h1     24    bbb    H18    694 0.25637600   1.008000   ; qtot 0.200230
  695         os     24    bbb     O1    695 -0.20025300  16.000000   ; qtot -0.000023
; residue   25 bbb rtp bbb q -0.0
  696         n3     25    bbb     N1    696 -0.59685800  14.010000   ; qtot -0.596881
  697         c3     25    bbb     C1    697 0.10137000  12.010000   ; qtot -0.495511
  698         h1     25    bbb     H1    698 0.04411300   1.008000   ; qtot -0.451398
  699         h1     25    bbb     H2    699 0.04411300   1.008000   ; qtot -0.407285
  700         c3     25    bbb     C2    700 0.10137000  12.010000   ; qtot -0.305915
  701         h1     25    bbb     H3    701 0.04411300   1.008000   ; qtot -0.261802
  702         h1     25    bbb     H4    702 0.04411300   1.008000   ; qtot -0.217689
  703         c3     25    bbb     C3    703 -0.00195300  12.010000   ; qtot -0.219642
  704         h1     25    bbb     H5    704 0.05064400   1.008000   ; qtot -0.168998
  705         h1     25    bbb     H6    705 0.05064400   1.008000   ; qtot -0.118354
  706         c3     25    bbb     C4    706 -0.01612100  12.010000   ; qtot -0.134475
  707         hc     25    bbb     H7    707 0.04936100   1.008000   ; qtot -0.085114
  708         hc     25    bbb     H8    708 0.04936100   1.008000   ; qtot -0.035753
  709         c3     25    bbb     C5    709 0.11363000  12.010000   ; qtot 0.077877
  710         hc     25    bbb     H9    710 0.06265900   1.008000   ; qtot 0.140536
  711         hc     25    bbb    H10    711 0.06265900   1.008000   ; qtot 0.203195
  712         c3     25    bbb     C6    712 0.11363000  12.010000   ; qtot 0.316825
  713         hc     25    bbb    H11    713 0.06265900   1.008000   ; qtot 0.379484
  714         hc     25    bbb    H12    714 0.06265900   1.008000   ; qtot 0.442143
  715         c3     25    bbb     C7    715 0.05858200  12.010000   ; qtot 0.500725
  716         h1     25    bbb    H13    716 0.06123400   1.008000   ; qtot 0.561959
  717         h1     25    bbb    H14    717 0.06123400   1.008000   ; qtot 0.623193
  718         c3     25    bbb     C8    718 -0.72423400  12.010000   ; qtot -0.101041
  719         h1     25    bbb    H15    719 0.25637600   1.008000   ; qtot 0.155335
  720         h1     25    bbb    H16    720 0.25637600   1.008000   ; qtot 0.411711
  721         c3     25    bbb     C9    721 -0.72423400  12.010000   ; qtot -0.312523
  722         h1     25    bbb    H17    722 0.25637600   1.008000   ; qtot -0.056147
  723         h1     25    bbb    H18    723 0.25637600   1.008000   ; qtot 0.200229
  724         os     25    bbb     O1    724 -0.20025300  16.000000   ; qtot -0.000024
; residue   26 bbb rtp bbb q -0.0
  725         n3     26    bbb     N1    725 -0.59685800  14.010000   ; qtot -0.596882
  726         c3     26    bbb     C1    726 0.10137000  12.010000   ; qtot -0.495512
  727         h1     26    bbb     H1    727 0.04411300   1.008000   ; qtot -0.451399
  728         h1     26    bbb     H2    728 0.04411300   1.008000   ; qtot -0.407286
  729         c3     26    bbb     C2    729 0.10137000  12.010000   ; qtot -0.305916
  730         h1     26    bbb     H3    730 0.04411300   1.008000   ; qtot -0.261803
  731         h1     26    bbb     H4    731 0.04411300   1.008000   ; qtot -0.217690
  732         c3     26    bbb     C3    732 -0.00195300  12.010000   ; qtot -0.219643
  733         h1     26    bbb     H5    733 0.05064400   1.008000   ; qtot -0.168999
  734         h1     26    bbb     H6    734 0.05064400   1.008000   ; qtot -0.118355
  735         c3     26    bbb     C4    735 -0.01612100  12.010000   ; qtot -0.134476
  736         hc     26    bbb     H7    736 0.04936100   1.008000   ; qtot -0.085115
  737         hc     26    bbb     H8    737 0.04936100   1.008000   ; qtot -0.035754
  738         c3     26    bbb     C5    738 0.11363000  12.010000   ; qtot 0.077876
  739         hc     26    bbb     H9    739 0.06265900   1.008000   ; qtot 0.140535
  740         hc     26    bbb    H10    740 0.06265900   1.008000   ; qtot 0.203194
  741         c3     26    bbb     C6    741 0.11363000  12.010000   ; qtot 0.316824
  742         hc     26    bbb    H11    742 0.06265900   1.008000   ; qtot 0.379483
  743         hc     26    bbb    H12    743 0.06265900   1.008000   ; qtot 0.442142
  744         c3     26    bbb     C7    744 0.05858200  12.010000   ; qtot 0.500724
  745         h1     26    bbb    H13    745 0.06123400   1.008000   ; qtot 0.561958
  746         h1     26    bbb    H14    746 0.06123400   1.008000   ; qtot 0.623192
  747         c3     26    bbb     C8    747 -0.72423400  12.010000   ; qtot -0.101042
  748         h1     26    bbb    H15    748 0.25637600   1.008000   ; qtot 0.155334
  749         h1     26    bbb    H16    749 0.25637600   1.008000   ; qtot 0.411710
  750         c3     26    bbb     C9    750 -0.72423400  12.010000   ; qtot -0.312524
  751         h1     26    bbb    H17    751 0.25637600   1.008000   ; qtot -0.056148
  752         h1     26    bbb    H18    752 0.25637600   1.008000   ; qtot 0.200228
  753         os     26    bbb     O1    753 -0.20025300  16.000000   ; qtot -0.000025
; residue   27 bbb rtp bbb q -0.0
  754         n3     27    bbb     N1    754 -0.59685800  14.010000   ; qtot -0.596883
  755         c3     27    bbb     C1    755 0.10137000  12.010000   ; qtot -0.495513
  756         h1     27    bbb     H1    756 0.04411300   1.008000   ; qtot -0.451400
  757         h1     27    bbb     H2    757 0.04411300   1.008000   ; qtot -0.407287
  758         c3     27    bbb     C2    758 0.10137000  12.010000   ; qtot -0.305917
  759         h1     27    bbb     H3    759 0.04411300   1.008000   ; qtot -0.261804
  760         h1     27    bbb     H4    760 0.04411300   1.008000   ; qtot -0.217691
  761         c3     27    bbb     C3    761 -0.00195300  12.010000   ; qtot -0.219644
  762         h1     27    bbb     H5    762 0.05064400   1.008000   ; qtot -0.169000
  763         h1     27    bbb     H6    763 0.05064400   1.008000   ; qtot -0.118356
  764         c3     27    bbb     C4    764 -0.01612100  12.010000   ; qtot -0.134477
  765         hc     27    bbb     H7    765 0.04936100   1.008000   ; qtot -0.085116
  766         hc     27    bbb     H8    766 0.04936100   1.008000   ; qtot -0.035755
  767         c3     27    bbb     C5    767 0.11363000  12.010000   ; qtot 0.077875
  768         hc     27    bbb     H9    768 0.06265900   1.008000   ; qtot 0.140534
  769         hc     27    bbb    H10    769 0.06265900   1.008000   ; qtot 0.203193
  770         c3     27    bbb     C6    770 0.11363000  12.010000   ; qtot 0.316823
  771         hc     27    bbb    H11    771 0.06265900   1.008000   ; qtot 0.379482
  772         hc     27    bbb    H12    772 0.06265900   1.008000   ; qtot 0.442141
  773         c3     27    bbb     C7    773 0.05858200  12.010000   ; qtot 0.500723
  774         h1     27    bbb    H13    774 0.06123400   1.008000   ; qtot 0.561957
  775         h1     27    bbb    H14    775 0.06123400   1.008000   ; qtot 0.623191
  776         c3     27    bbb     C8    776 -0.72423400  12.010000   ; qtot -0.101043
  777         h1     27    bbb    H15    777 0.25637600   1.008000   ; qtot 0.155333
  778         h1     27    bbb    H16    778 0.25637600   1.008000   ; qtot 0.411709
  779         c3     27    bbb     C9    779 -0.72423400  12.010000   ; qtot -0.312525
  780         h1     27    bbb    H17    780 0.25637600   1.008000   ; qtot -0.056149
  781         h1     27    bbb    H18    781 0.25637600   1.008000   ; qtot 0.200227
  782         os     27    bbb     O1    782 -0.20025300  16.000000   ; qtot -0.000026
; residue   28 bbb rtp bbb q -0.0
  783         n3     28    bbb     N1    783 -0.59685800  14.010000   ; qtot -0.596884
  784         c3     28    bbb     C1    784 0.10137000  12.010000   ; qtot -0.495514
  785         h1     28    bbb     H1    785 0.04411300   1.008000   ; qtot -0.451401
  786         h1     28    bbb     H2    786 0.04411300   1.008000   ; qtot -0.407288
  787         c3     28    bbb     C2    787 0.10137000  12.010000   ; qtot -0.305918
  788         h1     28    bbb     H3    788 0.04411300   1.008000   ; qtot -0.261805
  789         h1     28    bbb     H4    789 0.04411300   1.008000   ; qtot -0.217692
  790         c3     28    bbb     C3    790 -0.00195300  12.010000   ; qtot -0.219645
  791         h1     28    bbb     H5    791 0.05064400   1.008000   ; qtot -0.169001
  792         h1     28    bbb     H6    792 0.05064400   1.008000   ; qtot -0.118357
  793         c3     28    bbb     C4    793 -0.01612100  12.010000   ; qtot -0.134478
  794         hc     28    bbb     H7    794 0.04936100   1.008000   ; qtot -0.085117
  795         hc     28    bbb     H8    795 0.04936100   1.008000   ; qtot -0.035756
  796         c3     28    bbb     C5    796 0.11363000  12.010000   ; qtot 0.077874
  797         hc     28    bbb     H9    797 0.06265900   1.008000   ; qtot 0.140533
  798         hc     28    bbb    H10    798 0.06265900   1.008000   ; qtot 0.203192
  799         c3     28    bbb     C6    799 0.11363000  12.010000   ; qtot 0.316822
  800         hc     28    bbb    H11    800 0.06265900   1.008000   ; qtot 0.379481
  801         hc     28    bbb    H12    801 0.06265900   1.008000   ; qtot 0.442140
  802         c3     28    bbb     C7    802 0.05858200  12.010000   ; qtot 0.500722
  803         h1     28    bbb    H13    803 0.06123400   1.008000   ; qtot 0.561956
  804         h1     28    bbb    H14    804 0.06123400   1.008000   ; qtot 0.623190
  805         c3     28    bbb     C8    805 -0.72423400  12.010000   ; qtot -0.101044
  806         h1     28    bbb    H15    806 0.25637600   1.008000   ; qtot 0.155332
  807         h1     28    bbb    H16    807 0.25637600   1.008000   ; qtot 0.411708
  808         c3     28    bbb     C9    808 -0.72423400  12.010000   ; qtot -0.312526
  809         h1     28    bbb    H17    809 0.25637600   1.008000   ; qtot -0.056150
  810         h1     28    bbb    H18    810 0.25637600   1.008000   ; qtot 0.200226
  811         os     28    bbb     O1    811 -0.20025300  16.000000   ; qtot -0.000027
; residue   29 bbb rtp bbb q -0.0
  812         n3     29    bbb     N1    812 -0.59685800  14.010000   ; qtot -0.596885
  813         c3     29    bbb     C1    813 0.10137000  12.010000   ; qtot -0.495515
  814         h1     29    bbb     H1    814 0.04411300   1.008000   ; qtot -0.451402
  815         h1     29    bbb     H2    815 0.04411300   1.008000   ; qtot -0.407289
  816         c3     29    bbb     C2    816 0.10137000  12.010000   ; qtot -0.305919
  817         h1     29    bbb     H3    817 0.04411300   1.008000   ; qtot -0.261806
  818         h1     29    bbb     H4    818 0.04411300   1.008000   ; qtot -0.217693
  819         c3     29    bbb     C3    819 -0.00195300  12.010000   ; qtot -0.219646
  820         h1     29    bbb     H5    820 0.05064400   1.008000   ; qtot -0.169002
  821         h1     29    bbb     H6    821 0.05064400   1.008000   ; qtot -0.118358
  822         c3     29    bbb     C4    822 -0.01612100  12.010000   ; qtot -0.134479
  823         hc     29    bbb     H7    823 0.04936100   1.008000   ; qtot -0.085118
  824         hc     29    bbb     H8    824 0.04936100   1.008000   ; qtot -0.035757
  825         c3     29    bbb     C5    825 0.11363000  12.010000   ; qtot 0.077873
  826         hc     29    bbb     H9    826 0.06265900   1.008000   ; qtot 0.140532
  827         hc     29    bbb    H10    827 0.06265900   1.008000   ; qtot 0.203191
  828         c3     29    bbb     C6    828 0.11363000  12.010000   ; qtot 0.316821
  829         hc     29    bbb    H11    829 0.06265900   1.008000   ; qtot 0.379480
  830         hc     29    bbb    H12    830 0.06265900   1.008000   ; qtot 0.442139
  831         c3     29    bbb     C7    831 0.05858200  12.010000   ; qtot 0.500721
  832         h1     29    bbb    H13    832 0.06123400   1.008000   ; qtot 0.561955
  833         h1     29    bbb    H14    833 0.06123400   1.008000   ; qtot 0.623189
  834         c3     29    bbb     C8    834 -0.72423400  12.010000   ; qtot -0.101045
  835         h1     29    bbb    H15    835 0.25637600   1.008000   ; qtot 0.155331
  836         h1     29    bbb    H16    836 0.25637600   1.008000   ; qtot 0.411707
  837         c3     29    bbb     C9    837 -0.72423400  12.010000   ; qtot -0.312527
  838         h1     29    bbb    H17    838 0.25637600   1.008000   ; qtot -0.056151
  839         h1     29    bbb    H18    839 0.25637600   1.008000   ; qtot 0.200225
  840         os     29    bbb     O1    840 -0.20025300  16.000000   ; qtot -0.000028
; residue   30 bbb rtp bbb q -0.0
  841         n3     30    bbb     N1    841 -0.59685800  14.010000   ; qtot -0.596886
  842         c3     30    bbb     C1    842 0.10137000  12.010000   ; qtot -0.495516
  843         h1     30    bbb     H1    843 0.04411300   1.008000   ; qtot -0.451403
  844         h1     30    bbb     H2    844 0.04411300   1.008000   ; qtot -0.407290
  845         c3     30    bbb     C2    845 0.10137000  12.010000   ; qtot -0.305920
  846         h1     30    bbb     H3    846 0.04411300   1.008000   ; qtot -0.261807
  847         h1     30    bbb     H4    847 0.04411300   1.008000   ; qtot -0.217694
  848         c3     30    bbb     C3    848 -0.00195300  12.010000   ; qtot -0.219647
  849         h1     30    bbb     H5    849 0.05064400   1.008000   ; qtot -0.169003
  850         h1     30    bbb     H6    850 0.05064400   1.008000   ; qtot -0.118359
  851         c3     30    bbb     C4    851 -0.01612100  12.010000   ; qtot -0.134480
  852         hc     30    bbb     H7    852 0.04936100   1.008000   ; qtot -0.085119
  853         hc     30    bbb     H8    853 0.04936100   1.008000   ; qtot -0.035758
  854         c3     30    bbb     C5    854 0.11363000  12.010000   ; qtot 0.077872
  855         hc     30    bbb     H9    855 0.06265900   1.008000   ; qtot 0.140531
  856         hc     30    bbb    H10    856 0.06265900   1.008000   ; qtot 0.203190
  857         c3     30    bbb     C6    857 0.11363000  12.010000   ; qtot 0.316820
  858         hc     30    bbb    H11    858 0.06265900   1.008000   ; qtot 0.379479
  859         hc     30    bbb    H12    859 0.06265900   1.008000   ; qtot 0.442138
  860         c3     30    bbb     C7    860 0.05858200  12.010000   ; qtot 0.500720
  861         h1     30    bbb    H13    861 0.06123400   1.008000   ; qtot 0.561954
  862         h1     30    bbb    H14    862 0.06123400   1.008000   ; qtot 0.623188
  863         c3     30    bbb     C8    863 -0.72423400  12.010000   ; qtot -0.101046
  864         h1     30    bbb    H15    864 0.25637600   1.008000   ; qtot 0.155330
  865         h1     30    bbb    H16    865 0.25637600   1.008000   ; qtot 0.411706
  866         c3     30    bbb     C9    866 -0.72423400  12.010000   ; qtot -0.312528
  867         h1     30    bbb    H17    867 0.25637600   1.008000   ; qtot -0.056152
  868         h1     30    bbb    H18    868 0.25637600   1.008000   ; qtot 0.200224
  869         os     30    bbb     O1    869 -0.20025300  16.000000   ; qtot -0.000029
; residue   31 bbb rtp bbb q -0.0
  870         n3     31    bbb     N1    870 -0.59685800  14.010000   ; qtot -0.596887
  871         c3     31    bbb     C1    871 0.10137000  12.010000   ; qtot -0.495517
  872         h1     31    bbb     H1    872 0.04411300   1.008000   ; qtot -0.451404
  873         h1     31    bbb     H2    873 0.04411300   1.008000   ; qtot -0.407291
  874         c3     31    bbb     C2    874 0.10137000  12.010000   ; qtot -0.305921
  875         h1     31    bbb     H3    875 0.04411300   1.008000   ; qtot -0.261808
  876         h1     31    bbb     H4    876 0.04411300   1.008000   ; qtot -0.217695
  877         c3     31    bbb     C3    877 -0.00195300  12.010000   ; qtot -0.219648
  878         h1     31    bbb     H5    878 0.05064400   1.008000   ; qtot -0.169004
  879         h1     31    bbb     H6    879 0.05064400   1.008000   ; qtot -0.118360
  880         c3     31    bbb     C4    880 -0.01612100  12.010000   ; qtot -0.134481
  881         hc     31    bbb     H7    881 0.04936100   1.008000   ; qtot -0.085120
  882         hc     31    bbb     H8    882 0.04936100   1.008000   ; qtot -0.035759
  883         c3     31    bbb     C5    883 0.11363000  12.010000   ; qtot 0.077871
  884         hc     31    bbb     H9    884 0.06265900   1.008000   ; qtot 0.140530
  885         hc     31    bbb    H10    885 0.06265900   1.008000   ; qtot 0.203189
  886         c3     31    bbb     C6    886 0.11363000  12.010000   ; qtot 0.316819
  887         hc     31    bbb    H11    887 0.06265900   1.008000   ; qtot 0.379478
  888         hc     31    bbb    H12    888 0.06265900   1.008000   ; qtot 0.442137
  889         c3     31    bbb     C7    889 0.05858200  12.010000   ; qtot 0.500719
  890         h1     31    bbb    H13    890 0.06123400   1.008000   ; qtot 0.561953
  891         h1     31    bbb    H14    891 0.06123400   1.008000   ; qtot 0.623187
  892         c3     31    bbb     C8    892 -0.72423400  12.010000   ; qtot -0.101047
  893         h1     31    bbb    H15    893 0.25637600   1.008000   ; qtot 0.155329
  894         h1     31    bbb    H16    894 0.25637600   1.008000   ; qtot 0.411705
  895         c3     31    bbb     C9    895 -0.72423400  12.010000   ; qtot -0.312529
  896         h1     31    bbb    H17    896 0.25637600   1.008000   ; qtot -0.056153
  897         h1     31    bbb    H18    897 0.25637600   1.008000   ; qtot 0.200223
  898         os     31    bbb     O1    898 -0.20025300  16.000000   ; qtot -0.000030
; residue   32 bbb rtp bbb q -0.0
  899         n3     32    bbb     N1    899 -0.59685800  14.010000   ; qtot -0.596888
  900         c3     32    bbb     C1    900 0.10137000  12.010000   ; qtot -0.495518
  901         h1     32    bbb     H1    901 0.04411300   1.008000   ; qtot -0.451405
  902         h1     32    bbb     H2    902 0.04411300   1.008000   ; qtot -0.407292
  903         c3     32    bbb     C2    903 0.10137000  12.010000   ; qtot -0.305922
  904         h1     32    bbb     H3    904 0.04411300   1.008000   ; qtot -0.261809
  905         h1     32    bbb     H4    905 0.04411300   1.008000   ; qtot -0.217696
  906         c3     32    bbb     C3    906 -0.00195300  12.010000   ; qtot -0.219649
  907         h1     32    bbb     H5    907 0.05064400   1.008000   ; qtot -0.169005
  908         h1     32    bbb     H6    908 0.05064400   1.008000   ; qtot -0.118361
  909         c3     32    bbb     C4    909 -0.01612100  12.010000   ; qtot -0.134482
  910         hc     32    bbb     H7    910 0.04936100   1.008000   ; qtot -0.085121
  911         hc     32    bbb     H8    911 0.04936100   1.008000   ; qtot -0.035760
  912         c3     32    bbb     C5    912 0.11363000  12.010000   ; qtot 0.077870
  913         hc     32    bbb     H9    913 0.06265900   1.008000   ; qtot 0.140529
  914         hc     32    bbb    H10    914 0.06265900   1.008000   ; qtot 0.203188
  915         c3     32    bbb     C6    915 0.11363000  12.010000   ; qtot 0.316818
  916         hc     32    bbb    H11    916 0.06265900   1.008000   ; qtot 0.379477
  917         hc     32    bbb    H12    917 0.06265900   1.008000   ; qtot 0.442136
  918         c3     32    bbb     C7    918 0.05858200  12.010000   ; qtot 0.500718
  919         h1     32    bbb    H13    919 0.06123400   1.008000   ; qtot 0.561952
  920         h1     32    bbb    H14    920 0.06123400   1.008000   ; qtot 0.623186
  921         c3     32    bbb     C8    921 -0.72423400  12.010000   ; qtot -0.101048
  922         h1     32    bbb    H15    922 0.25637600   1.008000   ; qtot 0.155328
  923         h1     32    bbb    H16    923 0.25637600   1.008000   ; qtot 0.411704
  924         c3     32    bbb     C9    924 -0.72423400  12.010000   ; qtot -0.312530
  925         h1     32    bbb    H17    925 0.25637600   1.008000   ; qtot -0.056154
  926         h1     32    bbb    H18    926 0.25637600   1.008000   ; qtot 0.200222
  927         os     32    bbb     O1    927 -0.20025300  16.000000   ; qtot -0.000031
; residue   33 bbb rtp bbb q -0.0
  928         n3     33    bbb     N1    928 -0.59685800  14.010000   ; qtot -0.596889
  929         c3     33    bbb     C1    929 0.10137000  12.010000   ; qtot -0.495519
  930         h1     33    bbb     H1    930 0.04411300   1.008000   ; qtot -0.451406
  931         h1     33    bbb     H2    931 0.04411300   1.008000   ; qtot -0.407293
  932         c3     33    bbb     C2    932 0.10137000  12.010000   ; qtot -0.305923
  933         h1     33    bbb     H3    933 0.04411300   1.008000   ; qtot -0.261810
  934         h1     33    bbb     H4    934 0.04411300   1.008000   ; qtot -0.217697
  935         c3     33    bbb     C3    935 -0.00195300  12.010000   ; qtot -0.219650
  936         h1     33    bbb     H5    936 0.05064400   1.008000   ; qtot -0.169006
  937         h1     33    bbb     H6    937 0.05064400   1.008000   ; qtot -0.118362
  938         c3     33    bbb     C4    938 -0.01612100  12.010000   ; qtot -0.134483
  939         hc     33    bbb     H7    939 0.04936100   1.008000   ; qtot -0.085122
  940         hc     33    bbb     H8    940 0.04936100   1.008000   ; qtot -0.035761
  941         c3     33    bbb     C5    941 0.11363000  12.010000   ; qtot 0.077869
  942         hc     33    bbb     H9    942 0.06265900   1.008000   ; qtot 0.140528
  943         hc     33    bbb    H10    943 0.06265900   1.008000   ; qtot 0.203187
  944         c3     33    bbb     C6    944 0.11363000  12.010000   ; qtot 0.316817
  945         hc     33    bbb    H11    945 0.06265900   1.008000   ; qtot 0.379476
  946         hc     33    bbb    H12    946 0.06265900   1.008000   ; qtot 0.442135
  947         c3     33    bbb     C7    947 0.05858200  12.010000   ; qtot 0.500717
  948         h1     33    bbb    H13    948 0.06123400   1.008000   ; qtot 0.561951
  949         h1     33    bbb    H14    949 0.06123400   1.008000   ; qtot 0.623185
  950         c3     33    bbb     C8    950 -0.72423400  12.010000   ; qtot -0.101049
  951         h1     33    bbb    H15    951 0.25637600   1.008000   ; qtot 0.155327
  952         h1     33    bbb    H16    952 0.25637600   1.008000   ; qtot 0.411703
  953         c3     33    bbb     C9    953 -0.72423400  12.010000   ; qtot -0.312531
  954         h1     33    bbb    H17    954 0.25637600   1.008000   ; qtot -0.056155
  955         h1     33    bbb    H18    955 0.25637600   1.008000   ; qtot 0.200221
  956         os     33    bbb     O1    956 -0.20025300  16.000000   ; qtot -0.000032
; residue   34 bbb rtp bbb q -0.0
  957         n3     34    bbb     N1    957 -0.59685800  14.010000   ; qtot -0.596890
  958         c3     34    bbb     C1    958 0.10137000  12.010000   ; qtot -0.495520
  959         h1     34    bbb     H1    959 0.04411300   1.008000   ; qtot -0.451407
  960         h1     34    bbb     H2    960 0.04411300   1.008000   ; qtot -0.407294
  961         c3     34    bbb     C2    961 0.10137000  12.010000   ; qtot -0.305924
  962         h1     34    bbb     H3    962 0.04411300   1.008000   ; qtot -0.261811
  963         h1     34    bbb     H4    963 0.04411300   1.008000   ; qtot -0.217698
  964         c3     34    bbb     C3    964 -0.00195300  12.010000   ; qtot -0.219651
  965         h1     34    bbb     H5    965 0.05064400   1.008000   ; qtot -0.169007
  966         h1     34    bbb     H6    966 0.05064400   1.008000   ; qtot -0.118363
  967         c3     34    bbb     C4    967 -0.01612100  12.010000   ; qtot -0.134484
  968         hc     34    bbb     H7    968 0.04936100   1.008000   ; qtot -0.085123
  969         hc     34    bbb     H8    969 0.04936100   1.008000   ; qtot -0.035762
  970         c3     34    bbb     C5    970 0.11363000  12.010000   ; qtot 0.077868
  971         hc     34    bbb     H9    971 0.06265900   1.008000   ; qtot 0.140527
  972         hc     34    bbb    H10    972 0.06265900   1.008000   ; qtot 0.203186
  973         c3     34    bbb     C6    973 0.11363000  12.010000   ; qtot 0.316816
  974         hc     34    bbb    H11    974 0.06265900   1.008000   ; qtot 0.379475
  975         hc     34    bbb    H12    975 0.06265900   1.008000   ; qtot 0.442134
  976         c3     34    bbb     C7    976 0.05858200  12.010000   ; qtot 0.500716
  977         h1     34    bbb    H13    977 0.06123400   1.008000   ; qtot 0.561950
  978         h1     34    bbb    H14    978 0.06123400   1.008000   ; qtot 0.623184
  979         c3     34    bbb     C8    979 -0.72423400  12.010000   ; qtot -0.101050
  980         h1     34    bbb    H15    980 0.25637600   1.008000   ; qtot 0.155326
  981         h1     34    bbb    H16    981 0.25637600   1.008000   ; qtot 0.411702
  982         c3     34    bbb     C9    982 -0.72423400  12.010000   ; qtot -0.312532
  983         h1     34    bbb    H17    983 0.25637600   1.008000   ; qtot -0.056156
  984         h1     34    bbb    H18    984 0.25637600   1.008000   ; qtot 0.200220
  985         os     34    bbb     O1    985 -0.20025300  16.000000   ; qtot -0.000033
; residue   35 bbb rtp bbb q -0.0
  986         n3     35    bbb     N1    986 -0.59685800  14.010000   ; qtot -0.596891
  987         c3     35    bbb     C1    987 0.10137000  12.010000   ; qtot -0.495521
  988         h1     35    bbb     H1    988 0.04411300   1.008000   ; qtot -0.451408
  989         h1     35    bbb     H2    989 0.04411300   1.008000   ; qtot -0.407295
  990         c3     35    bbb     C2    990 0.10137000  12.010000   ; qtot -0.305925
  991         h1     35    bbb     H3    991 0.04411300   1.008000   ; qtot -0.261812
  992         h1     35    bbb     H4    992 0.04411300   1.008000   ; qtot -0.217699
  993         c3     35    bbb     C3    993 -0.00195300  12.010000   ; qtot -0.219652
  994         h1     35    bbb     H5    994 0.05064400   1.008000   ; qtot -0.169008
  995         h1     35    bbb     H6    995 0.05064400   1.008000   ; qtot -0.118364
  996         c3     35    bbb     C4    996 -0.01612100  12.010000   ; qtot -0.134485
  997         hc     35    bbb     H7    997 0.04936100   1.008000   ; qtot -0.085124
  998         hc     35    bbb     H8    998 0.04936100   1.008000   ; qtot -0.035763
  999         c3     35    bbb     C5    999 0.11363000  12.010000   ; qtot 0.077867
 1000         hc     35    bbb     H9   1000 0.06265900   1.008000   ; qtot 0.140526
 1001         hc     35    bbb    H10   1001 0.06265900   1.008000   ; qtot 0.203185
 1002         c3     35    bbb     C6   1002 0.11363000  12.010000   ; qtot 0.316815
 1003         hc     35    bbb    H11   1003 0.06265900   1.008000   ; qtot 0.379474
 1004         hc     35    bbb    H12   1004 0.06265900   1.008000   ; qtot 0.442133
 1005         c3     35    bbb     C7   1005 0.05858200  12.010000   ; qtot 0.500715
 1006         h1     35    bbb    H13   1006 0.06123400   1.008000   ; qtot 0.561949
 1007         h1     35    bbb    H14   1007 0.06123400   1.008000   ; qtot 0.623183
 1008         c3     35    bbb     C8   1008 -0.72423400  12.010000   ; qtot -0.101051
 1009         h1     35    bbb    H15   1009 0.25637600   1.008000   ; qtot 0.155325
 1010         h1     35    bbb    H16   1010 0.25637600   1.008000   ; qtot 0.411701
 1011         c3     35    bbb     C9   1011 -0.72423400  12.010000   ; qtot -0.312533
 1012         h1     35    bbb    H17   1012 0.25637600   1.008000   ; qtot -0.056157
 1013         h1     35    bbb    H18   1013 0.25637600   1.008000   ; qtot 0.200219
 1014         os     35    bbb     O1   1014 -0.20025300  16.000000   ; qtot -0.000034
; residue   36 bbb rtp bbb q -0.0
 1015         n3     36    bbb     N1   1015 -0.59685800  14.010000   ; qtot -0.596892
 1016         c3     36    bbb     C1   1016 0.10137000  12.010000   ; qtot -0.495522
 1017         h1     36    bbb     H1   1017 0.04411300   1.008000   ; qtot -0.451409
 1018         h1     36    bbb     H2   1018 0.04411300   1.008000   ; qtot -0.407296
 1019         c3     36    bbb     C2   1019 0.10137000  12.010000   ; qtot -0.305926
 1020         h1     36    bbb     H3   1020 0.04411300   1.008000   ; qtot -0.261813
 1021         h1     36    bbb     H4   1021 0.04411300   1.008000   ; qtot -0.217700
 1022         c3     36    bbb     C3   1022 -0.00195300  12.010000   ; qtot -0.219653
 1023         h1     36    bbb     H5   1023 0.05064400   1.008000   ; qtot -0.169009
 1024         h1     36    bbb     H6   1024 0.05064400   1.008000   ; qtot -0.118365
 1025         c3     36    bbb     C4   1025 -0.01612100  12.010000   ; qtot -0.134486
 1026         hc     36    bbb     H7   1026 0.04936100   1.008000   ; qtot -0.085125
 1027         hc     36    bbb     H8   1027 0.04936100   1.008000   ; qtot -0.035764
 1028         c3     36    bbb     C5   1028 0.11363000  12.010000   ; qtot 0.077866
 1029         hc     36    bbb     H9   1029 0.06265900   1.008000   ; qtot 0.140525
 1030         hc     36    bbb    H10   1030 0.06265900   1.008000   ; qtot 0.203184
 1031         c3     36    bbb     C6   1031 0.11363000  12.010000   ; qtot 0.316814
 1032         hc     36    bbb    H11   1032 0.06265900   1.008000   ; qtot 0.379473
 1033         hc     36    bbb    H12   1033 0.06265900   1.008000   ; qtot 0.442132
 1034         c3     36    bbb     C7   1034 0.05858200  12.010000   ; qtot 0.500714
 1035         h1     36    bbb    H13   1035 0.06123400   1.008000   ; qtot 0.561948
 1036         h1     36    bbb    H14   1036 0.06123400   1.008000   ; qtot 0.623182
 1037         c3     36    bbb     C8   1037 -0.72423400  12.010000   ; qtot -0.101052
 1038         h1     36    bbb    H15   1038 0.25637600   1.008000   ; qtot 0.155324
 1039         h1     36    bbb    H16   1039 0.25637600   1.008000   ; qtot 0.411700
 1040         c3     36    bbb     C9   1040 -0.72423400  12.010000   ; qtot -0.312534
 1041         h1     36    bbb    H17   1041 0.25637600   1.008000   ; qtot -0.056158
 1042         h1     36    bbb    H18   1042 0.25637600   1.008000   ; qtot 0.200218
 1043         os     36    bbb     O1   1043 -0.20025300  16.000000   ; qtot -0.000035
; residue   37 bbb rtp bbb q -0.0
 1044         n3     37    bbb     N1   1044 -0.59685800  14.010000   ; qtot -0.596893
 1045         c3     37    bbb     C1   1045 0.10137000  12.010000   ; qtot -0.495523
 1046         h1     37    bbb     H1   1046 0.04411300   1.008000   ; qtot -0.451410
 1047         h1     37    bbb     H2   1047 0.04411300   1.008000   ; qtot -0.407297
 1048         c3     37    bbb     C2   1048 0.10137000  12.010000   ; qtot -0.305927
 1049         h1     37    bbb     H3   1049 0.04411300   1.008000   ; qtot -0.261814
 1050         h1     37    bbb     H4   1050 0.04411300   1.008000   ; qtot -0.217701
 1051         c3     37    bbb     C3   1051 -0.00195300  12.010000   ; qtot -0.219654
 1052         h1     37    bbb     H5   1052 0.05064400   1.008000   ; qtot -0.169010
 1053         h1     37    bbb     H6   1053 0.05064400   1.008000   ; qtot -0.118366
 1054         c3     37    bbb     C4   1054 -0.01612100  12.010000   ; qtot -0.134487
 1055         hc     37    bbb     H7   1055 0.04936100   1.008000   ; qtot -0.085126
 1056         hc     37    bbb     H8   1056 0.04936100   1.008000   ; qtot -0.035765
 1057         c3     37    bbb     C5   1057 0.11363000  12.010000   ; qtot 0.077865
 1058         hc     37    bbb     H9   1058 0.06265900   1.008000   ; qtot 0.140524
 1059         hc     37    bbb    H10   1059 0.06265900   1.008000   ; qtot 0.203183
 1060         c3     37    bbb     C6   1060 0.11363000  12.010000   ; qtot 0.316813
 1061         hc     37    bbb    H11   1061 0.06265900   1.008000   ; qtot 0.379472
 1062         hc     37    bbb    H12   1062 0.06265900   1.008000   ; qtot 0.442131
 1063         c3     37    bbb     C7   1063 0.05858200  12.010000   ; qtot 0.500713
 1064         h1     37    bbb    H13   1064 0.06123400   1.008000   ; qtot 0.561947
 1065         h1     37    bbb    H14   1065 0.06123400   1.008000   ; qtot 0.623181
 1066         c3     37    bbb     C8   1066 -0.72423400  12.010000   ; qtot -0.101053
 1067         h1     37    bbb    H15   1067 0.25637600   1.008000   ; qtot 0.155323
 1068         h1     37    bbb    H16   1068 0.25637600   1.008000   ; qtot 0.411699
 1069         c3     37    bbb     C9   1069 -0.72423400  12.010000   ; qtot -0.312535
 1070         h1     37    bbb    H17   1070 0.25637600   1.008000   ; qtot -0.056159
 1071         h1     37    bbb    H18   1071 0.25637600   1.008000   ; qtot 0.200217
 1072         os     37    bbb     O1   1072 -0.20025300  16.000000   ; qtot -0.000036
; residue   38 bbb rtp bbb q -0.0
 1073         n3     38    bbb     N1   1073 -0.59685800  14.010000   ; qtot -0.596894
 1074         c3     38    bbb     C1   1074 0.10137000  12.010000   ; qtot -0.495524
 1075         h1     38    bbb     H1   1075 0.04411300   1.008000   ; qtot -0.451411
 1076         h1     38    bbb     H2   1076 0.04411300   1.008000   ; qtot -0.407298
 1077         c3     38    bbb     C2   1077 0.10137000  12.010000   ; qtot -0.305928
 1078         h1     38    bbb     H3   1078 0.04411300   1.008000   ; qtot -0.261815
 1079         h1     38    bbb     H4   1079 0.04411300   1.008000   ; qtot -0.217702
 1080         c3     38    bbb     C3   1080 -0.00195300  12.010000   ; qtot -0.219655
 1081         h1     38    bbb     H5   1081 0.05064400   1.008000   ; qtot -0.169011
 1082         h1     38    bbb     H6   1082 0.05064400   1.008000   ; qtot -0.118367
 1083         c3     38    bbb     C4   1083 -0.01612100  12.010000   ; qtot -0.134488
 1084         hc     38    bbb     H7   1084 0.04936100   1.008000   ; qtot -0.085127
 1085         hc     38    bbb     H8   1085 0.04936100   1.008000   ; qtot -0.035766
 1086         c3     38    bbb     C5   1086 0.11363000  12.010000   ; qtot 0.077864
 1087         hc     38    bbb     H9   1087 0.06265900   1.008000   ; qtot 0.140523
 1088         hc     38    bbb    H10   1088 0.06265900   1.008000   ; qtot 0.203182
 1089         c3     38    bbb     C6   1089 0.11363000  12.010000   ; qtot 0.316812
 1090         hc     38    bbb    H11   1090 0.06265900   1.008000   ; qtot 0.379471
 1091         hc     38    bbb    H12   1091 0.06265900   1.008000   ; qtot 0.442130
 1092         c3     38    bbb     C7   1092 0.05858200  12.010000   ; qtot 0.500712
 1093         h1     38    bbb    H13   1093 0.06123400   1.008000   ; qtot 0.561946
 1094         h1     38    bbb    H14   1094 0.06123400   1.008000   ; qtot 0.623180
 1095         c3     38    bbb     C8   1095 -0.72423400  12.010000   ; qtot -0.101054
 1096         h1     38    bbb    H15   1096 0.25637600   1.008000   ; qtot 0.155322
 1097         h1     38    bbb    H16   1097 0.25637600   1.008000   ; qtot 0.411698
 1098         c3     38    bbb     C9   1098 -0.72423400  12.010000   ; qtot -0.312536
 1099         h1     38    bbb    H17   1099 0.25637600   1.008000   ; qtot -0.056160
 1100         h1     38    bbb    H18   1100 0.25637600   1.008000   ; qtot 0.200216
 1101         os     38    bbb     O1   1101 -0.20025300  16.000000   ; qtot -0.000037
; residue   39 bbb rtp bbb q -0.0
 1102         n3     39    bbb     N1   1102 -0.59685800  14.010000   ; qtot -0.596895
 1103         c3     39    bbb     C1   1103 0.10137000  12.010000   ; qtot -0.495525
 1104         h1     39    bbb     H1   1104 0.04411300   1.008000   ; qtot -0.451412
 1105         h1     39    bbb     H2   1105 0.04411300   1.008000   ; qtot -0.407299
 1106         c3     39    bbb     C2   1106 0.10137000  12.010000   ; qtot -0.305929
 1107         h1     39    bbb     H3   1107 0.04411300   1.008000   ; qtot -0.261816
 1108         h1     39    bbb     H4   1108 0.04411300   1.008000   ; qtot -0.217703
 1109         c3     39    bbb     C3   1109 -0.00195300  12.010000   ; qtot -0.219656
 1110         h1     39    bbb     H5   1110 0.05064400   1.008000   ; qtot -0.169012
 1111         h1     39    bbb     H6   1111 0.05064400   1.008000   ; qtot -0.118368
 1112         c3     39    bbb     C4   1112 -0.01612100  12.010000   ; qtot -0.134489
 1113         hc     39    bbb     H7   1113 0.04936100   1.008000   ; qtot -0.085128
 1114         hc     39    bbb     H8   1114 0.04936100   1.008000   ; qtot -0.035767
 1115         c3     39    bbb     C5   1115 0.11363000  12.010000   ; qtot 0.077863
 1116         hc     39    bbb     H9   1116 0.06265900   1.008000   ; qtot 0.140522
 1117         hc     39    bbb    H10   1117 0.06265900   1.008000   ; qtot 0.203181
 1118         c3     39    bbb     C6   1118 0.11363000  12.010000   ; qtot 0.316811
 1119         hc     39    bbb    H11   1119 0.06265900   1.008000   ; qtot 0.379470
 1120         hc     39    bbb    H12   1120 0.06265900   1.008000   ; qtot 0.442129
 1121         c3     39    bbb     C7   1121 0.05858200  12.010000   ; qtot 0.500711
 1122         h1     39    bbb    H13   1122 0.06123400   1.008000   ; qtot 0.561945
 1123         h1     39    bbb    H14   1123 0.06123400   1.008000   ; qtot 0.623179
 1124         c3     39    bbb     C8   1124 -0.72423400  12.010000   ; qtot -0.101055
 1125         h1     39    bbb    H15   1125 0.25637600   1.008000   ; qtot 0.155321
 1126         h1     39    bbb    H16   1126 0.25637600   1.008000   ; qtot 0.411697
 1127         c3     39    bbb     C9   1127 -0.72423400  12.010000   ; qtot -0.312537
 1128         h1     39    bbb    H17   1128 0.25637600   1.008000   ; qtot -0.056161
 1129         h1     39    bbb    H18   1129 0.25637600   1.008000   ; qtot 0.200215
 1130         os     39    bbb     O1   1130 -0.20025300  16.000000   ; qtot -0.000038
; residue   40 bbb rtp bbb q -0.0
 1131         n3     40    bbb     N1   1131 -0.59685800  14.010000   ; qtot -0.596896
 1132         c3     40    bbb     C1   1132 0.10137000  12.010000   ; qtot -0.495526
 1133         h1     40    bbb     H1   1133 0.04411300   1.008000   ; qtot -0.451413
 1134         h1     40    bbb     H2   1134 0.04411300   1.008000   ; qtot -0.407300
 1135         c3     40    bbb     C2   1135 0.10137000  12.010000   ; qtot -0.305930
 1136         h1     40    bbb     H3   1136 0.04411300   1.008000   ; qtot -0.261817
 1137         h1     40    bbb     H4   1137 0.04411300   1.008000   ; qtot -0.217704
 1138         c3     40    bbb     C3   1138 -0.00195300  12.010000   ; qtot -0.219657
 1139         h1     40    bbb     H5   1139 0.05064400   1.008000   ; qtot -0.169013
 1140         h1     40    bbb     H6   1140 0.05064400   1.008000   ; qtot -0.118369
 1141         c3     40    bbb     C4   1141 -0.01612100  12.010000   ; qtot -0.134490
 1142         hc     40    bbb     H7   1142 0.04936100   1.008000   ; qtot -0.085129
 1143         hc     40    bbb     H8   1143 0.04936100   1.008000   ; qtot -0.035768
 1144         c3     40    bbb     C5   1144 0.11363000  12.010000   ; qtot 0.077862
 1145         hc     40    bbb     H9   1145 0.06265900   1.008000   ; qtot 0.140521
 1146         hc     40    bbb    H10   1146 0.06265900   1.008000   ; qtot 0.203180
 1147         c3     40    bbb     C6   1147 0.11363000  12.010000   ; qtot 0.316810
 1148         hc     40    bbb    H11   1148 0.06265900   1.008000   ; qtot 0.379469
 1149         hc     40    bbb    H12   1149 0.06265900   1.008000   ; qtot 0.442128
 1150         c3     40    bbb     C7   1150 0.05858200  12.010000   ; qtot 0.500710
 1151         h1     40    bbb    H13   1151 0.06123400   1.008000   ; qtot 0.561944
 1152         h1     40    bbb    H14   1152 0.06123400   1.008000   ; qtot 0.623178
 1153         c3     40    bbb     C8   1153 -0.72423400  12.010000   ; qtot -0.101056
 1154         h1     40    bbb    H15   1154 0.25637600   1.008000   ; qtot 0.155320
 1155         h1     40    bbb    H16   1155 0.25637600   1.008000   ; qtot 0.411696
 1156         c3     40    bbb     C9   1156 -0.72423400  12.010000   ; qtot -0.312538
 1157         h1     40    bbb    H17   1157 0.25637600   1.008000   ; qtot -0.056162
 1158         h1     40    bbb    H18   1158 0.25637600   1.008000   ; qtot 0.200214
 1159         os     40    bbb     O1   1159 -0.20025300  16.000000   ; qtot -0.000039
; residue   41 bbb rtp bbb q -0.0
 1160         n3     41    bbb     N1   1160 -0.59685800  14.010000   ; qtot -0.596897
 1161         c3     41    bbb     C1   1161 0.10137000  12.010000   ; qtot -0.495527
 1162         h1     41    bbb     H1   1162 0.04411300   1.008000   ; qtot -0.451414
 1163         h1     41    bbb     H2   1163 0.04411300   1.008000   ; qtot -0.407301
 1164         c3     41    bbb     C2   1164 0.10137000  12.010000   ; qtot -0.305931
 1165         h1     41    bbb     H3   1165 0.04411300   1.008000   ; qtot -0.261818
 1166         h1     41    bbb     H4   1166 0.04411300   1.008000   ; qtot -0.217705
 1167         c3     41    bbb     C3   1167 -0.00195300  12.010000   ; qtot -0.219658
 1168         h1     41    bbb     H5   1168 0.05064400   1.008000   ; qtot -0.169014
 1169         h1     41    bbb     H6   1169 0.05064400   1.008000   ; qtot -0.118370
 1170         c3     41    bbb     C4   1170 -0.01612100  12.010000   ; qtot -0.134491
 1171         hc     41    bbb     H7   1171 0.04936100   1.008000   ; qtot -0.085130
 1172         hc     41    bbb     H8   1172 0.04936100   1.008000   ; qtot -0.035769
 1173         c3     41    bbb     C5   1173 0.11363000  12.010000   ; qtot 0.077861
 1174         hc     41    bbb     H9   1174 0.06265900   1.008000   ; qtot 0.140520
 1175         hc     41    bbb    H10   1175 0.06265900   1.008000   ; qtot 0.203179
 1176         c3     41    bbb     C6   1176 0.11363000  12.010000   ; qtot 0.316809
 1177         hc     41    bbb    H11   1177 0.06265900   1.008000   ; qtot 0.379468
 1178         hc     41    bbb    H12   1178 0.06265900   1.008000   ; qtot 0.442127
 1179         c3     41    bbb     C7   1179 0.05858200  12.010000   ; qtot 0.500709
 1180         h1     41    bbb    H13   1180 0.06123400   1.008000   ; qtot 0.561943
 1181         h1     41    bbb    H14   1181 0.06123400   1.008000   ; qtot 0.623177
 1182         c3     41    bbb     C8   1182 -0.72423400  12.010000   ; qtot -0.101057
 1183         h1     41    bbb    H15   1183 0.25637600   1.008000   ; qtot 0.155319
 1184         h1     41    bbb    H16   1184 0.25637600   1.008000   ; qtot 0.411695
 1185         c3     41    bbb     C9   1185 -0.72423400  12.010000   ; qtot -0.312539
 1186         h1     41    bbb    H17   1186 0.25637600   1.008000   ; qtot -0.056163
 1187         h1     41    bbb    H18   1187 0.25637600   1.008000   ; qtot 0.200213
 1188         os     41    bbb     O1   1188 -0.20025300  16.000000   ; qtot -0.000040
; residue   42 bbb rtp bbb q -0.0
 1189         n3     42    bbb     N1   1189 -0.59685800  14.010000   ; qtot -0.596898
 1190         c3     42    bbb     C1   1190 0.10137000  12.010000   ; qtot -0.495528
 1191         h1     42    bbb     H1   1191 0.04411300   1.008000   ; qtot -0.451415
 1192         h1     42    bbb     H2   1192 0.04411300   1.008000   ; qtot -0.407302
 1193         c3     42    bbb     C2   1193 0.10137000  12.010000   ; qtot -0.305932
 1194         h1     42    bbb     H3   1194 0.04411300   1.008000   ; qtot -0.261819
 1195         h1     42    bbb     H4   1195 0.04411300   1.008000   ; qtot -0.217706
 1196         c3     42    bbb     C3   1196 -0.00195300  12.010000   ; qtot -0.219659
 1197         h1     42    bbb     H5   1197 0.05064400   1.008000   ; qtot -0.169015
 1198         h1     42    bbb     H6   1198 0.05064400   1.008000   ; qtot -0.118371
 1199         c3     42    bbb     C4   1199 -0.01612100  12.010000   ; qtot -0.134492
 1200         hc     42    bbb     H7   1200 0.04936100   1.008000   ; qtot -0.085131
 1201         hc     42    bbb     H8   1201 0.04936100   1.008000   ; qtot -0.035770
 1202         c3     42    bbb     C5   1202 0.11363000  12.010000   ; qtot 0.077860
 1203         hc     42    bbb     H9   1203 0.06265900   1.008000   ; qtot 0.140519
 1204         hc     42    bbb    H10   1204 0.06265900   1.008000   ; qtot 0.203178
 1205         c3     42    bbb     C6   1205 0.11363000  12.010000   ; qtot 0.316808
 1206         hc     42    bbb    H11   1206 0.06265900   1.008000   ; qtot 0.379467
 1207         hc     42    bbb    H12   1207 0.06265900   1.008000   ; qtot 0.442126
 1208         c3     42    bbb     C7   1208 0.05858200  12.010000   ; qtot 0.500708
 1209         h1     42    bbb    H13   1209 0.06123400   1.008000   ; qtot 0.561942
 1210         h1     42    bbb    H14   1210 0.06123400   1.008000   ; qtot 0.623176
 1211         c3     42    bbb     C8   1211 -0.72423400  12.010000   ; qtot -0.101058
 1212         h1     42    bbb    H15   1212 0.25637600   1.008000   ; qtot 0.155318
 1213         h1     42    bbb    H16   1213 0.25637600   1.008000   ; qtot 0.411694
 1214         c3     42    bbb     C9   1214 -0.72423400  12.010000   ; qtot -0.312540
 1215         h1     42    bbb    H17   1215 0.25637600   1.008000   ; qtot -0.056164
 1216         h1     42    bbb    H18   1216 0.25637600   1.008000   ; qtot 0.200212
 1217         os     42    bbb     O1   1217 -0.20025300  16.000000   ; qtot -0.000041
; residue   43 bbb rtp bbb q -0.0
 1218         n3     43    bbb     N1   1218 -0.59685800  14.010000   ; qtot -0.596899
 1219         c3     43    bbb     C1   1219 0.10137000  12.010000   ; qtot -0.495529
 1220         h1     43    bbb     H1   1220 0.04411300   1.008000   ; qtot -0.451416
 1221         h1     43    bbb     H2   1221 0.04411300   1.008000   ; qtot -0.407303
 1222         c3     43    bbb     C2   1222 0.10137000  12.010000   ; qtot -0.305933
 1223         h1     43    bbb     H3   1223 0.04411300   1.008000   ; qtot -0.261820
 1224         h1     43    bbb     H4   1224 0.04411300   1.008000   ; qtot -0.217707
 1225         c3     43    bbb     C3   1225 -0.00195300  12.010000   ; qtot -0.219660
 1226         h1     43    bbb     H5   1226 0.05064400   1.008000   ; qtot -0.169016
 1227         h1     43    bbb     H6   1227 0.05064400   1.008000   ; qtot -0.118372
 1228         c3     43    bbb     C4   1228 -0.01612100  12.010000   ; qtot -0.134493
 1229         hc     43    bbb     H7   1229 0.04936100   1.008000   ; qtot -0.085132
 1230         hc     43    bbb     H8   1230 0.04936100   1.008000   ; qtot -0.035771
 1231         c3     43    bbb     C5   1231 0.11363000  12.010000   ; qtot 0.077859
 1232         hc     43    bbb     H9   1232 0.06265900   1.008000   ; qtot 0.140518
 1233         hc     43    bbb    H10   1233 0.06265900   1.008000   ; qtot 0.203177
 1234         c3     43    bbb     C6   1234 0.11363000  12.010000   ; qtot 0.316807
 1235         hc     43    bbb    H11   1235 0.06265900   1.008000   ; qtot 0.379466
 1236         hc     43    bbb    H12   1236 0.06265900   1.008000   ; qtot 0.442125
 1237         c3     43    bbb     C7   1237 0.05858200  12.010000   ; qtot 0.500707
 1238         h1     43    bbb    H13   1238 0.06123400   1.008000   ; qtot 0.561941
 1239         h1     43    bbb    H14   1239 0.06123400   1.008000   ; qtot 0.623175
 1240         c3     43    bbb     C8   1240 -0.72423400  12.010000   ; qtot -0.101059
 1241         h1     43    bbb    H15   1241 0.25637600   1.008000   ; qtot 0.155317
 1242         h1     43    bbb    H16   1242 0.25637600   1.008000   ; qtot 0.411693
 1243         c3     43    bbb     C9   1243 -0.72423400  12.010000   ; qtot -0.312541
 1244         h1     43    bbb    H17   1244 0.25637600   1.008000   ; qtot -0.056165
 1245         h1     43    bbb    H18   1245 0.25637600   1.008000   ; qtot 0.200211
 1246         os     43    bbb     O1   1246 -0.20025300  16.000000   ; qtot -0.000042
; residue   44 bbb rtp bbb q -0.0
 1247         n3     44    bbb     N1   1247 -0.59685800  14.010000   ; qtot -0.596900
 1248         c3     44    bbb     C1   1248 0.10137000  12.010000   ; qtot -0.495530
 1249         h1     44    bbb     H1   1249 0.04411300   1.008000   ; qtot -0.451417
 1250         h1     44    bbb     H2   1250 0.04411300   1.008000   ; qtot -0.407304
 1251         c3     44    bbb     C2   1251 0.10137000  12.010000   ; qtot -0.305934
 1252         h1     44    bbb     H3   1252 0.04411300   1.008000   ; qtot -0.261821
 1253         h1     44    bbb     H4   1253 0.04411300   1.008000   ; qtot -0.217708
 1254         c3     44    bbb     C3   1254 -0.00195300  12.010000   ; qtot -0.219661
 1255         h1     44    bbb     H5   1255 0.05064400   1.008000   ; qtot -0.169017
 1256         h1     44    bbb     H6   1256 0.05064400   1.008000   ; qtot -0.118373
 1257         c3     44    bbb     C4   1257 -0.01612100  12.010000   ; qtot -0.134494
 1258         hc     44    bbb     H7   1258 0.04936100   1.008000   ; qtot -0.085133
 1259         hc     44    bbb     H8   1259 0.04936100   1.008000   ; qtot -0.035772
 1260         c3     44    bbb     C5   1260 0.11363000  12.010000   ; qtot 0.077858
 1261         hc     44    bbb     H9   1261 0.06265900   1.008000   ; qtot 0.140517
 1262         hc     44    bbb    H10   1262 0.06265900   1.008000   ; qtot 0.203176
 1263         c3     44    bbb     C6   1263 0.11363000  12.010000   ; qtot 0.316806
 1264         hc     44    bbb    H11   1264 0.06265900   1.008000   ; qtot 0.379465
 1265         hc     44    bbb    H12   1265 0.06265900   1.008000   ; qtot 0.442124
 1266         c3     44    bbb     C7   1266 0.05858200  12.010000   ; qtot 0.500706
 1267         h1     44    bbb    H13   1267 0.06123400   1.008000   ; qtot 0.561940
 1268         h1     44    bbb    H14   1268 0.06123400   1.008000   ; qtot 0.623174
 1269         c3     44    bbb     C8   1269 -0.72423400  12.010000   ; qtot -0.101060
 1270         h1     44    bbb    H15   1270 0.25637600   1.008000   ; qtot 0.155316
 1271         h1     44    bbb    H16   1271 0.25637600   1.008000   ; qtot 0.411692
 1272         c3     44    bbb     C9   1272 -0.72423400  12.010000   ; qtot -0.312542
 1273         h1     44    bbb    H17   1273 0.25637600   1.008000   ; qtot -0.056166
 1274         h1     44    bbb    H18   1274 0.25637600   1.008000   ; qtot 0.200210
 1275         os     44    bbb     O1   1275 -0.20025300  16.000000   ; qtot -0.000043
; residue   45 bbb rtp bbb q -0.0
 1276         n3     45    bbb     N1   1276 -0.59685800  14.010000   ; qtot -0.596901
 1277         c3     45    bbb     C1   1277 0.10137000  12.010000   ; qtot -0.495531
 1278         h1     45    bbb     H1   1278 0.04411300   1.008000   ; qtot -0.451418
 1279         h1     45    bbb     H2   1279 0.04411300   1.008000   ; qtot -0.407305
 1280         c3     45    bbb     C2   1280 0.10137000  12.010000   ; qtot -0.305935
 1281         h1     45    bbb     H3   1281 0.04411300   1.008000   ; qtot -0.261822
 1282         h1     45    bbb     H4   1282 0.04411300   1.008000   ; qtot -0.217709
 1283         c3     45    bbb     C3   1283 -0.00195300  12.010000   ; qtot -0.219662
 1284         h1     45    bbb     H5   1284 0.05064400   1.008000   ; qtot -0.169018
 1285         h1     45    bbb     H6   1285 0.05064400   1.008000   ; qtot -0.118374
 1286         c3     45    bbb     C4   1286 -0.01612100  12.010000   ; qtot -0.134495
 1287         hc     45    bbb     H7   1287 0.04936100   1.008000   ; qtot -0.085134
 1288         hc     45    bbb     H8   1288 0.04936100   1.008000   ; qtot -0.035773
 1289         c3     45    bbb     C5   1289 0.11363000  12.010000   ; qtot 0.077857
 1290         hc     45    bbb     H9   1290 0.06265900   1.008000   ; qtot 0.140516
 1291         hc     45    bbb    H10   1291 0.06265900   1.008000   ; qtot 0.203175
 1292         c3     45    bbb     C6   1292 0.11363000  12.010000   ; qtot 0.316805
 1293         hc     45    bbb    H11   1293 0.06265900   1.008000   ; qtot 0.379464
 1294         hc     45    bbb    H12   1294 0.06265900   1.008000   ; qtot 0.442123
 1295         c3     45    bbb     C7   1295 0.05858200  12.010000   ; qtot 0.500705
 1296         h1     45    bbb    H13   1296 0.06123400   1.008000   ; qtot 0.561939
 1297         h1     45    bbb    H14   1297 0.06123400   1.008000   ; qtot 0.623173
 1298         c3     45    bbb     C8   1298 -0.72423400  12.010000   ; qtot -0.101061
 1299         h1     45    bbb    H15   1299 0.25637600   1.008000   ; qtot 0.155315
 1300         h1     45    bbb    H16   1300 0.25637600   1.008000   ; qtot 0.411691
 1301         c3     45    bbb     C9   1301 -0.72423400  12.010000   ; qtot -0.312543
 1302         h1     45    bbb    H17   1302 0.25637600   1.008000   ; qtot -0.056167
 1303         h1     45    bbb    H18   1303 0.25637600   1.008000   ; qtot 0.200209
 1304         os     45    bbb     O1   1304 -0.20025300  16.000000   ; qtot -0.000044
; residue   46 bbb rtp bbb q -0.0
 1305         n3     46    bbb     N1   1305 -0.59685800  14.010000   ; qtot -0.596902
 1306         c3     46    bbb     C1   1306 0.10137000  12.010000   ; qtot -0.495532
 1307         h1     46    bbb     H1   1307 0.04411300   1.008000   ; qtot -0.451419
 1308         h1     46    bbb     H2   1308 0.04411300   1.008000   ; qtot -0.407306
 1309         c3     46    bbb     C2   1309 0.10137000  12.010000   ; qtot -0.305936
 1310         h1     46    bbb     H3   1310 0.04411300   1.008000   ; qtot -0.261823
 1311         h1     46    bbb     H4   1311 0.04411300   1.008000   ; qtot -0.217710
 1312         c3     46    bbb     C3   1312 -0.00195300  12.010000   ; qtot -0.219663
 1313         h1     46    bbb     H5   1313 0.05064400   1.008000   ; qtot -0.169019
 1314         h1     46    bbb     H6   1314 0.05064400   1.008000   ; qtot -0.118375
 1315         c3     46    bbb     C4   1315 -0.01612100  12.010000   ; qtot -0.134496
 1316         hc     46    bbb     H7   1316 0.04936100   1.008000   ; qtot -0.085135
 1317         hc     46    bbb     H8   1317 0.04936100   1.008000   ; qtot -0.035774
 1318         c3     46    bbb     C5   1318 0.11363000  12.010000   ; qtot 0.077856
 1319         hc     46    bbb     H9   1319 0.06265900   1.008000   ; qtot 0.140515
 1320         hc     46    bbb    H10   1320 0.06265900   1.008000   ; qtot 0.203174
 1321         c3     46    bbb     C6   1321 0.11363000  12.010000   ; qtot 0.316804
 1322         hc     46    bbb    H11   1322 0.06265900   1.008000   ; qtot 0.379463
 1323         hc     46    bbb    H12   1323 0.06265900   1.008000   ; qtot 0.442122
 1324         c3     46    bbb     C7   1324 0.05858200  12.010000   ; qtot 0.500704
 1325         h1     46    bbb    H13   1325 0.06123400   1.008000   ; qtot 0.561938
 1326         h1     46    bbb    H14   1326 0.06123400   1.008000   ; qtot 0.623172
 1327         c3     46    bbb     C8   1327 -0.72423400  12.010000   ; qtot -0.101062
 1328         h1     46    bbb    H15   1328 0.25637600   1.008000   ; qtot 0.155314
 1329         h1     46    bbb    H16   1329 0.25637600   1.008000   ; qtot 0.411690
 1330         c3     46    bbb     C9   1330 -0.72423400  12.010000   ; qtot -0.312544
 1331         h1     46    bbb    H17   1331 0.25637600   1.008000   ; qtot -0.056168
 1332         h1     46    bbb    H18   1332 0.25637600   1.008000   ; qtot 0.200208
 1333         os     46    bbb     O1   1333 -0.20025300  16.000000   ; qtot -0.000045
; residue   47 bbb rtp bbb q -0.0
 1334         n3     47    bbb     N1   1334 -0.59685800  14.010000   ; qtot -0.596903
 1335         c3     47    bbb     C1   1335 0.10137000  12.010000   ; qtot -0.495533
 1336         h1     47    bbb     H1   1336 0.04411300   1.008000   ; qtot -0.451420
 1337         h1     47    bbb     H2   1337 0.04411300   1.008000   ; qtot -0.407307
 1338         c3     47    bbb     C2   1338 0.10137000  12.010000   ; qtot -0.305937
 1339         h1     47    bbb     H3   1339 0.04411300   1.008000   ; qtot -0.261824
 1340         h1     47    bbb     H4   1340 0.04411300   1.008000   ; qtot -0.217711
 1341         c3     47    bbb     C3   1341 -0.00195300  12.010000   ; qtot -0.219664
 1342         h1     47    bbb     H5   1342 0.05064400   1.008000   ; qtot -0.169020
 1343         h1     47    bbb     H6   1343 0.05064400   1.008000   ; qtot -0.118376
 1344         c3     47    bbb     C4   1344 -0.01612100  12.010000   ; qtot -0.134497
 1345         hc     47    bbb     H7   1345 0.04936100   1.008000   ; qtot -0.085136
 1346         hc     47    bbb     H8   1346 0.04936100   1.008000   ; qtot -0.035775
 1347         c3     47    bbb     C5   1347 0.11363000  12.010000   ; qtot 0.077855
 1348         hc     47    bbb     H9   1348 0.06265900   1.008000   ; qtot 0.140514
 1349         hc     47    bbb    H10   1349 0.06265900   1.008000   ; qtot 0.203173
 1350         c3     47    bbb     C6   1350 0.11363000  12.010000   ; qtot 0.316803
 1351         hc     47    bbb    H11   1351 0.06265900   1.008000   ; qtot 0.379462
 1352         hc     47    bbb    H12   1352 0.06265900   1.008000   ; qtot 0.442121
 1353         c3     47    bbb     C7   1353 0.05858200  12.010000   ; qtot 0.500703
 1354         h1     47    bbb    H13   1354 0.06123400   1.008000   ; qtot 0.561937
 1355         h1     47    bbb    H14   1355 0.06123400   1.008000   ; qtot 0.623171
 1356         c3     47    bbb     C8   1356 -0.72423400  12.010000   ; qtot -0.101063
 1357         h1     47    bbb    H15   1357 0.25637600   1.008000   ; qtot 0.155313
 1358         h1     47    bbb    H16   1358 0.25637600   1.008000   ; qtot 0.411689
 1359         c3     47    bbb     C9   1359 -0.72423400  12.010000   ; qtot -0.312545
 1360         h1     47    bbb    H17   1360 0.25637600   1.008000   ; qtot -0.056169
 1361         h1     47    bbb    H18   1361 0.25637600   1.008000   ; qtot 0.200207
 1362         os     47    bbb     O1   1362 -0.20025300  16.000000   ; qtot -0.000046
; residue   48 bbb rtp bbb q -0.0
 1363         n3     48    bbb     N1   1363 -0.59685800  14.010000   ; qtot -0.596904
 1364         c3     48    bbb     C1   1364 0.10137000  12.010000   ; qtot -0.495534
 1365         h1     48    bbb     H1   1365 0.04411300   1.008000   ; qtot -0.451421
 1366         h1     48    bbb     H2   1366 0.04411300   1.008000   ; qtot -0.407308
 1367         c3     48    bbb     C2   1367 0.10137000  12.010000   ; qtot -0.305938
 1368         h1     48    bbb     H3   1368 0.04411300   1.008000   ; qtot -0.261825
 1369         h1     48    bbb     H4   1369 0.04411300   1.008000   ; qtot -0.217712
 1370         c3     48    bbb     C3   1370 -0.00195300  12.010000   ; qtot -0.219665
 1371         h1     48    bbb     H5   1371 0.05064400   1.008000   ; qtot -0.169021
 1372         h1     48    bbb     H6   1372 0.05064400   1.008000   ; qtot -0.118377
 1373         c3     48    bbb     C4   1373 -0.01612100  12.010000   ; qtot -0.134498
 1374         hc     48    bbb     H7   1374 0.04936100   1.008000   ; qtot -0.085137
 1375         hc     48    bbb     H8   1375 0.04936100   1.008000   ; qtot -0.035776
 1376         c3     48    bbb     C5   1376 0.11363000  12.010000   ; qtot 0.077854
 1377         hc     48    bbb     H9   1377 0.06265900   1.008000   ; qtot 0.140513
 1378         hc     48    bbb    H10   1378 0.06265900   1.008000   ; qtot 0.203172
 1379         c3     48    bbb     C6   1379 0.11363000  12.010000   ; qtot 0.316802
 1380         hc     48    bbb    H11   1380 0.06265900   1.008000   ; qtot 0.379461
 1381         hc     48    bbb    H12   1381 0.06265900   1.008000   ; qtot 0.442120
 1382         c3     48    bbb     C7   1382 0.05858200  12.010000   ; qtot 0.500702
 1383         h1     48    bbb    H13   1383 0.06123400   1.008000   ; qtot 0.561936
 1384         h1     48    bbb    H14   1384 0.06123400   1.008000   ; qtot 0.623170
 1385         c3     48    bbb     C8   1385 -0.72423400  12.010000   ; qtot -0.101064
 1386         h1     48    bbb    H15   1386 0.25637600   1.008000   ; qtot 0.155312
 1387         h1     48    bbb    H16   1387 0.25637600   1.008000   ; qtot 0.411688
 1388         c3     48    bbb     C9   1388 -0.72423400  12.010000   ; qtot -0.312546
 1389         h1     48    bbb    H17   1389 0.25637600   1.008000   ; qtot -0.056170
 1390         h1     48    bbb    H18   1390 0.25637600   1.008000   ; qtot 0.200206
 1391         os     48    bbb     O1   1391 -0.20025300  16.000000   ; qtot -0.000047
; residue   49 bbb rtp bbb q -0.0
 1392         n3     49    bbb     N1   1392 -0.59685800  14.010000   ; qtot -0.596905
 1393         c3     49    bbb     C1   1393 0.10137000  12.010000   ; qtot -0.495535
 1394         h1     49    bbb     H1   1394 0.04411300   1.008000   ; qtot -0.451422
 1395         h1     49    bbb     H2   1395 0.04411300   1.008000   ; qtot -0.407309
 1396         c3     49    bbb     C2   1396 0.10137000  12.010000   ; qtot -0.305939
 1397         h1     49    bbb     H3   1397 0.04411300   1.008000   ; qtot -0.261826
 1398         h1     49    bbb     H4   1398 0.04411300   1.008000   ; qtot -0.217713
 1399         c3     49    bbb     C3   1399 -0.00195300  12.010000   ; qtot -0.219666
 1400         h1     49    bbb     H5   1400 0.05064400   1.008000   ; qtot -0.169022
 1401         h1     49    bbb     H6   1401 0.05064400   1.008000   ; qtot -0.118378
 1402         c3     49    bbb     C4   1402 -0.01612100  12.010000   ; qtot -0.134499
 1403         hc     49    bbb     H7   1403 0.04936100   1.008000   ; qtot -0.085138
 1404         hc     49    bbb     H8   1404 0.04936100   1.008000   ; qtot -0.035777
 1405         c3     49    bbb     C5   1405 0.11363000  12.010000   ; qtot 0.077853
 1406         hc     49    bbb     H9   1406 0.06265900   1.008000   ; qtot 0.140512
 1407         hc     49    bbb    H10   1407 0.06265900   1.008000   ; qtot 0.203171
 1408         c3     49    bbb     C6   1408 0.11363000  12.010000   ; qtot 0.316801
 1409         hc     49    bbb    H11   1409 0.06265900   1.008000   ; qtot 0.379460
 1410         hc     49    bbb    H12   1410 0.06265900   1.008000   ; qtot 0.442119
 1411         c3     49    bbb     C7   1411 0.05858200  12.010000   ; qtot 0.500701
 1412         h1     49    bbb    H13   1412 0.06123400   1.008000   ; qtot 0.561935
 1413         h1     49    bbb    H14   1413 0.06123400   1.008000   ; qtot 0.623169
 1414         c3     49    bbb     C8   1414 -0.72423400  12.010000   ; qtot -0.101065
 1415         h1     49    bbb    H15   1415 0.25637600   1.008000   ; qtot 0.155311
 1416         h1     49    bbb    H16   1416 0.25637600   1.008000   ; qtot 0.411687
 1417         c3     49    bbb     C9   1417 -0.72423400  12.010000   ; qtot -0.312547
 1418         h1     49    bbb    H17   1418 0.25637600   1.008000   ; qtot -0.056171
 1419         h1     49    bbb    H18   1419 0.25637600   1.008000   ; qtot 0.200205
 1420         os     49    bbb     O1   1420 -0.20025300  16.000000   ; qtot -0.000048
; residue   50 bbb rtp bbb q -0.0
 1421         n3     50    bbb     N1   1421 -0.59685800  14.010000   ; qtot -0.596906
 1422         c3     50    bbb     C1   1422 0.10137000  12.010000   ; qtot -0.495536
 1423         h1     50    bbb     H1   1423 0.04411300   1.008000   ; qtot -0.451423
 1424         h1     50    bbb     H2   1424 0.04411300   1.008000   ; qtot -0.407310
 1425         c3     50    bbb     C2   1425 0.10137000  12.010000   ; qtot -0.305940
 1426         h1     50    bbb     H3   1426 0.04411300   1.008000   ; qtot -0.261827
 1427         h1     50    bbb     H4   1427 0.04411300   1.008000   ; qtot -0.217714
 1428         c3     50    bbb     C3   1428 -0.00195300  12.010000   ; qtot -0.219667
 1429         h1     50    bbb     H5   1429 0.05064400   1.008000   ; qtot -0.169023
 1430         h1     50    bbb     H6   1430 0.05064400   1.008000   ; qtot -0.118379
 1431         c3     50    bbb     C4   1431 -0.01612100  12.010000   ; qtot -0.134500
 1432         hc     50    bbb     H7   1432 0.04936100   1.008000   ; qtot -0.085139
 1433         hc     50    bbb     H8   1433 0.04936100   1.008000   ; qtot -0.035778
 1434         c3     50    bbb     C5   1434 0.11363000  12.010000   ; qtot 0.077852
 1435         hc     50    bbb     H9   1435 0.06265900   1.008000   ; qtot 0.140511
 1436         hc     50    bbb    H10   1436 0.06265900   1.008000   ; qtot 0.203170
 1437         c3     50    bbb     C6   1437 0.11363000  12.010000   ; qtot 0.316800
 1438         hc     50    bbb    H11   1438 0.06265900   1.008000   ; qtot 0.379459
 1439         hc     50    bbb    H12   1439 0.06265900   1.008000   ; qtot 0.442118
 1440         c3     50    bbb     C7   1440 0.05858200  12.010000   ; qtot 0.500700
 1441         h1     50    bbb    H13   1441 0.06123400   1.008000   ; qtot 0.561934
 1442         h1     50    bbb    H14   1442 0.06123400   1.008000   ; qtot 0.623168
 1443         c3     50    bbb     C8   1443 -0.72423400  12.010000   ; qtot -0.101066
 1444         h1     50    bbb    H15   1444 0.25637600   1.008000   ; qtot 0.155310
 1445         h1     50    bbb    H16   1445 0.25637600   1.008000   ; qtot 0.411686
 1446         c3     50    bbb     C9   1446 -0.72423400  12.010000   ; qtot -0.312548
 1447         h1     50    bbb    H17   1447 0.25637600   1.008000   ; qtot -0.056172
 1448         h1     50    bbb    H18   1448 0.25637600   1.008000   ; qtot 0.200204
 1449         os     50    bbb     O1   1449 -0.20025300  16.000000   ; qtot -0.000049
; residue   51 bbb rtp bbb q -0.0
 1450         n3     51    bbb     N1   1450 -0.59685800  14.010000   ; qtot -0.596907
 1451         c3     51    bbb     C1   1451 0.10137000  12.010000   ; qtot -0.495537
 1452         h1     51    bbb     H1   1452 0.04411300   1.008000   ; qtot -0.451424
 1453         h1     51    bbb     H2   1453 0.04411300   1.008000   ; qtot -0.407311
 1454         c3     51    bbb     C2   1454 0.10137000  12.010000   ; qtot -0.305941
 1455         h1     51    bbb     H3   1455 0.04411300   1.008000   ; qtot -0.261828
 1456         h1     51    bbb     H4   1456 0.04411300   1.008000   ; qtot -0.217715
 1457         c3     51    bbb     C3   1457 -0.00195300  12.010000   ; qtot -0.219668
 1458         h1     51    bbb     H5   1458 0.05064400   1.008000   ; qtot -0.169024
 1459         h1     51    bbb     H6   1459 0.05064400   1.008000   ; qtot -0.118380
 1460         c3     51    bbb     C4   1460 -0.01612100  12.010000   ; qtot -0.134501
 1461         hc     51    bbb     H7   1461 0.04936100   1.008000   ; qtot -0.085140
 1462         hc     51    bbb     H8   1462 0.04936100   1.008000   ; qtot -0.035779
 1463         c3     51    bbb     C5   1463 0.11363000  12.010000   ; qtot 0.077851
 1464         hc     51    bbb     H9   1464 0.06265900   1.008000   ; qtot 0.140510
 1465         hc     51    bbb    H10   1465 0.06265900   1.008000   ; qtot 0.203169
 1466         c3     51    bbb     C6   1466 0.11363000  12.010000   ; qtot 0.316799
 1467         hc     51    bbb    H11   1467 0.06265900   1.008000   ; qtot 0.379458
 1468         hc     51    bbb    H12   1468 0.06265900   1.008000   ; qtot 0.442117
 1469         c3     51    bbb     C7   1469 0.05858200  12.010000   ; qtot 0.500699
 1470         h1     51    bbb    H13   1470 0.06123400   1.008000   ; qtot 0.561933
 1471         h1     51    bbb    H14   1471 0.06123400   1.008000   ; qtot 0.623167
 1472         c3     51    bbb     C8   1472 -0.72423400  12.010000   ; qtot -0.101067
 1473         h1     51    bbb    H15   1473 0.25637600   1.008000   ; qtot 0.155309
 1474         h1     51    bbb    H16   1474 0.25637600   1.008000   ; qtot 0.411685
 1475         c3     51    bbb     C9   1475 -0.72423400  12.010000   ; qtot -0.312549
 1476         h1     51    bbb    H17   1476 0.25637600   1.008000   ; qtot -0.056173
 1477         h1     51    bbb    H18   1477 0.25637600   1.008000   ; qtot 0.200203
 1478         os     51    bbb     O1   1478 -0.20025300  16.000000   ; qtot -0.000050
; residue   52 bbb rtp bbb q -0.0
 1479         n3     52    bbb     N1   1479 -0.59685800  14.010000   ; qtot -0.596908
 1480         c3     52    bbb     C1   1480 0.10137000  12.010000   ; qtot -0.495538
 1481         h1     52    bbb     H1   1481 0.04411300   1.008000   ; qtot -0.451425
 1482         h1     52    bbb     H2   1482 0.04411300   1.008000   ; qtot -0.407312
 1483         c3     52    bbb     C2   1483 0.10137000  12.010000   ; qtot -0.305942
 1484         h1     52    bbb     H3   1484 0.04411300   1.008000   ; qtot -0.261829
 1485         h1     52    bbb     H4   1485 0.04411300   1.008000   ; qtot -0.217716
 1486         c3     52    bbb     C3   1486 -0.00195300  12.010000   ; qtot -0.219669
 1487         h1     52    bbb     H5   1487 0.05064400   1.008000   ; qtot -0.169025
 1488         h1     52    bbb     H6   1488 0.05064400   1.008000   ; qtot -0.118381
 1489         c3     52    bbb     C4   1489 -0.01612100  12.010000   ; qtot -0.134502
 1490         hc     52    bbb     H7   1490 0.04936100   1.008000   ; qtot -0.085141
 1491         hc     52    bbb     H8   1491 0.04936100   1.008000   ; qtot -0.035780
 1492         c3     52    bbb     C5   1492 0.11363000  12.010000   ; qtot 0.077850
 1493         hc     52    bbb     H9   1493 0.06265900   1.008000   ; qtot 0.140509
 1494         hc     52    bbb    H10   1494 0.06265900   1.008000   ; qtot 0.203168
 1495         c3     52    bbb     C6   1495 0.11363000  12.010000   ; qtot 0.316798
 1496         hc     52    bbb    H11   1496 0.06265900   1.008000   ; qtot 0.379457
 1497         hc     52    bbb    H12   1497 0.06265900   1.008000   ; qtot 0.442116
 1498         c3     52    bbb     C7   1498 0.05858200  12.010000   ; qtot 0.500698
 1499         h1     52    bbb    H13   1499 0.06123400   1.008000   ; qtot 0.561932
 1500         h1     52    bbb    H14   1500 0.06123400   1.008000   ; qtot 0.623166
 1501         c3     52    bbb     C8   1501 -0.72423400  12.010000   ; qtot -0.101068
 1502         h1     52    bbb    H15   1502 0.25637600   1.008000   ; qtot 0.155308
 1503         h1     52    bbb    H16   1503 0.25637600   1.008000   ; qtot 0.411684
 1504         c3     52    bbb     C9   1504 -0.72423400  12.010000   ; qtot -0.312550
 1505         h1     52    bbb    H17   1505 0.25637600   1.008000   ; qtot -0.056174
 1506         h1     52    bbb    H18   1506 0.25637600   1.008000   ; qtot 0.200202
 1507         os     52    bbb     O1   1507 -0.20025300  16.000000   ; qtot -0.000051
; residue   53 bbb rtp bbb q -0.0
 1508         n3     53    bbb     N1   1508 -0.59685800  14.010000   ; qtot -0.596909
 1509         c3     53    bbb     C1   1509 0.10137000  12.010000   ; qtot -0.495539
 1510         h1     53    bbb     H1   1510 0.04411300   1.008000   ; qtot -0.451426
 1511         h1     53    bbb     H2   1511 0.04411300   1.008000   ; qtot -0.407313
 1512         c3     53    bbb     C2   1512 0.10137000  12.010000   ; qtot -0.305943
 1513         h1     53    bbb     H3   1513 0.04411300   1.008000   ; qtot -0.261830
 1514         h1     53    bbb     H4   1514 0.04411300   1.008000   ; qtot -0.217717
 1515         c3     53    bbb     C3   1515 -0.00195300  12.010000   ; qtot -0.219670
 1516         h1     53    bbb     H5   1516 0.05064400   1.008000   ; qtot -0.169026
 1517         h1     53    bbb     H6   1517 0.05064400   1.008000   ; qtot -0.118382
 1518         c3     53    bbb     C4   1518 -0.01612100  12.010000   ; qtot -0.134503
 1519         hc     53    bbb     H7   1519 0.04936100   1.008000   ; qtot -0.085142
 1520         hc     53    bbb     H8   1520 0.04936100   1.008000   ; qtot -0.035781
 1521         c3     53    bbb     C5   1521 0.11363000  12.010000   ; qtot 0.077849
 1522         hc     53    bbb     H9   1522 0.06265900   1.008000   ; qtot 0.140508
 1523         hc     53    bbb    H10   1523 0.06265900   1.008000   ; qtot 0.203167
 1524         c3     53    bbb     C6   1524 0.11363000  12.010000   ; qtot 0.316797
 1525         hc     53    bbb    H11   1525 0.06265900   1.008000   ; qtot 0.379456
 1526         hc     53    bbb    H12   1526 0.06265900   1.008000   ; qtot 0.442115
 1527         c3     53    bbb     C7   1527 0.05858200  12.010000   ; qtot 0.500697
 1528         h1     53    bbb    H13   1528 0.06123400   1.008000   ; qtot 0.561931
 1529         h1     53    bbb    H14   1529 0.06123400   1.008000   ; qtot 0.623165
 1530         c3     53    bbb     C8   1530 -0.72423400  12.010000   ; qtot -0.101069
 1531         h1     53    bbb    H15   1531 0.25637600   1.008000   ; qtot 0.155307
 1532         h1     53    bbb    H16   1532 0.25637600   1.008000   ; qtot 0.411683
 1533         c3     53    bbb     C9   1533 -0.72423400  12.010000   ; qtot -0.312551
 1534         h1     53    bbb    H17   1534 0.25637600   1.008000   ; qtot -0.056175
 1535         h1     53    bbb    H18   1535 0.25637600   1.008000   ; qtot 0.200201
 1536         os     53    bbb     O1   1536 -0.20025300  16.000000   ; qtot -0.000052
; residue   54 bbb rtp bbb q -0.0
 1537         n3     54    bbb     N1   1537 -0.59685800  14.010000   ; qtot -0.596910
 1538         c3     54    bbb     C1   1538 0.10137000  12.010000   ; qtot -0.495540
 1539         h1     54    bbb     H1   1539 0.04411300   1.008000   ; qtot -0.451427
 1540         h1     54    bbb     H2   1540 0.04411300   1.008000   ; qtot -0.407314
 1541         c3     54    bbb     C2   1541 0.10137000  12.010000   ; qtot -0.305944
 1542         h1     54    bbb     H3   1542 0.04411300   1.008000   ; qtot -0.261831
 1543         h1     54    bbb     H4   1543 0.04411300   1.008000   ; qtot -0.217718
 1544         c3     54    bbb     C3   1544 -0.00195300  12.010000   ; qtot -0.219671
 1545         h1     54    bbb     H5   1545 0.05064400   1.008000   ; qtot -0.169027
 1546         h1     54    bbb     H6   1546 0.05064400   1.008000   ; qtot -0.118383
 1547         c3     54    bbb     C4   1547 -0.01612100  12.010000   ; qtot -0.134504
 1548         hc     54    bbb     H7   1548 0.04936100   1.008000   ; qtot -0.085143
 1549         hc     54    bbb     H8   1549 0.04936100   1.008000   ; qtot -0.035782
 1550         c3     54    bbb     C5   1550 0.11363000  12.010000   ; qtot 0.077848
 1551         hc     54    bbb     H9   1551 0.06265900   1.008000   ; qtot 0.140507
 1552         hc     54    bbb    H10   1552 0.06265900   1.008000   ; qtot 0.203166
 1553         c3     54    bbb     C6   1553 0.11363000  12.010000   ; qtot 0.316796
 1554         hc     54    bbb    H11   1554 0.06265900   1.008000   ; qtot 0.379455
 1555         hc     54    bbb    H12   1555 0.06265900   1.008000   ; qtot 0.442114
 1556         c3     54    bbb     C7   1556 0.05858200  12.010000   ; qtot 0.500696
 1557         h1     54    bbb    H13   1557 0.06123400   1.008000   ; qtot 0.561930
 1558         h1     54    bbb    H14   1558 0.06123400   1.008000   ; qtot 0.623164
 1559         c3     54    bbb     C8   1559 -0.72423400  12.010000   ; qtot -0.101070
 1560         h1     54    bbb    H15   1560 0.25637600   1.008000   ; qtot 0.155306
 1561         h1     54    bbb    H16   1561 0.25637600   1.008000   ; qtot 0.411682
 1562         c3     54    bbb     C9   1562 -0.72423400  12.010000   ; qtot -0.312552
 1563         h1     54    bbb    H17   1563 0.25637600   1.008000   ; qtot -0.056176
 1564         h1     54    bbb    H18   1564 0.25637600   1.008000   ; qtot 0.200200
 1565         os     54    bbb     O1   1565 -0.20025300  16.000000   ; qtot -0.000053
; residue   55 bbb rtp bbb q -0.0
 1566         n3     55    bbb     N1   1566 -0.59685800  14.010000   ; qtot -0.596911
 1567         c3     55    bbb     C1   1567 0.10137000  12.010000   ; qtot -0.495541
 1568         h1     55    bbb     H1   1568 0.04411300   1.008000   ; qtot -0.451428
 1569         h1     55    bbb     H2   1569 0.04411300   1.008000   ; qtot -0.407315
 1570         c3     55    bbb     C2   1570 0.10137000  12.010000   ; qtot -0.305945
 1571         h1     55    bbb     H3   1571 0.04411300   1.008000   ; qtot -0.261832
 1572         h1     55    bbb     H4   1572 0.04411300   1.008000   ; qtot -0.217719
 1573         c3     55    bbb     C3   1573 -0.00195300  12.010000   ; qtot -0.219672
 1574         h1     55    bbb     H5   1574 0.05064400   1.008000   ; qtot -0.169028
 1575         h1     55    bbb     H6   1575 0.05064400   1.008000   ; qtot -0.118384
 1576         c3     55    bbb     C4   1576 -0.01612100  12.010000   ; qtot -0.134505
 1577         hc     55    bbb     H7   1577 0.04936100   1.008000   ; qtot -0.085144
 1578         hc     55    bbb     H8   1578 0.04936100   1.008000   ; qtot -0.035783
 1579         c3     55    bbb     C5   1579 0.11363000  12.010000   ; qtot 0.077847
 1580         hc     55    bbb     H9   1580 0.06265900   1.008000   ; qtot 0.140506
 1581         hc     55    bbb    H10   1581 0.06265900   1.008000   ; qtot 0.203165
 1582         c3     55    bbb     C6   1582 0.11363000  12.010000   ; qtot 0.316795
 1583         hc     55    bbb    H11   1583 0.06265900   1.008000   ; qtot 0.379454
 1584         hc     55    bbb    H12   1584 0.06265900   1.008000   ; qtot 0.442113
 1585         c3     55    bbb     C7   1585 0.05858200  12.010000   ; qtot 0.500695
 1586         h1     55    bbb    H13   1586 0.06123400   1.008000   ; qtot 0.561929
 1587         h1     55    bbb    H14   1587 0.06123400   1.008000   ; qtot 0.623163
 1588         c3     55    bbb     C8   1588 -0.72423400  12.010000   ; qtot -0.101071
 1589         h1     55    bbb    H15   1589 0.25637600   1.008000   ; qtot 0.155305
 1590         h1     55    bbb    H16   1590 0.25637600   1.008000   ; qtot 0.411681
 1591         c3     55    bbb     C9   1591 -0.72423400  12.010000   ; qtot -0.312553
 1592         h1     55    bbb    H17   1592 0.25637600   1.008000   ; qtot -0.056177
 1593         h1     55    bbb    H18   1593 0.25637600   1.008000   ; qtot 0.200199
 1594         os     55    bbb     O1   1594 -0.20025300  16.000000   ; qtot -0.000054
; residue   56 bbb rtp bbb q -0.0
 1595         n3     56    bbb     N1   1595 -0.59685800  14.010000   ; qtot -0.596912
 1596         c3     56    bbb     C1   1596 0.10137000  12.010000   ; qtot -0.495542
 1597         h1     56    bbb     H1   1597 0.04411300   1.008000   ; qtot -0.451429
 1598         h1     56    bbb     H2   1598 0.04411300   1.008000   ; qtot -0.407316
 1599         c3     56    bbb     C2   1599 0.10137000  12.010000   ; qtot -0.305946
 1600         h1     56    bbb     H3   1600 0.04411300   1.008000   ; qtot -0.261833
 1601         h1     56    bbb     H4   1601 0.04411300   1.008000   ; qtot -0.217720
 1602         c3     56    bbb     C3   1602 -0.00195300  12.010000   ; qtot -0.219673
 1603         h1     56    bbb     H5   1603 0.05064400   1.008000   ; qtot -0.169029
 1604         h1     56    bbb     H6   1604 0.05064400   1.008000   ; qtot -0.118385
 1605         c3     56    bbb     C4   1605 -0.01612100  12.010000   ; qtot -0.134506
 1606         hc     56    bbb     H7   1606 0.04936100   1.008000   ; qtot -0.085145
 1607         hc     56    bbb     H8   1607 0.04936100   1.008000   ; qtot -0.035784
 1608         c3     56    bbb     C5   1608 0.11363000  12.010000   ; qtot 0.077846
 1609         hc     56    bbb     H9   1609 0.06265900   1.008000   ; qtot 0.140505
 1610         hc     56    bbb    H10   1610 0.06265900   1.008000   ; qtot 0.203164
 1611         c3     56    bbb     C6   1611 0.11363000  12.010000   ; qtot 0.316794
 1612         hc     56    bbb    H11   1612 0.06265900   1.008000   ; qtot 0.379453
 1613         hc     56    bbb    H12   1613 0.06265900   1.008000   ; qtot 0.442112
 1614         c3     56    bbb     C7   1614 0.05858200  12.010000   ; qtot 0.500694
 1615         h1     56    bbb    H13   1615 0.06123400   1.008000   ; qtot 0.561928
 1616         h1     56    bbb    H14   1616 0.06123400   1.008000   ; qtot 0.623162
 1617         c3     56    bbb     C8   1617 -0.72423400  12.010000   ; qtot -0.101072
 1618         h1     56    bbb    H15   1618 0.25637600   1.008000   ; qtot 0.155304
 1619         h1     56    bbb    H16   1619 0.25637600   1.008000   ; qtot 0.411680
 1620         c3     56    bbb     C9   1620 -0.72423400  12.010000   ; qtot -0.312554
 1621         h1     56    bbb    H17   1621 0.25637600   1.008000   ; qtot -0.056178
 1622         h1     56    bbb    H18   1622 0.25637600   1.008000   ; qtot 0.200198
 1623         os     56    bbb     O1   1623 -0.20025300  16.000000   ; qtot -0.000055
; residue   57 bbb rtp bbb q -0.0
 1624         n3     57    bbb     N1   1624 -0.59685800  14.010000   ; qtot -0.596913
 1625         c3     57    bbb     C1   1625 0.10137000  12.010000   ; qtot -0.495543
 1626         h1     57    bbb     H1   1626 0.04411300   1.008000   ; qtot -0.451430
 1627         h1     57    bbb     H2   1627 0.04411300   1.008000   ; qtot -0.407317
 1628         c3     57    bbb     C2   1628 0.10137000  12.010000   ; qtot -0.305947
 1629         h1     57    bbb     H3   1629 0.04411300   1.008000   ; qtot -0.261834
 1630         h1     57    bbb     H4   1630 0.04411300   1.008000   ; qtot -0.217721
 1631         c3     57    bbb     C3   1631 -0.00195300  12.010000   ; qtot -0.219674
 1632         h1     57    bbb     H5   1632 0.05064400   1.008000   ; qtot -0.169030
 1633         h1     57    bbb     H6   1633 0.05064400   1.008000   ; qtot -0.118386
 1634         c3     57    bbb     C4   1634 -0.01612100  12.010000   ; qtot -0.134507
 1635         hc     57    bbb     H7   1635 0.04936100   1.008000   ; qtot -0.085146
 1636         hc     57    bbb     H8   1636 0.04936100   1.008000   ; qtot -0.035785
 1637         c3     57    bbb     C5   1637 0.11363000  12.010000   ; qtot 0.077845
 1638         hc     57    bbb     H9   1638 0.06265900   1.008000   ; qtot 0.140504
 1639         hc     57    bbb    H10   1639 0.06265900   1.008000   ; qtot 0.203163
 1640         c3     57    bbb     C6   1640 0.11363000  12.010000   ; qtot 0.316793
 1641         hc     57    bbb    H11   1641 0.06265900   1.008000   ; qtot 0.379452
 1642         hc     57    bbb    H12   1642 0.06265900   1.008000   ; qtot 0.442111
 1643         c3     57    bbb     C7   1643 0.05858200  12.010000   ; qtot 0.500693
 1644         h1     57    bbb    H13   1644 0.06123400   1.008000   ; qtot 0.561927
 1645         h1     57    bbb    H14   1645 0.06123400   1.008000   ; qtot 0.623161
 1646         c3     57    bbb     C8   1646 -0.72423400  12.010000   ; qtot -0.101073
 1647         h1     57    bbb    H15   1647 0.25637600   1.008000   ; qtot 0.155303
 1648         h1     57    bbb    H16   1648 0.25637600   1.008000   ; qtot 0.411679
 1649         c3     57    bbb     C9   1649 -0.72423400  12.010000   ; qtot -0.312555
 1650         h1     57    bbb    H17   1650 0.25637600   1.008000   ; qtot -0.056179
 1651         h1     57    bbb    H18   1651 0.25637600   1.008000   ; qtot 0.200197
 1652         os     57    bbb     O1   1652 -0.20025300  16.000000   ; qtot -0.000056
; residue   58 bbb rtp bbb q -0.0
 1653         n3     58    bbb     N1   1653 -0.59685800  14.010000   ; qtot -0.596914
 1654         c3     58    bbb     C1   1654 0.10137000  12.010000   ; qtot -0.495544
 1655         h1     58    bbb     H1   1655 0.04411300   1.008000   ; qtot -0.451431
 1656         h1     58    bbb     H2   1656 0.04411300   1.008000   ; qtot -0.407318
 1657         c3     58    bbb     C2   1657 0.10137000  12.010000   ; qtot -0.305948
 1658         h1     58    bbb     H3   1658 0.04411300   1.008000   ; qtot -0.261835
 1659         h1     58    bbb     H4   1659 0.04411300   1.008000   ; qtot -0.217722
 1660         c3     58    bbb     C3   1660 -0.00195300  12.010000   ; qtot -0.219675
 1661         h1     58    bbb     H5   1661 0.05064400   1.008000   ; qtot -0.169031
 1662         h1     58    bbb     H6   1662 0.05064400   1.008000   ; qtot -0.118387
 1663         c3     58    bbb     C4   1663 -0.01612100  12.010000   ; qtot -0.134508
 1664         hc     58    bbb     H7   1664 0.04936100   1.008000   ; qtot -0.085147
 1665         hc     58    bbb     H8   1665 0.04936100   1.008000   ; qtot -0.035786
 1666         c3     58    bbb     C5   1666 0.11363000  12.010000   ; qtot 0.077844
 1667         hc     58    bbb     H9   1667 0.06265900   1.008000   ; qtot 0.140503
 1668         hc     58    bbb    H10   1668 0.06265900   1.008000   ; qtot 0.203162
 1669         c3     58    bbb     C6   1669 0.11363000  12.010000   ; qtot 0.316792
 1670         hc     58    bbb    H11   1670 0.06265900   1.008000   ; qtot 0.379451
 1671         hc     58    bbb    H12   1671 0.06265900   1.008000   ; qtot 0.442110
 1672         c3     58    bbb     C7   1672 0.05858200  12.010000   ; qtot 0.500692
 1673         h1     58    bbb    H13   1673 0.06123400   1.008000   ; qtot 0.561926
 1674         h1     58    bbb    H14   1674 0.06123400   1.008000   ; qtot 0.623160
 1675         c3     58    bbb     C8   1675 -0.72423400  12.010000   ; qtot -0.101074
 1676         h1     58    bbb    H15   1676 0.25637600   1.008000   ; qtot 0.155302
 1677         h1     58    bbb    H16   1677 0.25637600   1.008000   ; qtot 0.411678
 1678         c3     58    bbb     C9   1678 -0.72423400  12.010000   ; qtot -0.312556
 1679         h1     58    bbb    H17   1679 0.25637600   1.008000   ; qtot -0.056180
 1680         h1     58    bbb    H18   1680 0.25637600   1.008000   ; qtot 0.200196
 1681         os     58    bbb     O1   1681 -0.20025300  16.000000   ; qtot -0.000057
; residue   59 bbb rtp bbb q -0.0
 1682         n3     59    bbb     N1   1682 -0.59685800  14.010000   ; qtot -0.596915
 1683         c3     59    bbb     C1   1683 0.10137000  12.010000   ; qtot -0.495545
 1684         h1     59    bbb     H1   1684 0.04411300   1.008000   ; qtot -0.451432
 1685         h1     59    bbb     H2   1685 0.04411300   1.008000   ; qtot -0.407319
 1686         c3     59    bbb     C2   1686 0.10137000  12.010000   ; qtot -0.305949
 1687         h1     59    bbb     H3   1687 0.04411300   1.008000   ; qtot -0.261836
 1688         h1     59    bbb     H4   1688 0.04411300   1.008000   ; qtot -0.217723
 1689         c3     59    bbb     C3   1689 -0.00195300  12.010000   ; qtot -0.219676
 1690         h1     59    bbb     H5   1690 0.05064400   1.008000   ; qtot -0.169032
 1691         h1     59    bbb     H6   1691 0.05064400   1.008000   ; qtot -0.118388
 1692         c3     59    bbb     C4   1692 -0.01612100  12.010000   ; qtot -0.134509
 1693         hc     59    bbb     H7   1693 0.04936100   1.008000   ; qtot -0.085148
 1694         hc     59    bbb     H8   1694 0.04936100   1.008000   ; qtot -0.035787
 1695         c3     59    bbb     C5   1695 0.11363000  12.010000   ; qtot 0.077843
 1696         hc     59    bbb     H9   1696 0.06265900   1.008000   ; qtot 0.140502
 1697         hc     59    bbb    H10   1697 0.06265900   1.008000   ; qtot 0.203161
 1698         c3     59    bbb     C6   1698 0.11363000  12.010000   ; qtot 0.316791
 1699         hc     59    bbb    H11   1699 0.06265900   1.008000   ; qtot 0.379450
 1700         hc     59    bbb    H12   1700 0.06265900   1.008000   ; qtot 0.442109
 1701         c3     59    bbb     C7   1701 0.05858200  12.010000   ; qtot 0.500691
 1702         h1     59    bbb    H13   1702 0.06123400   1.008000   ; qtot 0.561925
 1703         h1     59    bbb    H14   1703 0.06123400   1.008000   ; qtot 0.623159
 1704         c3     59    bbb     C8   1704 -0.72423400  12.010000   ; qtot -0.101075
 1705         h1     59    bbb    H15   1705 0.25637600   1.008000   ; qtot 0.155301
 1706         h1     59    bbb    H16   1706 0.25637600   1.008000   ; qtot 0.411677
 1707         c3     59    bbb     C9   1707 -0.72423400  12.010000   ; qtot -0.312557
 1708         h1     59    bbb    H17   1708 0.25637600   1.008000   ; qtot -0.056181
 1709         h1     59    bbb    H18   1709 0.25637600   1.008000   ; qtot 0.200195
 1710         os     59    bbb     O1   1710 -0.20025300  16.000000   ; qtot -0.000058
; residue   60 bbb rtp bbb q -0.0
 1711         n3     60    bbb     N1   1711 -0.59685800  14.010000   ; qtot -0.596916
 1712         c3     60    bbb     C1   1712 0.10137000  12.010000   ; qtot -0.495546
 1713         h1     60    bbb     H1   1713 0.04411300   1.008000   ; qtot -0.451433
 1714         h1     60    bbb     H2   1714 0.04411300   1.008000   ; qtot -0.407320
 1715         c3     60    bbb     C2   1715 0.10137000  12.010000   ; qtot -0.305950
 1716         h1     60    bbb     H3   1716 0.04411300   1.008000   ; qtot -0.261837
 1717         h1     60    bbb     H4   1717 0.04411300   1.008000   ; qtot -0.217724
 1718         c3     60    bbb     C3   1718 -0.00195300  12.010000   ; qtot -0.219677
 1719         h1     60    bbb     H5   1719 0.05064400   1.008000   ; qtot -0.169033
 1720         h1     60    bbb     H6   1720 0.05064400   1.008000   ; qtot -0.118389
 1721         c3     60    bbb     C4   1721 -0.01612100  12.010000   ; qtot -0.134510
 1722         hc     60    bbb     H7   1722 0.04936100   1.008000   ; qtot -0.085149
 1723         hc     60    bbb     H8   1723 0.04936100   1.008000   ; qtot -0.035788
 1724         c3     60    bbb     C5   1724 0.11363000  12.010000   ; qtot 0.077842
 1725         hc     60    bbb     H9   1725 0.06265900   1.008000   ; qtot 0.140501
 1726         hc     60    bbb    H10   1726 0.06265900   1.008000   ; qtot 0.203160
 1727         c3     60    bbb     C6   1727 0.11363000  12.010000   ; qtot 0.316790
 1728         hc     60    bbb    H11   1728 0.06265900   1.008000   ; qtot 0.379449
 1729         hc     60    bbb    H12   1729 0.06265900   1.008000   ; qtot 0.442108
 1730         c3     60    bbb     C7   1730 0.05858200  12.010000   ; qtot 0.500690
 1731         h1     60    bbb    H13   1731 0.06123400   1.008000   ; qtot 0.561924
 1732         h1     60    bbb    H14   1732 0.06123400   1.008000   ; qtot 0.623158
 1733         c3     60    bbb     C8   1733 -0.72423400  12.010000   ; qtot -0.101076
 1734         h1     60    bbb    H15   1734 0.25637600   1.008000   ; qtot 0.155300
 1735         h1     60    bbb    H16   1735 0.25637600   1.008000   ; qtot 0.411676
 1736         c3     60    bbb     C9   1736 -0.72423400  12.010000   ; qtot -0.312558
 1737         h1     60    bbb    H17   1737 0.25637600   1.008000   ; qtot -0.056182
 1738         h1     60    bbb    H18   1738 0.25637600   1.008000   ; qtot 0.200194
 1739         os     60    bbb     O1   1739 -0.20025300  16.000000   ; qtot -0.000059
; residue   61 bbb rtp bbb q -0.0
 1740         n3     61    bbb     N1   1740 -0.59685800  14.010000   ; qtot -0.596917
 1741         c3     61    bbb     C1   1741 0.10137000  12.010000   ; qtot -0.495547
 1742         h1     61    bbb     H1   1742 0.04411300   1.008000   ; qtot -0.451434
 1743         h1     61    bbb     H2   1743 0.04411300   1.008000   ; qtot -0.407321
 1744         c3     61    bbb     C2   1744 0.10137000  12.010000   ; qtot -0.305951
 1745         h1     61    bbb     H3   1745 0.04411300   1.008000   ; qtot -0.261838
 1746         h1     61    bbb     H4   1746 0.04411300   1.008000   ; qtot -0.217725
 1747         c3     61    bbb     C3   1747 -0.00195300  12.010000   ; qtot -0.219678
 1748         h1     61    bbb     H5   1748 0.05064400   1.008000   ; qtot -0.169034
 1749         h1     61    bbb     H6   1749 0.05064400   1.008000   ; qtot -0.118390
 1750         c3     61    bbb     C4   1750 -0.01612100  12.010000   ; qtot -0.134511
 1751         hc     61    bbb     H7   1751 0.04936100   1.008000   ; qtot -0.085150
 1752         hc     61    bbb     H8   1752 0.04936100   1.008000   ; qtot -0.035789
 1753         c3     61    bbb     C5   1753 0.11363000  12.010000   ; qtot 0.077841
 1754         hc     61    bbb     H9   1754 0.06265900   1.008000   ; qtot 0.140500
 1755         hc     61    bbb    H10   1755 0.06265900   1.008000   ; qtot 0.203159
 1756         c3     61    bbb     C6   1756 0.11363000  12.010000   ; qtot 0.316789
 1757         hc     61    bbb    H11   1757 0.06265900   1.008000   ; qtot 0.379448
 1758         hc     61    bbb    H12   1758 0.06265900   1.008000   ; qtot 0.442107
 1759         c3     61    bbb     C7   1759 0.05858200  12.010000   ; qtot 0.500689
 1760         h1     61    bbb    H13   1760 0.06123400   1.008000   ; qtot 0.561923
 1761         h1     61    bbb    H14   1761 0.06123400   1.008000   ; qtot 0.623157
 1762         c3     61    bbb     C8   1762 -0.72423400  12.010000   ; qtot -0.101077
 1763         h1     61    bbb    H15   1763 0.25637600   1.008000   ; qtot 0.155299
 1764         h1     61    bbb    H16   1764 0.25637600   1.008000   ; qtot 0.411675
 1765         c3     61    bbb     C9   1765 -0.72423400  12.010000   ; qtot -0.312559
 1766         h1     61    bbb    H17   1766 0.25637600   1.008000   ; qtot -0.056183
 1767         h1     61    bbb    H18   1767 0.25637600   1.008000   ; qtot 0.200193
 1768         os     61    bbb     O1   1768 -0.20025300  16.000000   ; qtot -0.000060
; residue   62 bbb rtp bbb q -0.0
 1769         n3     62    bbb     N1   1769 -0.59685800  14.010000   ; qtot -0.596918
 1770         c3     62    bbb     C1   1770 0.10137000  12.010000   ; qtot -0.495548
 1771         h1     62    bbb     H1   1771 0.04411300   1.008000   ; qtot -0.451435
 1772         h1     62    bbb     H2   1772 0.04411300   1.008000   ; qtot -0.407322
 1773         c3     62    bbb     C2   1773 0.10137000  12.010000   ; qtot -0.305952
 1774         h1     62    bbb     H3   1774 0.04411300   1.008000   ; qtot -0.261839
 1775         h1     62    bbb     H4   1775 0.04411300   1.008000   ; qtot -0.217726
 1776         c3     62    bbb     C3   1776 -0.00195300  12.010000   ; qtot -0.219679
 1777         h1     62    bbb     H5   1777 0.05064400   1.008000   ; qtot -0.169035
 1778         h1     62    bbb     H6   1778 0.05064400   1.008000   ; qtot -0.118391
 1779         c3     62    bbb     C4   1779 -0.01612100  12.010000   ; qtot -0.134512
 1780         hc     62    bbb     H7   1780 0.04936100   1.008000   ; qtot -0.085151
 1781         hc     62    bbb     H8   1781 0.04936100   1.008000   ; qtot -0.035790
 1782         c3     62    bbb     C5   1782 0.11363000  12.010000   ; qtot 0.077840
 1783         hc     62    bbb     H9   1783 0.06265900   1.008000   ; qtot 0.140499
 1784         hc     62    bbb    H10   1784 0.06265900   1.008000   ; qtot 0.203158
 1785         c3     62    bbb     C6   1785 0.11363000  12.010000   ; qtot 0.316788
 1786         hc     62    bbb    H11   1786 0.06265900   1.008000   ; qtot 0.379447
 1787         hc     62    bbb    H12   1787 0.06265900   1.008000   ; qtot 0.442106
 1788         c3     62    bbb     C7   1788 0.05858200  12.010000   ; qtot 0.500688
 1789         h1     62    bbb    H13   1789 0.06123400   1.008000   ; qtot 0.561922
 1790         h1     62    bbb    H14   1790 0.06123400   1.008000   ; qtot 0.623156
 1791         c3     62    bbb     C8   1791 -0.72423400  12.010000   ; qtot -0.101078
 1792         h1     62    bbb    H15   1792 0.25637600   1.008000   ; qtot 0.155298
 1793         h1     62    bbb    H16   1793 0.25637600   1.008000   ; qtot 0.411674
 1794         c3     62    bbb     C9   1794 -0.72423400  12.010000   ; qtot -0.312560
 1795         h1     62    bbb    H17   1795 0.25637600   1.008000   ; qtot -0.056184
 1796         h1     62    bbb    H18   1796 0.25637600   1.008000   ; qtot 0.200192
 1797         os     62    bbb     O1   1797 -0.20025300  16.000000   ; qtot -0.000061
; residue   63 bbb rtp bbb q -0.0
 1798         n3     63    bbb     N1   1798 -0.59685800  14.010000   ; qtot -0.596919
 1799         c3     63    bbb     C1   1799 0.10137000  12.010000   ; qtot -0.495549
 1800         h1     63    bbb     H1   1800 0.04411300   1.008000   ; qtot -0.451436
 1801         h1     63    bbb     H2   1801 0.04411300   1.008000   ; qtot -0.407323
 1802         c3     63    bbb     C2   1802 0.10137000  12.010000   ; qtot -0.305953
 1803         h1     63    bbb     H3   1803 0.04411300   1.008000   ; qtot -0.261840
 1804         h1     63    bbb     H4   1804 0.04411300   1.008000   ; qtot -0.217727
 1805         c3     63    bbb     C3   1805 -0.00195300  12.010000   ; qtot -0.219680
 1806         h1     63    bbb     H5   1806 0.05064400   1.008000   ; qtot -0.169036
 1807         h1     63    bbb     H6   1807 0.05064400   1.008000   ; qtot -0.118392
 1808         c3     63    bbb     C4   1808 -0.01612100  12.010000   ; qtot -0.134513
 1809         hc     63    bbb     H7   1809 0.04936100   1.008000   ; qtot -0.085152
 1810         hc     63    bbb     H8   1810 0.04936100   1.008000   ; qtot -0.035791
 1811         c3     63    bbb     C5   1811 0.11363000  12.010000   ; qtot 0.077839
 1812         hc     63    bbb     H9   1812 0.06265900   1.008000   ; qtot 0.140498
 1813         hc     63    bbb    H10   1813 0.06265900   1.008000   ; qtot 0.203157
 1814         c3     63    bbb     C6   1814 0.11363000  12.010000   ; qtot 0.316787
 1815         hc     63    bbb    H11   1815 0.06265900   1.008000   ; qtot 0.379446
 1816         hc     63    bbb    H12   1816 0.06265900   1.008000   ; qtot 0.442105
 1817         c3     63    bbb     C7   1817 0.05858200  12.010000   ; qtot 0.500687
 1818         h1     63    bbb    H13   1818 0.06123400   1.008000   ; qtot 0.561921
 1819         h1     63    bbb    H14   1819 0.06123400   1.008000   ; qtot 0.623155
 1820         c3     63    bbb     C8   1820 -0.72423400  12.010000   ; qtot -0.101079
 1821         h1     63    bbb    H15   1821 0.25637600   1.008000   ; qtot 0.155297
 1822         h1     63    bbb    H16   1822 0.25637600   1.008000   ; qtot 0.411673
 1823         c3     63    bbb     C9   1823 -0.72423400  12.010000   ; qtot -0.312561
 1824         h1     63    bbb    H17   1824 0.25637600   1.008000   ; qtot -0.056185
 1825         h1     63    bbb    H18   1825 0.25637600   1.008000   ; qtot 0.200191
 1826         os     63    bbb     O1   1826 -0.20025300  16.000000   ; qtot -0.000062
; residue   64 bbb rtp bbb q -0.0
 1827         n3     64    bbb     N1   1827 -0.59685800  14.010000   ; qtot -0.596920
 1828         c3     64    bbb     C1   1828 0.10137000  12.010000   ; qtot -0.495550
 1829         h1     64    bbb     H1   1829 0.04411300   1.008000   ; qtot -0.451437
 1830         h1     64    bbb     H2   1830 0.04411300   1.008000   ; qtot -0.407324
 1831         c3     64    bbb     C2   1831 0.10137000  12.010000   ; qtot -0.305954
 1832         h1     64    bbb     H3   1832 0.04411300   1.008000   ; qtot -0.261841
 1833         h1     64    bbb     H4   1833 0.04411300   1.008000   ; qtot -0.217728
 1834         c3     64    bbb     C3   1834 -0.00195300  12.010000   ; qtot -0.219681
 1835         h1     64    bbb     H5   1835 0.05064400   1.008000   ; qtot -0.169037
 1836         h1     64    bbb     H6   1836 0.05064400   1.008000   ; qtot -0.118393
 1837         c3     64    bbb     C4   1837 -0.01612100  12.010000   ; qtot -0.134514
 1838         hc     64    bbb     H7   1838 0.04936100   1.008000   ; qtot -0.085153
 1839         hc     64    bbb     H8   1839 0.04936100   1.008000   ; qtot -0.035792
 1840         c3     64    bbb     C5   1840 0.11363000  12.010000   ; qtot 0.077838
 1841         hc     64    bbb     H9   1841 0.06265900   1.008000   ; qtot 0.140497
 1842         hc     64    bbb    H10   1842 0.06265900   1.008000   ; qtot 0.203156
 1843         c3     64    bbb     C6   1843 0.11363000  12.010000   ; qtot 0.316786
 1844         hc     64    bbb    H11   1844 0.06265900   1.008000   ; qtot 0.379445
 1845         hc     64    bbb    H12   1845 0.06265900   1.008000   ; qtot 0.442104
 1846         c3     64    bbb     C7   1846 0.05858200  12.010000   ; qtot 0.500686
 1847         h1     64    bbb    H13   1847 0.06123400   1.008000   ; qtot 0.561920
 1848         h1     64    bbb    H14   1848 0.06123400   1.008000   ; qtot 0.623154
 1849         c3     64    bbb     C8   1849 -0.72423400  12.010000   ; qtot -0.101080
 1850         h1     64    bbb    H15   1850 0.25637600   1.008000   ; qtot 0.155296
 1851         h1     64    bbb    H16   1851 0.25637600   1.008000   ; qtot 0.411672
 1852         c3     64    bbb     C9   1852 -0.72423400  12.010000   ; qtot -0.312562
 1853         h1     64    bbb    H17   1853 0.25637600   1.008000   ; qtot -0.056186
 1854         h1     64    bbb    H18   1854 0.25637600   1.008000   ; qtot 0.200190
 1855         os     64    bbb     O1   1855 -0.20025300  16.000000   ; qtot -0.000063
; residue   65 bbb rtp bbb q -0.0
 1856         n3     65    bbb     N1   1856 -0.59685800  14.010000   ; qtot -0.596921
 1857         c3     65    bbb     C1   1857 0.10137000  12.010000   ; qtot -0.495551
 1858         h1     65    bbb     H1   1858 0.04411300   1.008000   ; qtot -0.451438
 1859         h1     65    bbb     H2   1859 0.04411300   1.008000   ; qtot -0.407325
 1860         c3     65    bbb     C2   1860 0.10137000  12.010000   ; qtot -0.305955
 1861         h1     65    bbb     H3   1861 0.04411300   1.008000   ; qtot -0.261842
 1862         h1     65    bbb     H4   1862 0.04411300   1.008000   ; qtot -0.217729
 1863         c3     65    bbb     C3   1863 -0.00195300  12.010000   ; qtot -0.219682
 1864         h1     65    bbb     H5   1864 0.05064400   1.008000   ; qtot -0.169038
 1865         h1     65    bbb     H6   1865 0.05064400   1.008000   ; qtot -0.118394
 1866         c3     65    bbb     C4   1866 -0.01612100  12.010000   ; qtot -0.134515
 1867         hc     65    bbb     H7   1867 0.04936100   1.008000   ; qtot -0.085154
 1868         hc     65    bbb     H8   1868 0.04936100   1.008000   ; qtot -0.035793
 1869         c3     65    bbb     C5   1869 0.11363000  12.010000   ; qtot 0.077837
 1870         hc     65    bbb     H9   1870 0.06265900   1.008000   ; qtot 0.140496
 1871         hc     65    bbb    H10   1871 0.06265900   1.008000   ; qtot 0.203155
 1872         c3     65    bbb     C6   1872 0.11363000  12.010000   ; qtot 0.316785
 1873         hc     65    bbb    H11   1873 0.06265900   1.008000   ; qtot 0.379444
 1874         hc     65    bbb    H12   1874 0.06265900   1.008000   ; qtot 0.442103
 1875         c3     65    bbb     C7   1875 0.05858200  12.010000   ; qtot 0.500685
 1876         h1     65    bbb    H13   1876 0.06123400   1.008000   ; qtot 0.561919
 1877         h1     65    bbb    H14   1877 0.06123400   1.008000   ; qtot 0.623153
 1878         c3     65    bbb     C8   1878 -0.72423400  12.010000   ; qtot -0.101081
 1879         h1     65    bbb    H15   1879 0.25637600   1.008000   ; qtot 0.155295
 1880         h1     65    bbb    H16   1880 0.25637600   1.008000   ; qtot 0.411671
 1881         c3     65    bbb     C9   1881 -0.72423400  12.010000   ; qtot -0.312563
 1882         h1     65    bbb    H17   1882 0.25637600   1.008000   ; qtot -0.056187
 1883         h1     65    bbb    H18   1883 0.25637600   1.008000   ; qtot 0.200189
 1884         os     65    bbb     O1   1884 -0.20025300  16.000000   ; qtot -0.000064
; residue   66 bbb rtp bbb q -0.0
 1885         n3     66    bbb     N1   1885 -0.59685800  14.010000   ; qtot -0.596922
 1886         c3     66    bbb     C1   1886 0.10137000  12.010000   ; qtot -0.495552
 1887         h1     66    bbb     H1   1887 0.04411300   1.008000   ; qtot -0.451439
 1888         h1     66    bbb     H2   1888 0.04411300   1.008000   ; qtot -0.407326
 1889         c3     66    bbb     C2   1889 0.10137000  12.010000   ; qtot -0.305956
 1890         h1     66    bbb     H3   1890 0.04411300   1.008000   ; qtot -0.261843
 1891         h1     66    bbb     H4   1891 0.04411300   1.008000   ; qtot -0.217730
 1892         c3     66    bbb     C3   1892 -0.00195300  12.010000   ; qtot -0.219683
 1893         h1     66    bbb     H5   1893 0.05064400   1.008000   ; qtot -0.169039
 1894         h1     66    bbb     H6   1894 0.05064400   1.008000   ; qtot -0.118395
 1895         c3     66    bbb     C4   1895 -0.01612100  12.010000   ; qtot -0.134516
 1896         hc     66    bbb     H7   1896 0.04936100   1.008000   ; qtot -0.085155
 1897         hc     66    bbb     H8   1897 0.04936100   1.008000   ; qtot -0.035794
 1898         c3     66    bbb     C5   1898 0.11363000  12.010000   ; qtot 0.077836
 1899         hc     66    bbb     H9   1899 0.06265900   1.008000   ; qtot 0.140495
 1900         hc     66    bbb    H10   1900 0.06265900   1.008000   ; qtot 0.203154
 1901         c3     66    bbb     C6   1901 0.11363000  12.010000   ; qtot 0.316784
 1902         hc     66    bbb    H11   1902 0.06265900   1.008000   ; qtot 0.379443
 1903         hc     66    bbb    H12   1903 0.06265900   1.008000   ; qtot 0.442102
 1904         c3     66    bbb     C7   1904 0.05858200  12.010000   ; qtot 0.500684
 1905         h1     66    bbb    H13   1905 0.06123400   1.008000   ; qtot 0.561918
 1906         h1     66    bbb    H14   1906 0.06123400   1.008000   ; qtot 0.623152
 1907         c3     66    bbb     C8   1907 -0.72423400  12.010000   ; qtot -0.101082
 1908         h1     66    bbb    H15   1908 0.25637600   1.008000   ; qtot 0.155294
 1909         h1     66    bbb    H16   1909 0.25637600   1.008000   ; qtot 0.411670
 1910         c3     66    bbb     C9   1910 -0.72423400  12.010000   ; qtot -0.312564
 1911         h1     66    bbb    H17   1911 0.25637600   1.008000   ; qtot -0.056188
 1912         h1     66    bbb    H18   1912 0.25637600   1.008000   ; qtot 0.200188
 1913         os     66    bbb     O1   1913 -0.20025300  16.000000   ; qtot -0.000065
; residue   67 bbb rtp bbb q -0.0
 1914         n3     67    bbb     N1   1914 -0.59685800  14.010000   ; qtot -0.596923
 1915         c3     67    bbb     C1   1915 0.10137000  12.010000   ; qtot -0.495553
 1916         h1     67    bbb     H1   1916 0.04411300   1.008000   ; qtot -0.451440
 1917         h1     67    bbb     H2   1917 0.04411300   1.008000   ; qtot -0.407327
 1918         c3     67    bbb     C2   1918 0.10137000  12.010000   ; qtot -0.305957
 1919         h1     67    bbb     H3   1919 0.04411300   1.008000   ; qtot -0.261844
 1920         h1     67    bbb     H4   1920 0.04411300   1.008000   ; qtot -0.217731
 1921         c3     67    bbb     C3   1921 -0.00195300  12.010000   ; qtot -0.219684
 1922         h1     67    bbb     H5   1922 0.05064400   1.008000   ; qtot -0.169040
 1923         h1     67    bbb     H6   1923 0.05064400   1.008000   ; qtot -0.118396
 1924         c3     67    bbb     C4   1924 -0.01612100  12.010000   ; qtot -0.134517
 1925         hc     67    bbb     H7   1925 0.04936100   1.008000   ; qtot -0.085156
 1926         hc     67    bbb     H8   1926 0.04936100   1.008000   ; qtot -0.035795
 1927         c3     67    bbb     C5   1927 0.11363000  12.010000   ; qtot 0.077835
 1928         hc     67    bbb     H9   1928 0.06265900   1.008000   ; qtot 0.140494
 1929         hc     67    bbb    H10   1929 0.06265900   1.008000   ; qtot 0.203153
 1930         c3     67    bbb     C6   1930 0.11363000  12.010000   ; qtot 0.316783
 1931         hc     67    bbb    H11   1931 0.06265900   1.008000   ; qtot 0.379442
 1932         hc     67    bbb    H12   1932 0.06265900   1.008000   ; qtot 0.442101
 1933         c3     67    bbb     C7   1933 0.05858200  12.010000   ; qtot 0.500683
 1934         h1     67    bbb    H13   1934 0.06123400   1.008000   ; qtot 0.561917
 1935         h1     67    bbb    H14   1935 0.06123400   1.008000   ; qtot 0.623151
 1936         c3     67    bbb     C8   1936 -0.72423400  12.010000   ; qtot -0.101083
 1937         h1     67    bbb    H15   1937 0.25637600   1.008000   ; qtot 0.155293
 1938         h1     67    bbb    H16   1938 0.25637600   1.008000   ; qtot 0.411669
 1939         c3     67    bbb     C9   1939 -0.72423400  12.010000   ; qtot -0.312565
 1940         h1     67    bbb    H17   1940 0.25637600   1.008000   ; qtot -0.056189
 1941         h1     67    bbb    H18   1941 0.25637600   1.008000   ; qtot 0.200187
 1942         os     67    bbb     O1   1942 -0.20025300  16.000000   ; qtot -0.000066
; residue   68 bbb rtp bbb q -0.0
 1943         n3     68    bbb     N1   1943 -0.59685800  14.010000   ; qtot -0.596924
 1944         c3     68    bbb     C1   1944 0.10137000  12.010000   ; qtot -0.495554
 1945         h1     68    bbb     H1   1945 0.04411300   1.008000   ; qtot -0.451441
 1946         h1     68    bbb     H2   1946 0.04411300   1.008000   ; qtot -0.407328
 1947         c3     68    bbb     C2   1947 0.10137000  12.010000   ; qtot -0.305958
 1948         h1     68    bbb     H3   1948 0.04411300   1.008000   ; qtot -0.261845
 1949         h1     68    bbb     H4   1949 0.04411300   1.008000   ; qtot -0.217732
 1950         c3     68    bbb     C3   1950 -0.00195300  12.010000   ; qtot -0.219685
 1951         h1     68    bbb     H5   1951 0.05064400   1.008000   ; qtot -0.169041
 1952         h1     68    bbb     H6   1952 0.05064400   1.008000   ; qtot -0.118397
 1953         c3     68    bbb     C4   1953 -0.01612100  12.010000   ; qtot -0.134518
 1954         hc     68    bbb     H7   1954 0.04936100   1.008000   ; qtot -0.085157
 1955         hc     68    bbb     H8   1955 0.04936100   1.008000   ; qtot -0.035796
 1956         c3     68    bbb     C5   1956 0.11363000  12.010000   ; qtot 0.077834
 1957         hc     68    bbb     H9   1957 0.06265900   1.008000   ; qtot 0.140493
 1958         hc     68    bbb    H10   1958 0.06265900   1.008000   ; qtot 0.203152
 1959         c3     68    bbb     C6   1959 0.11363000  12.010000   ; qtot 0.316782
 1960         hc     68    bbb    H11   1960 0.06265900   1.008000   ; qtot 0.379441
 1961         hc     68    bbb    H12   1961 0.06265900   1.008000   ; qtot 0.442100
 1962         c3     68    bbb     C7   1962 0.05858200  12.010000   ; qtot 0.500682
 1963         h1     68    bbb    H13   1963 0.06123400   1.008000   ; qtot 0.561916
 1964         h1     68    bbb    H14   1964 0.06123400   1.008000   ; qtot 0.623150
 1965         c3     68    bbb     C8   1965 -0.72423400  12.010000   ; qtot -0.101084
 1966         h1     68    bbb    H15   1966 0.25637600   1.008000   ; qtot 0.155292
 1967         h1     68    bbb    H16   1967 0.25637600   1.008000   ; qtot 0.411668
 1968         c3     68    bbb     C9   1968 -0.72423400  12.010000   ; qtot -0.312566
 1969         h1     68    bbb    H17   1969 0.25637600   1.008000   ; qtot -0.056190
 1970         h1     68    bbb    H18   1970 0.25637600   1.008000   ; qtot 0.200186
 1971         os     68    bbb     O1   1971 -0.20025300  16.000000   ; qtot -0.000067
; residue   69 bbb rtp bbb q -0.0
 1972         n3     69    bbb     N1   1972 -0.59685800  14.010000   ; qtot -0.596925
 1973         c3     69    bbb     C1   1973 0.10137000  12.010000   ; qtot -0.495555
 1974         h1     69    bbb     H1   1974 0.04411300   1.008000   ; qtot -0.451442
 1975         h1     69    bbb     H2   1975 0.04411300   1.008000   ; qtot -0.407329
 1976         c3     69    bbb     C2   1976 0.10137000  12.010000   ; qtot -0.305959
 1977         h1     69    bbb     H3   1977 0.04411300   1.008000   ; qtot -0.261846
 1978         h1     69    bbb     H4   1978 0.04411300   1.008000   ; qtot -0.217733
 1979         c3     69    bbb     C3   1979 -0.00195300  12.010000   ; qtot -0.219686
 1980         h1     69    bbb     H5   1980 0.05064400   1.008000   ; qtot -0.169042
 1981         h1     69    bbb     H6   1981 0.05064400   1.008000   ; qtot -0.118398
 1982         c3     69    bbb     C4   1982 -0.01612100  12.010000   ; qtot -0.134519
 1983         hc     69    bbb     H7   1983 0.04936100   1.008000   ; qtot -0.085158
 1984         hc     69    bbb     H8   1984 0.04936100   1.008000   ; qtot -0.035797
 1985         c3     69    bbb     C5   1985 0.11363000  12.010000   ; qtot 0.077833
 1986         hc     69    bbb     H9   1986 0.06265900   1.008000   ; qtot 0.140492
 1987         hc     69    bbb    H10   1987 0.06265900   1.008000   ; qtot 0.203151
 1988         c3     69    bbb     C6   1988 0.11363000  12.010000   ; qtot 0.316781
 1989         hc     69    bbb    H11   1989 0.06265900   1.008000   ; qtot 0.379440
 1990         hc     69    bbb    H12   1990 0.06265900   1.008000   ; qtot 0.442099
 1991         c3     69    bbb     C7   1991 0.05858200  12.010000   ; qtot 0.500681
 1992         h1     69    bbb    H13   1992 0.06123400   1.008000   ; qtot 0.561915
 1993         h1     69    bbb    H14   1993 0.06123400   1.008000   ; qtot 0.623149
 1994         c3     69    bbb     C8   1994 -0.72423400  12.010000   ; qtot -0.101085
 1995         h1     69    bbb    H15   1995 0.25637600   1.008000   ; qtot 0.155291
 1996         h1     69    bbb    H16   1996 0.25637600   1.008000   ; qtot 0.411667
 1997         c3     69    bbb     C9   1997 -0.72423400  12.010000   ; qtot -0.312567
 1998         h1     69    bbb    H17   1998 0.25637600   1.008000   ; qtot -0.056191
 1999         h1     69    bbb    H18   1999 0.25637600   1.008000   ; qtot 0.200185
 2000         os     69    bbb     O1   2000 -0.20025300  16.000000   ; qtot -0.000068
; residue   70 bbb rtp bbb q -0.0
 2001         n3     70    bbb     N1   2001 -0.59685800  14.010000   ; qtot -0.596926
 2002         c3     70    bbb     C1   2002 0.10137000  12.010000   ; qtot -0.495556
 2003         h1     70    bbb     H1   2003 0.04411300   1.008000   ; qtot -0.451443
 2004         h1     70    bbb     H2   2004 0.04411300   1.008000   ; qtot -0.407330
 2005         c3     70    bbb     C2   2005 0.10137000  12.010000   ; qtot -0.305960
 2006         h1     70    bbb     H3   2006 0.04411300   1.008000   ; qtot -0.261847
 2007         h1     70    bbb     H4   2007 0.04411300   1.008000   ; qtot -0.217734
 2008         c3     70    bbb     C3   2008 -0.00195300  12.010000   ; qtot -0.219687
 2009         h1     70    bbb     H5   2009 0.05064400   1.008000   ; qtot -0.169043
 2010         h1     70    bbb     H6   2010 0.05064400   1.008000   ; qtot -0.118399
 2011         c3     70    bbb     C4   2011 -0.01612100  12.010000   ; qtot -0.134520
 2012         hc     70    bbb     H7   2012 0.04936100   1.008000   ; qtot -0.085159
 2013         hc     70    bbb     H8   2013 0.04936100   1.008000   ; qtot -0.035798
 2014         c3     70    bbb     C5   2014 0.11363000  12.010000   ; qtot 0.077832
 2015         hc     70    bbb     H9   2015 0.06265900   1.008000   ; qtot 0.140491
 2016         hc     70    bbb    H10   2016 0.06265900   1.008000   ; qtot 0.203150
 2017         c3     70    bbb     C6   2017 0.11363000  12.010000   ; qtot 0.316780
 2018         hc     70    bbb    H11   2018 0.06265900   1.008000   ; qtot 0.379439
 2019         hc     70    bbb    H12   2019 0.06265900   1.008000   ; qtot 0.442098
 2020         c3     70    bbb     C7   2020 0.05858200  12.010000   ; qtot 0.500680
 2021         h1     70    bbb    H13   2021 0.06123400   1.008000   ; qtot 0.561914
 2022         h1     70    bbb    H14   2022 0.06123400   1.008000   ; qtot 0.623148
 2023         c3     70    bbb     C8   2023 -0.72423400  12.010000   ; qtot -0.101086
 2024         h1     70    bbb    H15   2024 0.25637600   1.008000   ; qtot 0.155290
 2025         h1     70    bbb    H16   2025 0.25637600   1.008000   ; qtot 0.411666
 2026         c3     70    bbb     C9   2026 -0.72423400  12.010000   ; qtot -0.312568
 2027         h1     70    bbb    H17   2027 0.25637600   1.008000   ; qtot -0.056192
 2028         h1     70    bbb    H18   2028 0.25637600   1.008000   ; qtot 0.200184
 2029         os     70    bbb     O1   2029 -0.20025300  16.000000   ; qtot -0.000069
; residue   71 bbb rtp bbb q -0.0
 2030         n3     71    bbb     N1   2030 -0.59685800  14.010000   ; qtot -0.596927
 2031         c3     71    bbb     C1   2031 0.10137000  12.010000   ; qtot -0.495557
 2032         h1     71    bbb     H1   2032 0.04411300   1.008000   ; qtot -0.451444
 2033         h1     71    bbb     H2   2033 0.04411300   1.008000   ; qtot -0.407331
 2034         c3     71    bbb     C2   2034 0.10137000  12.010000   ; qtot -0.305961
 2035         h1     71    bbb     H3   2035 0.04411300   1.008000   ; qtot -0.261848
 2036         h1     71    bbb     H4   2036 0.04411300   1.008000   ; qtot -0.217735
 2037         c3     71    bbb     C3   2037 -0.00195300  12.010000   ; qtot -0.219688
 2038         h1     71    bbb     H5   2038 0.05064400   1.008000   ; qtot -0.169044
 2039         h1     71    bbb     H6   2039 0.05064400   1.008000   ; qtot -0.118400
 2040         c3     71    bbb     C4   2040 -0.01612100  12.010000   ; qtot -0.134521
 2041         hc     71    bbb     H7   2041 0.04936100   1.008000   ; qtot -0.085160
 2042         hc     71    bbb     H8   2042 0.04936100   1.008000   ; qtot -0.035799
 2043         c3     71    bbb     C5   2043 0.11363000  12.010000   ; qtot 0.077831
 2044         hc     71    bbb     H9   2044 0.06265900   1.008000   ; qtot 0.140490
 2045         hc     71    bbb    H10   2045 0.06265900   1.008000   ; qtot 0.203149
 2046         c3     71    bbb     C6   2046 0.11363000  12.010000   ; qtot 0.316779
 2047         hc     71    bbb    H11   2047 0.06265900   1.008000   ; qtot 0.379438
 2048         hc     71    bbb    H12   2048 0.06265900   1.008000   ; qtot 0.442097
 2049         c3     71    bbb     C7   2049 0.05858200  12.010000   ; qtot 0.500679
 2050         h1     71    bbb    H13   2050 0.06123400   1.008000   ; qtot 0.561913
 2051         h1     71    bbb    H14   2051 0.06123400   1.008000   ; qtot 0.623147
 2052         c3     71    bbb     C8   2052 -0.72423400  12.010000   ; qtot -0.101087
 2053         h1     71    bbb    H15   2053 0.25637600   1.008000   ; qtot 0.155289
 2054         h1     71    bbb    H16   2054 0.25637600   1.008000   ; qtot 0.411665
 2055         c3     71    bbb     C9   2055 -0.72423400  12.010000   ; qtot -0.312569
 2056         h1     71    bbb    H17   2056 0.25637600   1.008000   ; qtot -0.056193
 2057         h1     71    bbb    H18   2057 0.25637600   1.008000   ; qtot 0.200183
 2058         os     71    bbb     O1   2058 -0.20025300  16.000000   ; qtot -0.000070
; residue   72 bbb rtp bbb q -0.0
 2059         n3     72    bbb     N1   2059 -0.59685800  14.010000   ; qtot -0.596928
 2060         c3     72    bbb     C1   2060 0.10137000  12.010000   ; qtot -0.495558
 2061         h1     72    bbb     H1   2061 0.04411300   1.008000   ; qtot -0.451445
 2062         h1     72    bbb     H2   2062 0.04411300   1.008000   ; qtot -0.407332
 2063         c3     72    bbb     C2   2063 0.10137000  12.010000   ; qtot -0.305962
 2064         h1     72    bbb     H3   2064 0.04411300   1.008000   ; qtot -0.261849
 2065         h1     72    bbb     H4   2065 0.04411300   1.008000   ; qtot -0.217736
 2066         c3     72    bbb     C3   2066 -0.00195300  12.010000   ; qtot -0.219689
 2067         h1     72    bbb     H5   2067 0.05064400   1.008000   ; qtot -0.169045
 2068         h1     72    bbb     H6   2068 0.05064400   1.008000   ; qtot -0.118401
 2069         c3     72    bbb     C4   2069 -0.01612100  12.010000   ; qtot -0.134522
 2070         hc     72    bbb     H7   2070 0.04936100   1.008000   ; qtot -0.085161
 2071         hc     72    bbb     H8   2071 0.04936100   1.008000   ; qtot -0.035800
 2072         c3     72    bbb     C5   2072 0.11363000  12.010000   ; qtot 0.077830
 2073         hc     72    bbb     H9   2073 0.06265900   1.008000   ; qtot 0.140489
 2074         hc     72    bbb    H10   2074 0.06265900   1.008000   ; qtot 0.203148
 2075         c3     72    bbb     C6   2075 0.11363000  12.010000   ; qtot 0.316778
 2076         hc     72    bbb    H11   2076 0.06265900   1.008000   ; qtot 0.379437
 2077         hc     72    bbb    H12   2077 0.06265900   1.008000   ; qtot 0.442096
 2078         c3     72    bbb     C7   2078 0.05858200  12.010000   ; qtot 0.500678
 2079         h1     72    bbb    H13   2079 0.06123400   1.008000   ; qtot 0.561912
 2080         h1     72    bbb    H14   2080 0.06123400   1.008000   ; qtot 0.623146
 2081         c3     72    bbb     C8   2081 -0.72423400  12.010000   ; qtot -0.101088
 2082         h1     72    bbb    H15   2082 0.25637600   1.008000   ; qtot 0.155288
 2083         h1     72    bbb    H16   2083 0.25637600   1.008000   ; qtot 0.411664
 2084         c3     72    bbb     C9   2084 -0.72423400  12.010000   ; qtot -0.312570
 2085         h1     72    bbb    H17   2085 0.25637600   1.008000   ; qtot -0.056194
 2086         h1     72    bbb    H18   2086 0.25637600   1.008000   ; qtot 0.200182
 2087         os     72    bbb     O1   2087 -0.20025300  16.000000   ; qtot -0.000071
; residue   73 bbb rtp bbb q -0.0
 2088         n3     73    bbb     N1   2088 -0.59685800  14.010000   ; qtot -0.596929
 2089         c3     73    bbb     C1   2089 0.10137000  12.010000   ; qtot -0.495559
 2090         h1     73    bbb     H1   2090 0.04411300   1.008000   ; qtot -0.451446
 2091         h1     73    bbb     H2   2091 0.04411300   1.008000   ; qtot -0.407333
 2092         c3     73    bbb     C2   2092 0.10137000  12.010000   ; qtot -0.305963
 2093         h1     73    bbb     H3   2093 0.04411300   1.008000   ; qtot -0.261850
 2094         h1     73    bbb     H4   2094 0.04411300   1.008000   ; qtot -0.217737
 2095         c3     73    bbb     C3   2095 -0.00195300  12.010000   ; qtot -0.219690
 2096         h1     73    bbb     H5   2096 0.05064400   1.008000   ; qtot -0.169046
 2097         h1     73    bbb     H6   2097 0.05064400   1.008000   ; qtot -0.118402
 2098         c3     73    bbb     C4   2098 -0.01612100  12.010000   ; qtot -0.134523
 2099         hc     73    bbb     H7   2099 0.04936100   1.008000   ; qtot -0.085162
 2100         hc     73    bbb     H8   2100 0.04936100   1.008000   ; qtot -0.035801
 2101         c3     73    bbb     C5   2101 0.11363000  12.010000   ; qtot 0.077829
 2102         hc     73    bbb     H9   2102 0.06265900   1.008000   ; qtot 0.140488
 2103         hc     73    bbb    H10   2103 0.06265900   1.008000   ; qtot 0.203147
 2104         c3     73    bbb     C6   2104 0.11363000  12.010000   ; qtot 0.316777
 2105         hc     73    bbb    H11   2105 0.06265900   1.008000   ; qtot 0.379436
 2106         hc     73    bbb    H12   2106 0.06265900   1.008000   ; qtot 0.442095
 2107         c3     73    bbb     C7   2107 0.05858200  12.010000   ; qtot 0.500677
 2108         h1     73    bbb    H13   2108 0.06123400   1.008000   ; qtot 0.561911
 2109         h1     73    bbb    H14   2109 0.06123400   1.008000   ; qtot 0.623145
 2110         c3     73    bbb     C8   2110 -0.72423400  12.010000   ; qtot -0.101089
 2111         h1     73    bbb    H15   2111 0.25637600   1.008000   ; qtot 0.155287
 2112         h1     73    bbb    H16   2112 0.25637600   1.008000   ; qtot 0.411663
 2113         c3     73    bbb     C9   2113 -0.72423400  12.010000   ; qtot -0.312571
 2114         h1     73    bbb    H17   2114 0.25637600   1.008000   ; qtot -0.056195
 2115         h1     73    bbb    H18   2115 0.25637600   1.008000   ; qtot 0.200181
 2116         os     73    bbb     O1   2116 -0.20025300  16.000000   ; qtot -0.000072
; residue   74 bbb rtp bbb q -0.0
 2117         n3     74    bbb     N1   2117 -0.59685800  14.010000   ; qtot -0.596930
 2118         c3     74    bbb     C1   2118 0.10137000  12.010000   ; qtot -0.495560
 2119         h1     74    bbb     H1   2119 0.04411300   1.008000   ; qtot -0.451447
 2120         h1     74    bbb     H2   2120 0.04411300   1.008000   ; qtot -0.407334
 2121         c3     74    bbb     C2   2121 0.10137000  12.010000   ; qtot -0.305964
 2122         h1     74    bbb     H3   2122 0.04411300   1.008000   ; qtot -0.261851
 2123         h1     74    bbb     H4   2123 0.04411300   1.008000   ; qtot -0.217738
 2124         c3     74    bbb     C3   2124 -0.00195300  12.010000   ; qtot -0.219691
 2125         h1     74    bbb     H5   2125 0.05064400   1.008000   ; qtot -0.169047
 2126         h1     74    bbb     H6   2126 0.05064400   1.008000   ; qtot -0.118403
 2127         c3     74    bbb     C4   2127 -0.01612100  12.010000   ; qtot -0.134524
 2128         hc     74    bbb     H7   2128 0.04936100   1.008000   ; qtot -0.085163
 2129         hc     74    bbb     H8   2129 0.04936100   1.008000   ; qtot -0.035802
 2130         c3     74    bbb     C5   2130 0.11363000  12.010000   ; qtot 0.077828
 2131         hc     74    bbb     H9   2131 0.06265900   1.008000   ; qtot 0.140487
 2132         hc     74    bbb    H10   2132 0.06265900   1.008000   ; qtot 0.203146
 2133         c3     74    bbb     C6   2133 0.11363000  12.010000   ; qtot 0.316776
 2134         hc     74    bbb    H11   2134 0.06265900   1.008000   ; qtot 0.379435
 2135         hc     74    bbb    H12   2135 0.06265900   1.008000   ; qtot 0.442094
 2136         c3     74    bbb     C7   2136 0.05858200  12.010000   ; qtot 0.500676
 2137         h1     74    bbb    H13   2137 0.06123400   1.008000   ; qtot 0.561910
 2138         h1     74    bbb    H14   2138 0.06123400   1.008000   ; qtot 0.623144
 2139         c3     74    bbb     C8   2139 -0.72423400  12.010000   ; qtot -0.101090
 2140         h1     74    bbb    H15   2140 0.25637600   1.008000   ; qtot 0.155286
 2141         h1     74    bbb    H16   2141 0.25637600   1.008000   ; qtot 0.411662
 2142         c3     74    bbb     C9   2142 -0.72423400  12.010000   ; qtot -0.312572
 2143         h1     74    bbb    H17   2143 0.25637600   1.008000   ; qtot -0.056196
 2144         h1     74    bbb    H18   2144 0.25637600   1.008000   ; qtot 0.200180
 2145         os     74    bbb     O1   2145 -0.20025300  16.000000   ; qtot -0.000073
; residue   75 bbb rtp bbb q -0.0
 2146         n3     75    bbb     N1   2146 -0.59685800  14.010000   ; qtot -0.596931
 2147         c3     75    bbb     C1   2147 0.10137000  12.010000   ; qtot -0.495561
 2148         h1     75    bbb     H1   2148 0.04411300   1.008000   ; qtot -0.451448
 2149         h1     75    bbb     H2   2149 0.04411300   1.008000   ; qtot -0.407335
 2150         c3     75    bbb     C2   2150 0.10137000  12.010000   ; qtot -0.305965
 2151         h1     75    bbb     H3   2151 0.04411300   1.008000   ; qtot -0.261852
 2152         h1     75    bbb     H4   2152 0.04411300   1.008000   ; qtot -0.217739
 2153         c3     75    bbb     C3   2153 -0.00195300  12.010000   ; qtot -0.219692
 2154         h1     75    bbb     H5   2154 0.05064400   1.008000   ; qtot -0.169048
 2155         h1     75    bbb     H6   2155 0.05064400   1.008000   ; qtot -0.118404
 2156         c3     75    bbb     C4   2156 -0.01612100  12.010000   ; qtot -0.134525
 2157         hc     75    bbb     H7   2157 0.04936100   1.008000   ; qtot -0.085164
 2158         hc     75    bbb     H8   2158 0.04936100   1.008000   ; qtot -0.035803
 2159         c3     75    bbb     C5   2159 0.11363000  12.010000   ; qtot 0.077827
 2160         hc     75    bbb     H9   2160 0.06265900   1.008000   ; qtot 0.140486
 2161         hc     75    bbb    H10   2161 0.06265900   1.008000   ; qtot 0.203145
 2162         c3     75    bbb     C6   2162 0.11363000  12.010000   ; qtot 0.316775
 2163         hc     75    bbb    H11   2163 0.06265900   1.008000   ; qtot 0.379434
 2164         hc     75    bbb    H12   2164 0.06265900   1.008000   ; qtot 0.442093
 2165         c3     75    bbb     C7   2165 0.05858200  12.010000   ; qtot 0.500675
 2166         h1     75    bbb    H13   2166 0.06123400   1.008000   ; qtot 0.561909
 2167         h1     75    bbb    H14   2167 0.06123400   1.008000   ; qtot 0.623143
 2168         c3     75    bbb     C8   2168 -0.72423400  12.010000   ; qtot -0.101091
 2169         h1     75    bbb    H15   2169 0.25637600   1.008000   ; qtot 0.155285
 2170         h1     75    bbb    H16   2170 0.25637600   1.008000   ; qtot 0.411661
 2171         c3     75    bbb     C9   2171 -0.72423400  12.010000   ; qtot -0.312573
 2172         h1     75    bbb    H17   2172 0.25637600   1.008000   ; qtot -0.056197
 2173         h1     75    bbb    H18   2173 0.25637600   1.008000   ; qtot 0.200179
 2174         os     75    bbb     O1   2174 -0.20025300  16.000000   ; qtot -0.000074
; residue   76 bbb rtp bbb q -0.0
 2175         n3     76    bbb     N1   2175 -0.59685800  14.010000   ; qtot -0.596932
 2176         c3     76    bbb     C1   2176 0.10137000  12.010000   ; qtot -0.495562
 2177         h1     76    bbb     H1   2177 0.04411300   1.008000   ; qtot -0.451449
 2178         h1     76    bbb     H2   2178 0.04411300   1.008000   ; qtot -0.407336
 2179         c3     76    bbb     C2   2179 0.10137000  12.010000   ; qtot -0.305966
 2180         h1     76    bbb     H3   2180 0.04411300   1.008000   ; qtot -0.261853
 2181         h1     76    bbb     H4   2181 0.04411300   1.008000   ; qtot -0.217740
 2182         c3     76    bbb     C3   2182 -0.00195300  12.010000   ; qtot -0.219693
 2183         h1     76    bbb     H5   2183 0.05064400   1.008000   ; qtot -0.169049
 2184         h1     76    bbb     H6   2184 0.05064400   1.008000   ; qtot -0.118405
 2185         c3     76    bbb     C4   2185 -0.01612100  12.010000   ; qtot -0.134526
 2186         hc     76    bbb     H7   2186 0.04936100   1.008000   ; qtot -0.085165
 2187         hc     76    bbb     H8   2187 0.04936100   1.008000   ; qtot -0.035804
 2188         c3     76    bbb     C5   2188 0.11363000  12.010000   ; qtot 0.077826
 2189         hc     76    bbb     H9   2189 0.06265900   1.008000   ; qtot 0.140485
 2190         hc     76    bbb    H10   2190 0.06265900   1.008000   ; qtot 0.203144
 2191         c3     76    bbb     C6   2191 0.11363000  12.010000   ; qtot 0.316774
 2192         hc     76    bbb    H11   2192 0.06265900   1.008000   ; qtot 0.379433
 2193         hc     76    bbb    H12   2193 0.06265900   1.008000   ; qtot 0.442092
 2194         c3     76    bbb     C7   2194 0.05858200  12.010000   ; qtot 0.500674
 2195         h1     76    bbb    H13   2195 0.06123400   1.008000   ; qtot 0.561908
 2196         h1     76    bbb    H14   2196 0.06123400   1.008000   ; qtot 0.623142
 2197         c3     76    bbb     C8   2197 -0.72423400  12.010000   ; qtot -0.101092
 2198         h1     76    bbb    H15   2198 0.25637600   1.008000   ; qtot 0.155284
 2199         h1     76    bbb    H16   2199 0.25637600   1.008000   ; qtot 0.411660
 2200         c3     76    bbb     C9   2200 -0.72423400  12.010000   ; qtot -0.312574
 2201         h1     76    bbb    H17   2201 0.25637600   1.008000   ; qtot -0.056198
 2202         h1     76    bbb    H18   2202 0.25637600   1.008000   ; qtot 0.200178
 2203         os     76    bbb     O1   2203 -0.20025300  16.000000   ; qtot -0.000075
; residue   77 bbb rtp bbb q -0.0
 2204         n3     77    bbb     N1   2204 -0.59685800  14.010000   ; qtot -0.596933
 2205         c3     77    bbb     C1   2205 0.10137000  12.010000   ; qtot -0.495563
 2206         h1     77    bbb     H1   2206 0.04411300   1.008000   ; qtot -0.451450
 2207         h1     77    bbb     H2   2207 0.04411300   1.008000   ; qtot -0.407337
 2208         c3     77    bbb     C2   2208 0.10137000  12.010000   ; qtot -0.305967
 2209         h1     77    bbb     H3   2209 0.04411300   1.008000   ; qtot -0.261854
 2210         h1     77    bbb     H4   2210 0.04411300   1.008000   ; qtot -0.217741
 2211         c3     77    bbb     C3   2211 -0.00195300  12.010000   ; qtot -0.219694
 2212         h1     77    bbb     H5   2212 0.05064400   1.008000   ; qtot -0.169050
 2213         h1     77    bbb     H6   2213 0.05064400   1.008000   ; qtot -0.118406
 2214         c3     77    bbb     C4   2214 -0.01612100  12.010000   ; qtot -0.134527
 2215         hc     77    bbb     H7   2215 0.04936100   1.008000   ; qtot -0.085166
 2216         hc     77    bbb     H8   2216 0.04936100   1.008000   ; qtot -0.035805
 2217         c3     77    bbb     C5   2217 0.11363000  12.010000   ; qtot 0.077825
 2218         hc     77    bbb     H9   2218 0.06265900   1.008000   ; qtot 0.140484
 2219         hc     77    bbb    H10   2219 0.06265900   1.008000   ; qtot 0.203143
 2220         c3     77    bbb     C6   2220 0.11363000  12.010000   ; qtot 0.316773
 2221         hc     77    bbb    H11   2221 0.06265900   1.008000   ; qtot 0.379432
 2222         hc     77    bbb    H12   2222 0.06265900   1.008000   ; qtot 0.442091
 2223         c3     77    bbb     C7   2223 0.05858200  12.010000   ; qtot 0.500673
 2224         h1     77    bbb    H13   2224 0.06123400   1.008000   ; qtot 0.561907
 2225         h1     77    bbb    H14   2225 0.06123400   1.008000   ; qtot 0.623141
 2226         c3     77    bbb     C8   2226 -0.72423400  12.010000   ; qtot -0.101093
 2227         h1     77    bbb    H15   2227 0.25637600   1.008000   ; qtot 0.155283
 2228         h1     77    bbb    H16   2228 0.25637600   1.008000   ; qtot 0.411659
 2229         c3     77    bbb     C9   2229 -0.72423400  12.010000   ; qtot -0.312575
 2230         h1     77    bbb    H17   2230 0.25637600   1.008000   ; qtot -0.056199
 2231         h1     77    bbb    H18   2231 0.25637600   1.008000   ; qtot 0.200177
 2232         os     77    bbb     O1   2232 -0.20025300  16.000000   ; qtot -0.000076
; residue   78 bbb rtp bbb q -0.0
 2233         n3     78    bbb     N1   2233 -0.59685800  14.010000   ; qtot -0.596934
 2234         c3     78    bbb     C1   2234 0.10137000  12.010000   ; qtot -0.495564
 2235         h1     78    bbb     H1   2235 0.04411300   1.008000   ; qtot -0.451451
 2236         h1     78    bbb     H2   2236 0.04411300   1.008000   ; qtot -0.407338
 2237         c3     78    bbb     C2   2237 0.10137000  12.010000   ; qtot -0.305968
 2238         h1     78    bbb     H3   2238 0.04411300   1.008000   ; qtot -0.261855
 2239         h1     78    bbb     H4   2239 0.04411300   1.008000   ; qtot -0.217742
 2240         c3     78    bbb     C3   2240 -0.00195300  12.010000   ; qtot -0.219695
 2241         h1     78    bbb     H5   2241 0.05064400   1.008000   ; qtot -0.169051
 2242         h1     78    bbb     H6   2242 0.05064400   1.008000   ; qtot -0.118407
 2243         c3     78    bbb     C4   2243 -0.01612100  12.010000   ; qtot -0.134528
 2244         hc     78    bbb     H7   2244 0.04936100   1.008000   ; qtot -0.085167
 2245         hc     78    bbb     H8   2245 0.04936100   1.008000   ; qtot -0.035806
 2246         c3     78    bbb     C5   2246 0.11363000  12.010000   ; qtot 0.077824
 2247         hc     78    bbb     H9   2247 0.06265900   1.008000   ; qtot 0.140483
 2248         hc     78    bbb    H10   2248 0.06265900   1.008000   ; qtot 0.203142
 2249         c3     78    bbb     C6   2249 0.11363000  12.010000   ; qtot 0.316772
 2250         hc     78    bbb    H11   2250 0.06265900   1.008000   ; qtot 0.379431
 2251         hc     78    bbb    H12   2251 0.06265900   1.008000   ; qtot 0.442090
 2252         c3     78    bbb     C7   2252 0.05858200  12.010000   ; qtot 0.500672
 2253         h1     78    bbb    H13   2253 0.06123400   1.008000   ; qtot 0.561906
 2254         h1     78    bbb    H14   2254 0.06123400   1.008000   ; qtot 0.623140
 2255         c3     78    bbb     C8   2255 -0.72423400  12.010000   ; qtot -0.101094
 2256         h1     78    bbb    H15   2256 0.25637600   1.008000   ; qtot 0.155282
 2257         h1     78    bbb    H16   2257 0.25637600   1.008000   ; qtot 0.411658
 2258         c3     78    bbb     C9   2258 -0.72423400  12.010000   ; qtot -0.312576
 2259         h1     78    bbb    H17   2259 0.25637600   1.008000   ; qtot -0.056200
 2260         h1     78    bbb    H18   2260 0.25637600   1.008000   ; qtot 0.200176
 2261         os     78    bbb     O1   2261 -0.20025300  16.000000   ; qtot -0.000077
; residue   79 bbb rtp bbb q -0.0
 2262         n3     79    bbb     N1   2262 -0.59685800  14.010000   ; qtot -0.596935
 2263         c3     79    bbb     C1   2263 0.10137000  12.010000   ; qtot -0.495565
 2264         h1     79    bbb     H1   2264 0.04411300   1.008000   ; qtot -0.451452
 2265         h1     79    bbb     H2   2265 0.04411300   1.008000   ; qtot -0.407339
 2266         c3     79    bbb     C2   2266 0.10137000  12.010000   ; qtot -0.305969
 2267         h1     79    bbb     H3   2267 0.04411300   1.008000   ; qtot -0.261856
 2268         h1     79    bbb     H4   2268 0.04411300   1.008000   ; qtot -0.217743
 2269         c3     79    bbb     C3   2269 -0.00195300  12.010000   ; qtot -0.219696
 2270         h1     79    bbb     H5   2270 0.05064400   1.008000   ; qtot -0.169052
 2271         h1     79    bbb     H6   2271 0.05064400   1.008000   ; qtot -0.118408
 2272         c3     79    bbb     C4   2272 -0.01612100  12.010000   ; qtot -0.134529
 2273         hc     79    bbb     H7   2273 0.04936100   1.008000   ; qtot -0.085168
 2274         hc     79    bbb     H8   2274 0.04936100   1.008000   ; qtot -0.035807
 2275         c3     79    bbb     C5   2275 0.11363000  12.010000   ; qtot 0.077823
 2276         hc     79    bbb     H9   2276 0.06265900   1.008000   ; qtot 0.140482
 2277         hc     79    bbb    H10   2277 0.06265900   1.008000   ; qtot 0.203141
 2278         c3     79    bbb     C6   2278 0.11363000  12.010000   ; qtot 0.316771
 2279         hc     79    bbb    H11   2279 0.06265900   1.008000   ; qtot 0.379430
 2280         hc     79    bbb    H12   2280 0.06265900   1.008000   ; qtot 0.442089
 2281         c3     79    bbb     C7   2281 0.05858200  12.010000   ; qtot 0.500671
 2282         h1     79    bbb    H13   2282 0.06123400   1.008000   ; qtot 0.561905
 2283         h1     79    bbb    H14   2283 0.06123400   1.008000   ; qtot 0.623139
 2284         c3     79    bbb     C8   2284 -0.72423400  12.010000   ; qtot -0.101095
 2285         h1     79    bbb    H15   2285 0.25637600   1.008000   ; qtot 0.155281
 2286         h1     79    bbb    H16   2286 0.25637600   1.008000   ; qtot 0.411657
 2287         c3     79    bbb     C9   2287 -0.72423400  12.010000   ; qtot -0.312577
 2288         h1     79    bbb    H17   2288 0.25637600   1.008000   ; qtot -0.056201
 2289         h1     79    bbb    H18   2289 0.25637600   1.008000   ; qtot 0.200175
 2290         os     79    bbb     O1   2290 -0.20025300  16.000000   ; qtot -0.000078
; residue   80 bbb rtp bbb q -0.0
 2291         n3     80    bbb     N1   2291 -0.59685800  14.010000   ; qtot -0.596936
 2292         c3     80    bbb     C1   2292 0.10137000  12.010000   ; qtot -0.495566
 2293         h1     80    bbb     H1   2293 0.04411300   1.008000   ; qtot -0.451453
 2294         h1     80    bbb     H2   2294 0.04411300   1.008000   ; qtot -0.407340
 2295         c3     80    bbb     C2   2295 0.10137000  12.010000   ; qtot -0.305970
 2296         h1     80    bbb     H3   2296 0.04411300   1.008000   ; qtot -0.261857
 2297         h1     80    bbb     H4   2297 0.04411300   1.008000   ; qtot -0.217744
 2298         c3     80    bbb     C3   2298 -0.00195300  12.010000   ; qtot -0.219697
 2299         h1     80    bbb     H5   2299 0.05064400   1.008000   ; qtot -0.169053
 2300         h1     80    bbb     H6   2300 0.05064400   1.008000   ; qtot -0.118409
 2301         c3     80    bbb     C4   2301 -0.01612100  12.010000   ; qtot -0.134530
 2302         hc     80    bbb     H7   2302 0.04936100   1.008000   ; qtot -0.085169
 2303         hc     80    bbb     H8   2303 0.04936100   1.008000   ; qtot -0.035808
 2304         c3     80    bbb     C5   2304 0.11363000  12.010000   ; qtot 0.077822
 2305         hc     80    bbb     H9   2305 0.06265900   1.008000   ; qtot 0.140481
 2306         hc     80    bbb    H10   2306 0.06265900   1.008000   ; qtot 0.203140
 2307         c3     80    bbb     C6   2307 0.11363000  12.010000   ; qtot 0.316770
 2308         hc     80    bbb    H11   2308 0.06265900   1.008000   ; qtot 0.379429
 2309         hc     80    bbb    H12   2309 0.06265900   1.008000   ; qtot 0.442088
 2310         c3     80    bbb     C7   2310 0.05858200  12.010000   ; qtot 0.500670
 2311         h1     80    bbb    H13   2311 0.06123400   1.008000   ; qtot 0.561904
 2312         h1     80    bbb    H14   2312 0.06123400   1.008000   ; qtot 0.623138
 2313         c3     80    bbb     C8   2313 -0.72423400  12.010000   ; qtot -0.101096
 2314         h1     80    bbb    H15   2314 0.25637600   1.008000   ; qtot 0.155280
 2315         h1     80    bbb    H16   2315 0.25637600   1.008000   ; qtot 0.411656
 2316         c3     80    bbb     C9   2316 -0.72423400  12.010000   ; qtot -0.312578
 2317         h1     80    bbb    H17   2317 0.25637600   1.008000   ; qtot -0.056202
 2318         h1     80    bbb    H18   2318 0.25637600   1.008000   ; qtot 0.200174
 2319         os     80    bbb     O1   2319 -0.20025300  16.000000   ; qtot -0.000079
; residue   81 bbb rtp bbb q -0.0
 2320         n3     81    bbb     N1   2320 -0.59685800  14.010000   ; qtot -0.596937
 2321         c3     81    bbb     C1   2321 0.10137000  12.010000   ; qtot -0.495567
 2322         h1     81    bbb     H1   2322 0.04411300   1.008000   ; qtot -0.451454
 2323         h1     81    bbb     H2   2323 0.04411300   1.008000   ; qtot -0.407341
 2324         c3     81    bbb     C2   2324 0.10137000  12.010000   ; qtot -0.305971
 2325         h1     81    bbb     H3   2325 0.04411300   1.008000   ; qtot -0.261858
 2326         h1     81    bbb     H4   2326 0.04411300   1.008000   ; qtot -0.217745
 2327         c3     81    bbb     C3   2327 -0.00195300  12.010000   ; qtot -0.219698
 2328         h1     81    bbb     H5   2328 0.05064400   1.008000   ; qtot -0.169054
 2329         h1     81    bbb     H6   2329 0.05064400   1.008000   ; qtot -0.118410
 2330         c3     81    bbb     C4   2330 -0.01612100  12.010000   ; qtot -0.134531
 2331         hc     81    bbb     H7   2331 0.04936100   1.008000   ; qtot -0.085170
 2332         hc     81    bbb     H8   2332 0.04936100   1.008000   ; qtot -0.035809
 2333         c3     81    bbb     C5   2333 0.11363000  12.010000   ; qtot 0.077821
 2334         hc     81    bbb     H9   2334 0.06265900   1.008000   ; qtot 0.140480
 2335         hc     81    bbb    H10   2335 0.06265900   1.008000   ; qtot 0.203139
 2336         c3     81    bbb     C6   2336 0.11363000  12.010000   ; qtot 0.316769
 2337         hc     81    bbb    H11   2337 0.06265900   1.008000   ; qtot 0.379428
 2338         hc     81    bbb    H12   2338 0.06265900   1.008000   ; qtot 0.442087
 2339         c3     81    bbb     C7   2339 0.05858200  12.010000   ; qtot 0.500669
 2340         h1     81    bbb    H13   2340 0.06123400   1.008000   ; qtot 0.561903
 2341         h1     81    bbb    H14   2341 0.06123400   1.008000   ; qtot 0.623137
 2342         c3     81    bbb     C8   2342 -0.72423400  12.010000   ; qtot -0.101097
 2343         h1     81    bbb    H15   2343 0.25637600   1.008000   ; qtot 0.155279
 2344         h1     81    bbb    H16   2344 0.25637600   1.008000   ; qtot 0.411655
 2345         c3     81    bbb     C9   2345 -0.72423400  12.010000   ; qtot -0.312579
 2346         h1     81    bbb    H17   2346 0.25637600   1.008000   ; qtot -0.056203
 2347         h1     81    bbb    H18   2347 0.25637600   1.008000   ; qtot 0.200173
 2348         os     81    bbb     O1   2348 -0.20025300  16.000000   ; qtot -0.000080
; residue   82 bbb rtp bbb q -0.0
 2349         n3     82    bbb     N1   2349 -0.59685800  14.010000   ; qtot -0.596938
 2350         c3     82    bbb     C1   2350 0.10137000  12.010000   ; qtot -0.495568
 2351         h1     82    bbb     H1   2351 0.04411300   1.008000   ; qtot -0.451455
 2352         h1     82    bbb     H2   2352 0.04411300   1.008000   ; qtot -0.407342
 2353         c3     82    bbb     C2   2353 0.10137000  12.010000   ; qtot -0.305972
 2354         h1     82    bbb     H3   2354 0.04411300   1.008000   ; qtot -0.261859
 2355         h1     82    bbb     H4   2355 0.04411300   1.008000   ; qtot -0.217746
 2356         c3     82    bbb     C3   2356 -0.00195300  12.010000   ; qtot -0.219699
 2357         h1     82    bbb     H5   2357 0.05064400   1.008000   ; qtot -0.169055
 2358         h1     82    bbb     H6   2358 0.05064400   1.008000   ; qtot -0.118411
 2359         c3     82    bbb     C4   2359 -0.01612100  12.010000   ; qtot -0.134532
 2360         hc     82    bbb     H7   2360 0.04936100   1.008000   ; qtot -0.085171
 2361         hc     82    bbb     H8   2361 0.04936100   1.008000   ; qtot -0.035810
 2362         c3     82    bbb     C5   2362 0.11363000  12.010000   ; qtot 0.077820
 2363         hc     82    bbb     H9   2363 0.06265900   1.008000   ; qtot 0.140479
 2364         hc     82    bbb    H10   2364 0.06265900   1.008000   ; qtot 0.203138
 2365         c3     82    bbb     C6   2365 0.11363000  12.010000   ; qtot 0.316768
 2366         hc     82    bbb    H11   2366 0.06265900   1.008000   ; qtot 0.379427
 2367         hc     82    bbb    H12   2367 0.06265900   1.008000   ; qtot 0.442086
 2368         c3     82    bbb     C7   2368 0.05858200  12.010000   ; qtot 0.500668
 2369         h1     82    bbb    H13   2369 0.06123400   1.008000   ; qtot 0.561902
 2370         h1     82    bbb    H14   2370 0.06123400   1.008000   ; qtot 0.623136
 2371         c3     82    bbb     C8   2371 -0.72423400  12.010000   ; qtot -0.101098
 2372         h1     82    bbb    H15   2372 0.25637600   1.008000   ; qtot 0.155278
 2373         h1     82    bbb    H16   2373 0.25637600   1.008000   ; qtot 0.411654
 2374         c3     82    bbb     C9   2374 -0.72423400  12.010000   ; qtot -0.312580
 2375         h1     82    bbb    H17   2375 0.25637600   1.008000   ; qtot -0.056204
 2376         h1     82    bbb    H18   2376 0.25637600   1.008000   ; qtot 0.200172
 2377         os     82    bbb     O1   2377 -0.20025300  16.000000   ; qtot -0.000081
; residue   83 bbb rtp bbb q -0.0
 2378         n3     83    bbb     N1   2378 -0.59685800  14.010000   ; qtot -0.596939
 2379         c3     83    bbb     C1   2379 0.10137000  12.010000   ; qtot -0.495569
 2380         h1     83    bbb     H1   2380 0.04411300   1.008000   ; qtot -0.451456
 2381         h1     83    bbb     H2   2381 0.04411300   1.008000   ; qtot -0.407343
 2382         c3     83    bbb     C2   2382 0.10137000  12.010000   ; qtot -0.305973
 2383         h1     83    bbb     H3   2383 0.04411300   1.008000   ; qtot -0.261860
 2384         h1     83    bbb     H4   2384 0.04411300   1.008000   ; qtot -0.217747
 2385         c3     83    bbb     C3   2385 -0.00195300  12.010000   ; qtot -0.219700
 2386         h1     83    bbb     H5   2386 0.05064400   1.008000   ; qtot -0.169056
 2387         h1     83    bbb     H6   2387 0.05064400   1.008000   ; qtot -0.118412
 2388         c3     83    bbb     C4   2388 -0.01612100  12.010000   ; qtot -0.134533
 2389         hc     83    bbb     H7   2389 0.04936100   1.008000   ; qtot -0.085172
 2390         hc     83    bbb     H8   2390 0.04936100   1.008000   ; qtot -0.035811
 2391         c3     83    bbb     C5   2391 0.11363000  12.010000   ; qtot 0.077819
 2392         hc     83    bbb     H9   2392 0.06265900   1.008000   ; qtot 0.140478
 2393         hc     83    bbb    H10   2393 0.06265900   1.008000   ; qtot 0.203137
 2394         c3     83    bbb     C6   2394 0.11363000  12.010000   ; qtot 0.316767
 2395         hc     83    bbb    H11   2395 0.06265900   1.008000   ; qtot 0.379426
 2396         hc     83    bbb    H12   2396 0.06265900   1.008000   ; qtot 0.442085
 2397         c3     83    bbb     C7   2397 0.05858200  12.010000   ; qtot 0.500667
 2398         h1     83    bbb    H13   2398 0.06123400   1.008000   ; qtot 0.561901
 2399         h1     83    bbb    H14   2399 0.06123400   1.008000   ; qtot 0.623135
 2400         c3     83    bbb     C8   2400 -0.72423400  12.010000   ; qtot -0.101099
 2401         h1     83    bbb    H15   2401 0.25637600   1.008000   ; qtot 0.155277
 2402         h1     83    bbb    H16   2402 0.25637600   1.008000   ; qtot 0.411653
 2403         c3     83    bbb     C9   2403 -0.72423400  12.010000   ; qtot -0.312581
 2404         h1     83    bbb    H17   2404 0.25637600   1.008000   ; qtot -0.056205
 2405         h1     83    bbb    H18   2405 0.25637600   1.008000   ; qtot 0.200171
 2406         os     83    bbb     O1   2406 -0.20025300  16.000000   ; qtot -0.000082
; residue   84 bbb rtp bbb q -0.0
 2407         n3     84    bbb     N1   2407 -0.59685800  14.010000   ; qtot -0.596940
 2408         c3     84    bbb     C1   2408 0.10137000  12.010000   ; qtot -0.495570
 2409         h1     84    bbb     H1   2409 0.04411300   1.008000   ; qtot -0.451457
 2410         h1     84    bbb     H2   2410 0.04411300   1.008000   ; qtot -0.407344
 2411         c3     84    bbb     C2   2411 0.10137000  12.010000   ; qtot -0.305974
 2412         h1     84    bbb     H3   2412 0.04411300   1.008000   ; qtot -0.261861
 2413         h1     84    bbb     H4   2413 0.04411300   1.008000   ; qtot -0.217748
 2414         c3     84    bbb     C3   2414 -0.00195300  12.010000   ; qtot -0.219701
 2415         h1     84    bbb     H5   2415 0.05064400   1.008000   ; qtot -0.169057
 2416         h1     84    bbb     H6   2416 0.05064400   1.008000   ; qtot -0.118413
 2417         c3     84    bbb     C4   2417 -0.01612100  12.010000   ; qtot -0.134534
 2418         hc     84    bbb     H7   2418 0.04936100   1.008000   ; qtot -0.085173
 2419         hc     84    bbb     H8   2419 0.04936100   1.008000   ; qtot -0.035812
 2420         c3     84    bbb     C5   2420 0.11363000  12.010000   ; qtot 0.077818
 2421         hc     84    bbb     H9   2421 0.06265900   1.008000   ; qtot 0.140477
 2422         hc     84    bbb    H10   2422 0.06265900   1.008000   ; qtot 0.203136
 2423         c3     84    bbb     C6   2423 0.11363000  12.010000   ; qtot 0.316766
 2424         hc     84    bbb    H11   2424 0.06265900   1.008000   ; qtot 0.379425
 2425         hc     84    bbb    H12   2425 0.06265900   1.008000   ; qtot 0.442084
 2426         c3     84    bbb     C7   2426 0.05858200  12.010000   ; qtot 0.500666
 2427         h1     84    bbb    H13   2427 0.06123400   1.008000   ; qtot 0.561900
 2428         h1     84    bbb    H14   2428 0.06123400   1.008000   ; qtot 0.623134
 2429         c3     84    bbb     C8   2429 -0.72423400  12.010000   ; qtot -0.101100
 2430         h1     84    bbb    H15   2430 0.25637600   1.008000   ; qtot 0.155276
 2431         h1     84    bbb    H16   2431 0.25637600   1.008000   ; qtot 0.411652
 2432         c3     84    bbb     C9   2432 -0.72423400  12.010000   ; qtot -0.312582
 2433         h1     84    bbb    H17   2433 0.25637600   1.008000   ; qtot -0.056206
 2434         h1     84    bbb    H18   2434 0.25637600   1.008000   ; qtot 0.200170
 2435         os     84    bbb     O1   2435 -0.20025300  16.000000   ; qtot -0.000083
; residue   85 bbb rtp bbb q -0.0
 2436         n3     85    bbb     N1   2436 -0.59685800  14.010000   ; qtot -0.596941
 2437         c3     85    bbb     C1   2437 0.10137000  12.010000   ; qtot -0.495571
 2438         h1     85    bbb     H1   2438 0.04411300   1.008000   ; qtot -0.451458
 2439         h1     85    bbb     H2   2439 0.04411300   1.008000   ; qtot -0.407345
 2440         c3     85    bbb     C2   2440 0.10137000  12.010000   ; qtot -0.305975
 2441         h1     85    bbb     H3   2441 0.04411300   1.008000   ; qtot -0.261862
 2442         h1     85    bbb     H4   2442 0.04411300   1.008000   ; qtot -0.217749
 2443         c3     85    bbb     C3   2443 -0.00195300  12.010000   ; qtot -0.219702
 2444         h1     85    bbb     H5   2444 0.05064400   1.008000   ; qtot -0.169058
 2445         h1     85    bbb     H6   2445 0.05064400   1.008000   ; qtot -0.118414
 2446         c3     85    bbb     C4   2446 -0.01612100  12.010000   ; qtot -0.134535
 2447         hc     85    bbb     H7   2447 0.04936100   1.008000   ; qtot -0.085174
 2448         hc     85    bbb     H8   2448 0.04936100   1.008000   ; qtot -0.035813
 2449         c3     85    bbb     C5   2449 0.11363000  12.010000   ; qtot 0.077817
 2450         hc     85    bbb     H9   2450 0.06265900   1.008000   ; qtot 0.140476
 2451         hc     85    bbb    H10   2451 0.06265900   1.008000   ; qtot 0.203135
 2452         c3     85    bbb     C6   2452 0.11363000  12.010000   ; qtot 0.316765
 2453         hc     85    bbb    H11   2453 0.06265900   1.008000   ; qtot 0.379424
 2454         hc     85    bbb    H12   2454 0.06265900   1.008000   ; qtot 0.442083
 2455         c3     85    bbb     C7   2455 0.05858200  12.010000   ; qtot 0.500665
 2456         h1     85    bbb    H13   2456 0.06123400   1.008000   ; qtot 0.561899
 2457         h1     85    bbb    H14   2457 0.06123400   1.008000   ; qtot 0.623133
 2458         c3     85    bbb     C8   2458 -0.72423400  12.010000   ; qtot -0.101101
 2459         h1     85    bbb    H15   2459 0.25637600   1.008000   ; qtot 0.155275
 2460         h1     85    bbb    H16   2460 0.25637600   1.008000   ; qtot 0.411651
 2461         c3     85    bbb     C9   2461 -0.72423400  12.010000   ; qtot -0.312583
 2462         h1     85    bbb    H17   2462 0.25637600   1.008000   ; qtot -0.056207
 2463         h1     85    bbb    H18   2463 0.25637600   1.008000   ; qtot 0.200169
 2464         os     85    bbb     O1   2464 -0.20025300  16.000000   ; qtot -0.000084
; residue   86 bbb rtp bbb q -0.0
 2465         n3     86    bbb     N1   2465 -0.59685800  14.010000   ; qtot -0.596942
 2466         c3     86    bbb     C1   2466 0.10137000  12.010000   ; qtot -0.495572
 2467         h1     86    bbb     H1   2467 0.04411300   1.008000   ; qtot -0.451459
 2468         h1     86    bbb     H2   2468 0.04411300   1.008000   ; qtot -0.407346
 2469         c3     86    bbb     C2   2469 0.10137000  12.010000   ; qtot -0.305976
 2470         h1     86    bbb     H3   2470 0.04411300   1.008000   ; qtot -0.261863
 2471         h1     86    bbb     H4   2471 0.04411300   1.008000   ; qtot -0.217750
 2472         c3     86    bbb     C3   2472 -0.00195300  12.010000   ; qtot -0.219703
 2473         h1     86    bbb     H5   2473 0.05064400   1.008000   ; qtot -0.169059
 2474         h1     86    bbb     H6   2474 0.05064400   1.008000   ; qtot -0.118415
 2475         c3     86    bbb     C4   2475 -0.01612100  12.010000   ; qtot -0.134536
 2476         hc     86    bbb     H7   2476 0.04936100   1.008000   ; qtot -0.085175
 2477         hc     86    bbb     H8   2477 0.04936100   1.008000   ; qtot -0.035814
 2478         c3     86    bbb     C5   2478 0.11363000  12.010000   ; qtot 0.077816
 2479         hc     86    bbb     H9   2479 0.06265900   1.008000   ; qtot 0.140475
 2480         hc     86    bbb    H10   2480 0.06265900   1.008000   ; qtot 0.203134
 2481         c3     86    bbb     C6   2481 0.11363000  12.010000   ; qtot 0.316764
 2482         hc     86    bbb    H11   2482 0.06265900   1.008000   ; qtot 0.379423
 2483         hc     86    bbb    H12   2483 0.06265900   1.008000   ; qtot 0.442082
 2484         c3     86    bbb     C7   2484 0.05858200  12.010000   ; qtot 0.500664
 2485         h1     86    bbb    H13   2485 0.06123400   1.008000   ; qtot 0.561898
 2486         h1     86    bbb    H14   2486 0.06123400   1.008000   ; qtot 0.623132
 2487         c3     86    bbb     C8   2487 -0.72423400  12.010000   ; qtot -0.101102
 2488         h1     86    bbb    H15   2488 0.25637600   1.008000   ; qtot 0.155274
 2489         h1     86    bbb    H16   2489 0.25637600   1.008000   ; qtot 0.411650
 2490         c3     86    bbb     C9   2490 -0.72423400  12.010000   ; qtot -0.312584
 2491         h1     86    bbb    H17   2491 0.25637600   1.008000   ; qtot -0.056208
 2492         h1     86    bbb    H18   2492 0.25637600   1.008000   ; qtot 0.200168
 2493         os     86    bbb     O1   2493 -0.20025300  16.000000   ; qtot -0.000085
; residue   87 bbb rtp bbb q -0.0
 2494         n3     87    bbb     N1   2494 -0.59685800  14.010000   ; qtot -0.596943
 2495         c3     87    bbb     C1   2495 0.10137000  12.010000   ; qtot -0.495573
 2496         h1     87    bbb     H1   2496 0.04411300   1.008000   ; qtot -0.451460
 2497         h1     87    bbb     H2   2497 0.04411300   1.008000   ; qtot -0.407347
 2498         c3     87    bbb     C2   2498 0.10137000  12.010000   ; qtot -0.305977
 2499         h1     87    bbb     H3   2499 0.04411300   1.008000   ; qtot -0.261864
 2500         h1     87    bbb     H4   2500 0.04411300   1.008000   ; qtot -0.217751
 2501         c3     87    bbb     C3   2501 -0.00195300  12.010000   ; qtot -0.219704
 2502         h1     87    bbb     H5   2502 0.05064400   1.008000   ; qtot -0.169060
 2503         h1     87    bbb     H6   2503 0.05064400   1.008000   ; qtot -0.118416
 2504         c3     87    bbb     C4   2504 -0.01612100  12.010000   ; qtot -0.134537
 2505         hc     87    bbb     H7   2505 0.04936100   1.008000   ; qtot -0.085176
 2506         hc     87    bbb     H8   2506 0.04936100   1.008000   ; qtot -0.035815
 2507         c3     87    bbb     C5   2507 0.11363000  12.010000   ; qtot 0.077815
 2508         hc     87    bbb     H9   2508 0.06265900   1.008000   ; qtot 0.140474
 2509         hc     87    bbb    H10   2509 0.06265900   1.008000   ; qtot 0.203133
 2510         c3     87    bbb     C6   2510 0.11363000  12.010000   ; qtot 0.316763
 2511         hc     87    bbb    H11   2511 0.06265900   1.008000   ; qtot 0.379422
 2512         hc     87    bbb    H12   2512 0.06265900   1.008000   ; qtot 0.442081
 2513         c3     87    bbb     C7   2513 0.05858200  12.010000   ; qtot 0.500663
 2514         h1     87    bbb    H13   2514 0.06123400   1.008000   ; qtot 0.561897
 2515         h1     87    bbb    H14   2515 0.06123400   1.008000   ; qtot 0.623131
 2516         c3     87    bbb     C8   2516 -0.72423400  12.010000   ; qtot -0.101103
 2517         h1     87    bbb    H15   2517 0.25637600   1.008000   ; qtot 0.155273
 2518         h1     87    bbb    H16   2518 0.25637600   1.008000   ; qtot 0.411649
 2519         c3     87    bbb     C9   2519 -0.72423400  12.010000   ; qtot -0.312585
 2520         h1     87    bbb    H17   2520 0.25637600   1.008000   ; qtot -0.056209
 2521         h1     87    bbb    H18   2521 0.25637600   1.008000   ; qtot 0.200167
 2522         os     87    bbb     O1   2522 -0.20025300  16.000000   ; qtot -0.000086
; residue   88 bbb rtp bbb q -0.0
 2523         n3     88    bbb     N1   2523 -0.59685800  14.010000   ; qtot -0.596944
 2524         c3     88    bbb     C1   2524 0.10137000  12.010000   ; qtot -0.495574
 2525         h1     88    bbb     H1   2525 0.04411300   1.008000   ; qtot -0.451461
 2526         h1     88    bbb     H2   2526 0.04411300   1.008000   ; qtot -0.407348
 2527         c3     88    bbb     C2   2527 0.10137000  12.010000   ; qtot -0.305978
 2528         h1     88    bbb     H3   2528 0.04411300   1.008000   ; qtot -0.261865
 2529         h1     88    bbb     H4   2529 0.04411300   1.008000   ; qtot -0.217752
 2530         c3     88    bbb     C3   2530 -0.00195300  12.010000   ; qtot -0.219705
 2531         h1     88    bbb     H5   2531 0.05064400   1.008000   ; qtot -0.169061
 2532         h1     88    bbb     H6   2532 0.05064400   1.008000   ; qtot -0.118417
 2533         c3     88    bbb     C4   2533 -0.01612100  12.010000   ; qtot -0.134538
 2534         hc     88    bbb     H7   2534 0.04936100   1.008000   ; qtot -0.085177
 2535         hc     88    bbb     H8   2535 0.04936100   1.008000   ; qtot -0.035816
 2536         c3     88    bbb     C5   2536 0.11363000  12.010000   ; qtot 0.077814
 2537         hc     88    bbb     H9   2537 0.06265900   1.008000   ; qtot 0.140473
 2538         hc     88    bbb    H10   2538 0.06265900   1.008000   ; qtot 0.203132
 2539         c3     88    bbb     C6   2539 0.11363000  12.010000   ; qtot 0.316762
 2540         hc     88    bbb    H11   2540 0.06265900   1.008000   ; qtot 0.379421
 2541         hc     88    bbb    H12   2541 0.06265900   1.008000   ; qtot 0.442080
 2542         c3     88    bbb     C7   2542 0.05858200  12.010000   ; qtot 0.500662
 2543         h1     88    bbb    H13   2543 0.06123400   1.008000   ; qtot 0.561896
 2544         h1     88    bbb    H14   2544 0.06123400   1.008000   ; qtot 0.623130
 2545         c3     88    bbb     C8   2545 -0.72423400  12.010000   ; qtot -0.101104
 2546         h1     88    bbb    H15   2546 0.25637600   1.008000   ; qtot 0.155272
 2547         h1     88    bbb    H16   2547 0.25637600   1.008000   ; qtot 0.411648
 2548         c3     88    bbb     C9   2548 -0.72423400  12.010000   ; qtot -0.312586
 2549         h1     88    bbb    H17   2549 0.25637600   1.008000   ; qtot -0.056210
 2550         h1     88    bbb    H18   2550 0.25637600   1.008000   ; qtot 0.200166
 2551         os     88    bbb     O1   2551 -0.20025300  16.000000   ; qtot -0.000087
; residue   89 bbb rtp bbb q -0.0
 2552         n3     89    bbb     N1   2552 -0.59685800  14.010000   ; qtot -0.596945
 2553         c3     89    bbb     C1   2553 0.10137000  12.010000   ; qtot -0.495575
 2554         h1     89    bbb     H1   2554 0.04411300   1.008000   ; qtot -0.451462
 2555         h1     89    bbb     H2   2555 0.04411300   1.008000   ; qtot -0.407349
 2556         c3     89    bbb     C2   2556 0.10137000  12.010000   ; qtot -0.305979
 2557         h1     89    bbb     H3   2557 0.04411300   1.008000   ; qtot -0.261866
 2558         h1     89    bbb     H4   2558 0.04411300   1.008000   ; qtot -0.217753
 2559         c3     89    bbb     C3   2559 -0.00195300  12.010000   ; qtot -0.219706
 2560         h1     89    bbb     H5   2560 0.05064400   1.008000   ; qtot -0.169062
 2561         h1     89    bbb     H6   2561 0.05064400   1.008000   ; qtot -0.118418
 2562         c3     89    bbb     C4   2562 -0.01612100  12.010000   ; qtot -0.134539
 2563         hc     89    bbb     H7   2563 0.04936100   1.008000   ; qtot -0.085178
 2564         hc     89    bbb     H8   2564 0.04936100   1.008000   ; qtot -0.035817
 2565         c3     89    bbb     C5   2565 0.11363000  12.010000   ; qtot 0.077813
 2566         hc     89    bbb     H9   2566 0.06265900   1.008000   ; qtot 0.140472
 2567         hc     89    bbb    H10   2567 0.06265900   1.008000   ; qtot 0.203131
 2568         c3     89    bbb     C6   2568 0.11363000  12.010000   ; qtot 0.316761
 2569         hc     89    bbb    H11   2569 0.06265900   1.008000   ; qtot 0.379420
 2570         hc     89    bbb    H12   2570 0.06265900   1.008000   ; qtot 0.442079
 2571         c3     89    bbb     C7   2571 0.05858200  12.010000   ; qtot 0.500661
 2572         h1     89    bbb    H13   2572 0.06123400   1.008000   ; qtot 0.561895
 2573         h1     89    bbb    H14   2573 0.06123400   1.008000   ; qtot 0.623129
 2574         c3     89    bbb     C8   2574 -0.72423400  12.010000   ; qtot -0.101105
 2575         h1     89    bbb    H15   2575 0.25637600   1.008000   ; qtot 0.155271
 2576         h1     89    bbb    H16   2576 0.25637600   1.008000   ; qtot 0.411647
 2577         c3     89    bbb     C9   2577 -0.72423400  12.010000   ; qtot -0.312587
 2578         h1     89    bbb    H17   2578 0.25637600   1.008000   ; qtot -0.056211
 2579         h1     89    bbb    H18   2579 0.25637600   1.008000   ; qtot 0.200165
 2580         os     89    bbb     O1   2580 -0.20025300  16.000000   ; qtot -0.000088
; residue   90 bbb rtp bbb q -0.0
 2581         n3     90    bbb     N1   2581 -0.59685800  14.010000   ; qtot -0.596946
 2582         c3     90    bbb     C1   2582 0.10137000  12.010000   ; qtot -0.495576
 2583         h1     90    bbb     H1   2583 0.04411300   1.008000   ; qtot -0.451463
 2584         h1     90    bbb     H2   2584 0.04411300   1.008000   ; qtot -0.407350
 2585         c3     90    bbb     C2   2585 0.10137000  12.010000   ; qtot -0.305980
 2586         h1     90    bbb     H3   2586 0.04411300   1.008000   ; qtot -0.261867
 2587         h1     90    bbb     H4   2587 0.04411300   1.008000   ; qtot -0.217754
 2588         c3     90    bbb     C3   2588 -0.00195300  12.010000   ; qtot -0.219707
 2589         h1     90    bbb     H5   2589 0.05064400   1.008000   ; qtot -0.169063
 2590         h1     90    bbb     H6   2590 0.05064400   1.008000   ; qtot -0.118419
 2591         c3     90    bbb     C4   2591 -0.01612100  12.010000   ; qtot -0.134540
 2592         hc     90    bbb     H7   2592 0.04936100   1.008000   ; qtot -0.085179
 2593         hc     90    bbb     H8   2593 0.04936100   1.008000   ; qtot -0.035818
 2594         c3     90    bbb     C5   2594 0.11363000  12.010000   ; qtot 0.077812
 2595         hc     90    bbb     H9   2595 0.06265900   1.008000   ; qtot 0.140471
 2596         hc     90    bbb    H10   2596 0.06265900   1.008000   ; qtot 0.203130
 2597         c3     90    bbb     C6   2597 0.11363000  12.010000   ; qtot 0.316760
 2598         hc     90    bbb    H11   2598 0.06265900   1.008000   ; qtot 0.379419
 2599         hc     90    bbb    H12   2599 0.06265900   1.008000   ; qtot 0.442078
 2600         c3     90    bbb     C7   2600 0.05858200  12.010000   ; qtot 0.500660
 2601         h1     90    bbb    H13   2601 0.06123400   1.008000   ; qtot 0.561894
 2602         h1     90    bbb    H14   2602 0.06123400   1.008000   ; qtot 0.623128
 2603         c3     90    bbb     C8   2603 -0.72423400  12.010000   ; qtot -0.101106
 2604         h1     90    bbb    H15   2604 0.25637600   1.008000   ; qtot 0.155270
 2605         h1     90    bbb    H16   2605 0.25637600   1.008000   ; qtot 0.411646
 2606         c3     90    bbb     C9   2606 -0.72423400  12.010000   ; qtot -0.312588
 2607         h1     90    bbb    H17   2607 0.25637600   1.008000   ; qtot -0.056212
 2608         h1     90    bbb    H18   2608 0.25637600   1.008000   ; qtot 0.200164
 2609         os     90    bbb     O1   2609 -0.20025300  16.000000   ; qtot -0.000089
; residue   91 bbb rtp bbb q -0.0
 2610         n3     91    bbb     N1   2610 -0.59685800  14.010000   ; qtot -0.596947
 2611         c3     91    bbb     C1   2611 0.10137000  12.010000   ; qtot -0.495577
 2612         h1     91    bbb     H1   2612 0.04411300   1.008000   ; qtot -0.451464
 2613         h1     91    bbb     H2   2613 0.04411300   1.008000   ; qtot -0.407351
 2614         c3     91    bbb     C2   2614 0.10137000  12.010000   ; qtot -0.305981
 2615         h1     91    bbb     H3   2615 0.04411300   1.008000   ; qtot -0.261868
 2616         h1     91    bbb     H4   2616 0.04411300   1.008000   ; qtot -0.217755
 2617         c3     91    bbb     C3   2617 -0.00195300  12.010000   ; qtot -0.219708
 2618         h1     91    bbb     H5   2618 0.05064400   1.008000   ; qtot -0.169064
 2619         h1     91    bbb     H6   2619 0.05064400   1.008000   ; qtot -0.118420
 2620         c3     91    bbb     C4   2620 -0.01612100  12.010000   ; qtot -0.134541
 2621         hc     91    bbb     H7   2621 0.04936100   1.008000   ; qtot -0.085180
 2622         hc     91    bbb     H8   2622 0.04936100   1.008000   ; qtot -0.035819
 2623         c3     91    bbb     C5   2623 0.11363000  12.010000   ; qtot 0.077811
 2624         hc     91    bbb     H9   2624 0.06265900   1.008000   ; qtot 0.140470
 2625         hc     91    bbb    H10   2625 0.06265900   1.008000   ; qtot 0.203129
 2626         c3     91    bbb     C6   2626 0.11363000  12.010000   ; qtot 0.316759
 2627         hc     91    bbb    H11   2627 0.06265900   1.008000   ; qtot 0.379418
 2628         hc     91    bbb    H12   2628 0.06265900   1.008000   ; qtot 0.442077
 2629         c3     91    bbb     C7   2629 0.05858200  12.010000   ; qtot 0.500659
 2630         h1     91    bbb    H13   2630 0.06123400   1.008000   ; qtot 0.561893
 2631         h1     91    bbb    H14   2631 0.06123400   1.008000   ; qtot 0.623127
 2632         c3     91    bbb     C8   2632 -0.72423400  12.010000   ; qtot -0.101107
 2633         h1     91    bbb    H15   2633 0.25637600   1.008000   ; qtot 0.155269
 2634         h1     91    bbb    H16   2634 0.25637600   1.008000   ; qtot 0.411645
 2635         c3     91    bbb     C9   2635 -0.72423400  12.010000   ; qtot -0.312589
 2636         h1     91    bbb    H17   2636 0.25637600   1.008000   ; qtot -0.056213
 2637         h1     91    bbb    H18   2637 0.25637600   1.008000   ; qtot 0.200163
 2638         os     91    bbb     O1   2638 -0.20025300  16.000000   ; qtot -0.000090
; residue   92 bbb rtp bbb q -0.0
 2639         n3     92    bbb     N1   2639 -0.59685800  14.010000   ; qtot -0.596948
 2640         c3     92    bbb     C1   2640 0.10137000  12.010000   ; qtot -0.495578
 2641         h1     92    bbb     H1   2641 0.04411300   1.008000   ; qtot -0.451465
 2642         h1     92    bbb     H2   2642 0.04411300   1.008000   ; qtot -0.407352
 2643         c3     92    bbb     C2   2643 0.10137000  12.010000   ; qtot -0.305982
 2644         h1     92    bbb     H3   2644 0.04411300   1.008000   ; qtot -0.261869
 2645         h1     92    bbb     H4   2645 0.04411300   1.008000   ; qtot -0.217756
 2646         c3     92    bbb     C3   2646 -0.00195300  12.010000   ; qtot -0.219709
 2647         h1     92    bbb     H5   2647 0.05064400   1.008000   ; qtot -0.169065
 2648         h1     92    bbb     H6   2648 0.05064400   1.008000   ; qtot -0.118421
 2649         c3     92    bbb     C4   2649 -0.01612100  12.010000   ; qtot -0.134542
 2650         hc     92    bbb     H7   2650 0.04936100   1.008000   ; qtot -0.085181
 2651         hc     92    bbb     H8   2651 0.04936100   1.008000   ; qtot -0.035820
 2652         c3     92    bbb     C5   2652 0.11363000  12.010000   ; qtot 0.077810
 2653         hc     92    bbb     H9   2653 0.06265900   1.008000   ; qtot 0.140469
 2654         hc     92    bbb    H10   2654 0.06265900   1.008000   ; qtot 0.203128
 2655         c3     92    bbb     C6   2655 0.11363000  12.010000   ; qtot 0.316758
 2656         hc     92    bbb    H11   2656 0.06265900   1.008000   ; qtot 0.379417
 2657         hc     92    bbb    H12   2657 0.06265900   1.008000   ; qtot 0.442076
 2658         c3     92    bbb     C7   2658 0.05858200  12.010000   ; qtot 0.500658
 2659         h1     92    bbb    H13   2659 0.06123400   1.008000   ; qtot 0.561892
 2660         h1     92    bbb    H14   2660 0.06123400   1.008000   ; qtot 0.623126
 2661         c3     92    bbb     C8   2661 -0.72423400  12.010000   ; qtot -0.101108
 2662         h1     92    bbb    H15   2662 0.25637600   1.008000   ; qtot 0.155268
 2663         h1     92    bbb    H16   2663 0.25637600   1.008000   ; qtot 0.411644
 2664         c3     92    bbb     C9   2664 -0.72423400  12.010000   ; qtot -0.312590
 2665         h1     92    bbb    H17   2665 0.25637600   1.008000   ; qtot -0.056214
 2666         h1     92    bbb    H18   2666 0.25637600   1.008000   ; qtot 0.200162
 2667         os     92    bbb     O1   2667 -0.20025300  16.000000   ; qtot -0.000091
; residue   93 bbb rtp bbb q -0.0
 2668         n3     93    bbb     N1   2668 -0.59685800  14.010000   ; qtot -0.596949
 2669         c3     93    bbb     C1   2669 0.10137000  12.010000   ; qtot -0.495579
 2670         h1     93    bbb     H1   2670 0.04411300   1.008000   ; qtot -0.451466
 2671         h1     93    bbb     H2   2671 0.04411300   1.008000   ; qtot -0.407353
 2672         c3     93    bbb     C2   2672 0.10137000  12.010000   ; qtot -0.305983
 2673         h1     93    bbb     H3   2673 0.04411300   1.008000   ; qtot -0.261870
 2674         h1     93    bbb     H4   2674 0.04411300   1.008000   ; qtot -0.217757
 2675         c3     93    bbb     C3   2675 -0.00195300  12.010000   ; qtot -0.219710
 2676         h1     93    bbb     H5   2676 0.05064400   1.008000   ; qtot -0.169066
 2677         h1     93    bbb     H6   2677 0.05064400   1.008000   ; qtot -0.118422
 2678         c3     93    bbb     C4   2678 -0.01612100  12.010000   ; qtot -0.134543
 2679         hc     93    bbb     H7   2679 0.04936100   1.008000   ; qtot -0.085182
 2680         hc     93    bbb     H8   2680 0.04936100   1.008000   ; qtot -0.035821
 2681         c3     93    bbb     C5   2681 0.11363000  12.010000   ; qtot 0.077809
 2682         hc     93    bbb     H9   2682 0.06265900   1.008000   ; qtot 0.140468
 2683         hc     93    bbb    H10   2683 0.06265900   1.008000   ; qtot 0.203127
 2684         c3     93    bbb     C6   2684 0.11363000  12.010000   ; qtot 0.316757
 2685         hc     93    bbb    H11   2685 0.06265900   1.008000   ; qtot 0.379416
 2686         hc     93    bbb    H12   2686 0.06265900   1.008000   ; qtot 0.442075
 2687         c3     93    bbb     C7   2687 0.05858200  12.010000   ; qtot 0.500657
 2688         h1     93    bbb    H13   2688 0.06123400   1.008000   ; qtot 0.561891
 2689         h1     93    bbb    H14   2689 0.06123400   1.008000   ; qtot 0.623125
 2690         c3     93    bbb     C8   2690 -0.72423400  12.010000   ; qtot -0.101109
 2691         h1     93    bbb    H15   2691 0.25637600   1.008000   ; qtot 0.155267
 2692         h1     93    bbb    H16   2692 0.25637600   1.008000   ; qtot 0.411643
 2693         c3     93    bbb     C9   2693 -0.72423400  12.010000   ; qtot -0.312591
 2694         h1     93    bbb    H17   2694 0.25637600   1.008000   ; qtot -0.056215
 2695         h1     93    bbb    H18   2695 0.25637600   1.008000   ; qtot 0.200161
 2696         os     93    bbb     O1   2696 -0.20025300  16.000000   ; qtot -0.000092
; residue   94 bbb rtp bbb q -0.0
 2697         n3     94    bbb     N1   2697 -0.59685800  14.010000   ; qtot -0.596950
 2698         c3     94    bbb     C1   2698 0.10137000  12.010000   ; qtot -0.495580
 2699         h1     94    bbb     H1   2699 0.04411300   1.008000   ; qtot -0.451467
 2700         h1     94    bbb     H2   2700 0.04411300   1.008000   ; qtot -0.407354
 2701         c3     94    bbb     C2   2701 0.10137000  12.010000   ; qtot -0.305984
 2702         h1     94    bbb     H3   2702 0.04411300   1.008000   ; qtot -0.261871
 2703         h1     94    bbb     H4   2703 0.04411300   1.008000   ; qtot -0.217758
 2704         c3     94    bbb     C3   2704 -0.00195300  12.010000   ; qtot -0.219711
 2705         h1     94    bbb     H5   2705 0.05064400   1.008000   ; qtot -0.169067
 2706         h1     94    bbb     H6   2706 0.05064400   1.008000   ; qtot -0.118423
 2707         c3     94    bbb     C4   2707 -0.01612100  12.010000   ; qtot -0.134544
 2708         hc     94    bbb     H7   2708 0.04936100   1.008000   ; qtot -0.085183
 2709         hc     94    bbb     H8   2709 0.04936100   1.008000   ; qtot -0.035822
 2710         c3     94    bbb     C5   2710 0.11363000  12.010000   ; qtot 0.077808
 2711         hc     94    bbb     H9   2711 0.06265900   1.008000   ; qtot 0.140467
 2712         hc     94    bbb    H10   2712 0.06265900   1.008000   ; qtot 0.203126
 2713         c3     94    bbb     C6   2713 0.11363000  12.010000   ; qtot 0.316756
 2714         hc     94    bbb    H11   2714 0.06265900   1.008000   ; qtot 0.379415
 2715         hc     94    bbb    H12   2715 0.06265900   1.008000   ; qtot 0.442074
 2716         c3     94    bbb     C7   2716 0.05858200  12.010000   ; qtot 0.500656
 2717         h1     94    bbb    H13   2717 0.06123400   1.008000   ; qtot 0.561890
 2718         h1     94    bbb    H14   2718 0.06123400   1.008000   ; qtot 0.623124
 2719         c3     94    bbb     C8   2719 -0.72423400  12.010000   ; qtot -0.101110
 2720         h1     94    bbb    H15   2720 0.25637600   1.008000   ; qtot 0.155266
 2721         h1     94    bbb    H16   2721 0.25637600   1.008000   ; qtot 0.411642
 2722         c3     94    bbb     C9   2722 -0.72423400  12.010000   ; qtot -0.312592
 2723         h1     94    bbb    H17   2723 0.25637600   1.008000   ; qtot -0.056216
 2724         h1     94    bbb    H18   2724 0.25637600   1.008000   ; qtot 0.200160
 2725         os     94    bbb     O1   2725 -0.20025300  16.000000   ; qtot -0.000093
; residue   95 bbb rtp bbb q -0.0
 2726         n3     95    bbb     N1   2726 -0.59685800  14.010000   ; qtot -0.596951
 2727         c3     95    bbb     C1   2727 0.10137000  12.010000   ; qtot -0.495581
 2728         h1     95    bbb     H1   2728 0.04411300   1.008000   ; qtot -0.451468
 2729         h1     95    bbb     H2   2729 0.04411300   1.008000   ; qtot -0.407355
 2730         c3     95    bbb     C2   2730 0.10137000  12.010000   ; qtot -0.305985
 2731         h1     95    bbb     H3   2731 0.04411300   1.008000   ; qtot -0.261872
 2732         h1     95    bbb     H4   2732 0.04411300   1.008000   ; qtot -0.217759
 2733         c3     95    bbb     C3   2733 -0.00195300  12.010000   ; qtot -0.219712
 2734         h1     95    bbb     H5   2734 0.05064400   1.008000   ; qtot -0.169068
 2735         h1     95    bbb     H6   2735 0.05064400   1.008000   ; qtot -0.118424
 2736         c3     95    bbb     C4   2736 -0.01612100  12.010000   ; qtot -0.134545
 2737         hc     95    bbb     H7   2737 0.04936100   1.008000   ; qtot -0.085184
 2738         hc     95    bbb     H8   2738 0.04936100   1.008000   ; qtot -0.035823
 2739         c3     95    bbb     C5   2739 0.11363000  12.010000   ; qtot 0.077807
 2740         hc     95    bbb     H9   2740 0.06265900   1.008000   ; qtot 0.140466
 2741         hc     95    bbb    H10   2741 0.06265900   1.008000   ; qtot 0.203125
 2742         c3     95    bbb     C6   2742 0.11363000  12.010000   ; qtot 0.316755
 2743         hc     95    bbb    H11   2743 0.06265900   1.008000   ; qtot 0.379414
 2744         hc     95    bbb    H12   2744 0.06265900   1.008000   ; qtot 0.442073
 2745         c3     95    bbb     C7   2745 0.05858200  12.010000   ; qtot 0.500655
 2746         h1     95    bbb    H13   2746 0.06123400   1.008000   ; qtot 0.561889
 2747         h1     95    bbb    H14   2747 0.06123400   1.008000   ; qtot 0.623123
 2748         c3     95    bbb     C8   2748 -0.72423400  12.010000   ; qtot -0.101111
 2749         h1     95    bbb    H15   2749 0.25637600   1.008000   ; qtot 0.155265
 2750         h1     95    bbb    H16   2750 0.25637600   1.008000   ; qtot 0.411641
 2751         c3     95    bbb     C9   2751 -0.72423400  12.010000   ; qtot -0.312593
 2752         h1     95    bbb    H17   2752 0.25637600   1.008000   ; qtot -0.056217
 2753         h1     95    bbb    H18   2753 0.25637600   1.008000   ; qtot 0.200159
 2754         os     95    bbb     O1   2754 -0.20025300  16.000000   ; qtot -0.000094
; residue   96 bbb rtp bbb q -0.0
 2755         n3     96    bbb     N1   2755 -0.59685800  14.010000   ; qtot -0.596952
 2756         c3     96    bbb     C1   2756 0.10137000  12.010000   ; qtot -0.495582
 2757         h1     96    bbb     H1   2757 0.04411300   1.008000   ; qtot -0.451469
 2758         h1     96    bbb     H2   2758 0.04411300   1.008000   ; qtot -0.407356
 2759         c3     96    bbb     C2   2759 0.10137000  12.010000   ; qtot -0.305986
 2760         h1     96    bbb     H3   2760 0.04411300   1.008000   ; qtot -0.261873
 2761         h1     96    bbb     H4   2761 0.04411300   1.008000   ; qtot -0.217760
 2762         c3     96    bbb     C3   2762 -0.00195300  12.010000   ; qtot -0.219713
 2763         h1     96    bbb     H5   2763 0.05064400   1.008000   ; qtot -0.169069
 2764         h1     96    bbb     H6   2764 0.05064400   1.008000   ; qtot -0.118425
 2765         c3     96    bbb     C4   2765 -0.01612100  12.010000   ; qtot -0.134546
 2766         hc     96    bbb     H7   2766 0.04936100   1.008000   ; qtot -0.085185
 2767         hc     96    bbb     H8   2767 0.04936100   1.008000   ; qtot -0.035824
 2768         c3     96    bbb     C5   2768 0.11363000  12.010000   ; qtot 0.077806
 2769         hc     96    bbb     H9   2769 0.06265900   1.008000   ; qtot 0.140465
 2770         hc     96    bbb    H10   2770 0.06265900   1.008000   ; qtot 0.203124
 2771         c3     96    bbb     C6   2771 0.11363000  12.010000   ; qtot 0.316754
 2772         hc     96    bbb    H11   2772 0.06265900   1.008000   ; qtot 0.379413
 2773         hc     96    bbb    H12   2773 0.06265900   1.008000   ; qtot 0.442072
 2774         c3     96    bbb     C7   2774 0.05858200  12.010000   ; qtot 0.500654
 2775         h1     96    bbb    H13   2775 0.06123400   1.008000   ; qtot 0.561888
 2776         h1     96    bbb    H14   2776 0.06123400   1.008000   ; qtot 0.623122
 2777         c3     96    bbb     C8   2777 -0.72423400  12.010000   ; qtot -0.101112
 2778         h1     96    bbb    H15   2778 0.25637600   1.008000   ; qtot 0.155264
 2779         h1     96    bbb    H16   2779 0.25637600   1.008000   ; qtot 0.411640
 2780         c3     96    bbb     C9   2780 -0.72423400  12.010000   ; qtot -0.312594
 2781         h1     96    bbb    H17   2781 0.25637600   1.008000   ; qtot -0.056218
 2782         h1     96    bbb    H18   2782 0.25637600   1.008000   ; qtot 0.200158
 2783         os     96    bbb     O1   2783 -0.20025300  16.000000   ; qtot -0.000095
; residue   97 bbb rtp bbb q -0.0
 2784         n3     97    bbb     N1   2784 -0.59685800  14.010000   ; qtot -0.596953
 2785         c3     97    bbb     C1   2785 0.10137000  12.010000   ; qtot -0.495583
 2786         h1     97    bbb     H1   2786 0.04411300   1.008000   ; qtot -0.451470
 2787         h1     97    bbb     H2   2787 0.04411300   1.008000   ; qtot -0.407357
 2788         c3     97    bbb     C2   2788 0.10137000  12.010000   ; qtot -0.305987
 2789         h1     97    bbb     H3   2789 0.04411300   1.008000   ; qtot -0.261874
 2790         h1     97    bbb     H4   2790 0.04411300   1.008000   ; qtot -0.217761
 2791         c3     97    bbb     C3   2791 -0.00195300  12.010000   ; qtot -0.219714
 2792         h1     97    bbb     H5   2792 0.05064400   1.008000   ; qtot -0.169070
 2793         h1     97    bbb     H6   2793 0.05064400   1.008000   ; qtot -0.118426
 2794         c3     97    bbb     C4   2794 -0.01612100  12.010000   ; qtot -0.134547
 2795         hc     97    bbb     H7   2795 0.04936100   1.008000   ; qtot -0.085186
 2796         hc     97    bbb     H8   2796 0.04936100   1.008000   ; qtot -0.035825
 2797         c3     97    bbb     C5   2797 0.11363000  12.010000   ; qtot 0.077805
 2798         hc     97    bbb     H9   2798 0.06265900   1.008000   ; qtot 0.140464
 2799         hc     97    bbb    H10   2799 0.06265900   1.008000   ; qtot 0.203123
 2800         c3     97    bbb     C6   2800 0.11363000  12.010000   ; qtot 0.316753
 2801         hc     97    bbb    H11   2801 0.06265900   1.008000   ; qtot 0.379412
 2802         hc     97    bbb    H12   2802 0.06265900   1.008000   ; qtot 0.442071
 2803         c3     97    bbb     C7   2803 0.05858200  12.010000   ; qtot 0.500653
 2804         h1     97    bbb    H13   2804 0.06123400   1.008000   ; qtot 0.561887
 2805         h1     97    bbb    H14   2805 0.06123400   1.008000   ; qtot 0.623121
 2806         c3     97    bbb     C8   2806 -0.72423400  12.010000   ; qtot -0.101113
 2807         h1     97    bbb    H15   2807 0.25637600   1.008000   ; qtot 0.155263
 2808         h1     97    bbb    H16   2808 0.25637600   1.008000   ; qtot 0.411639
 2809         c3     97    bbb     C9   2809 -0.72423400  12.010000   ; qtot -0.312595
 2810         h1     97    bbb    H17   2810 0.25637600   1.008000   ; qtot -0.056219
 2811         h1     97    bbb    H18   2811 0.25637600   1.008000   ; qtot 0.200157
 2812         os     97    bbb     O1   2812 -0.20025300  16.000000   ; qtot -0.000096
; residue   98 bbb rtp bbb q -0.0
 2813         n3     98    bbb     N1   2813 -0.59685800  14.010000   ; qtot -0.596954
 2814         c3     98    bbb     C1   2814 0.10137000  12.010000   ; qtot -0.495584
 2815         h1     98    bbb     H1   2815 0.04411300   1.008000   ; qtot -0.451471
 2816         h1     98    bbb     H2   2816 0.04411300   1.008000   ; qtot -0.407358
 2817         c3     98    bbb     C2   2817 0.10137000  12.010000   ; qtot -0.305988
 2818         h1     98    bbb     H3   2818 0.04411300   1.008000   ; qtot -0.261875
 2819         h1     98    bbb     H4   2819 0.04411300   1.008000   ; qtot -0.217762
 2820         c3     98    bbb     C3   2820 -0.00195300  12.010000   ; qtot -0.219715
 2821         h1     98    bbb     H5   2821 0.05064400   1.008000   ; qtot -0.169071
 2822         h1     98    bbb     H6   2822 0.05064400   1.008000   ; qtot -0.118427
 2823         c3     98    bbb     C4   2823 -0.01612100  12.010000   ; qtot -0.134548
 2824         hc     98    bbb     H7   2824 0.04936100   1.008000   ; qtot -0.085187
 2825         hc     98    bbb     H8   2825 0.04936100   1.008000   ; qtot -0.035826
 2826         c3     98    bbb     C5   2826 0.11363000  12.010000   ; qtot 0.077804
 2827         hc     98    bbb     H9   2827 0.06265900   1.008000   ; qtot 0.140463
 2828         hc     98    bbb    H10   2828 0.06265900   1.008000   ; qtot 0.203122
 2829         c3     98    bbb     C6   2829 0.11363000  12.010000   ; qtot 0.316752
 2830         hc     98    bbb    H11   2830 0.06265900   1.008000   ; qtot 0.379411
 2831         hc     98    bbb    H12   2831 0.06265900   1.008000   ; qtot 0.442070
 2832         c3     98    bbb     C7   2832 0.05858200  12.010000   ; qtot 0.500652
 2833         h1     98    bbb    H13   2833 0.06123400   1.008000   ; qtot 0.561886
 2834         h1     98    bbb    H14   2834 0.06123400   1.008000   ; qtot 0.623120
 2835         c3     98    bbb     C8   2835 -0.72423400  12.010000   ; qtot -0.101114
 2836         h1     98    bbb    H15   2836 0.25637600   1.008000   ; qtot 0.155262
 2837         h1     98    bbb    H16   2837 0.25637600   1.008000   ; qtot 0.411638
 2838         c3     98    bbb     C9   2838 -0.72423400  12.010000   ; qtot -0.312596
 2839         h1     98    bbb    H17   2839 0.25637600   1.008000   ; qtot -0.056220
 2840         h1     98    bbb    H18   2840 0.25637600   1.008000   ; qtot 0.200156
 2841         os     98    bbb     O1   2841 -0.20025300  16.000000   ; qtot -0.000097
; residue   99 bbb rtp bbb q -0.0
 2842         n3     99    bbb     N1   2842 -0.59685800  14.010000   ; qtot -0.596955
 2843         c3     99    bbb     C1   2843 0.10137000  12.010000   ; qtot -0.495585
 2844         h1     99    bbb     H1   2844 0.04411300   1.008000   ; qtot -0.451472
 2845         h1     99    bbb     H2   2845 0.04411300   1.008000   ; qtot -0.407359
 2846         c3     99    bbb     C2   2846 0.10137000  12.010000   ; qtot -0.305989
 2847         h1     99    bbb     H3   2847 0.04411300   1.008000   ; qtot -0.261876
 2848         h1     99    bbb     H4   2848 0.04411300   1.008000   ; qtot -0.217763
 2849         c3     99    bbb     C3   2849 -0.00195300  12.010000   ; qtot -0.219716
 2850         h1     99    bbb     H5   2850 0.05064400   1.008000   ; qtot -0.169072
 2851         h1     99    bbb     H6   2851 0.05064400   1.008000   ; qtot -0.118428
 2852         c3     99    bbb     C4   2852 -0.01612100  12.010000   ; qtot -0.134549
 2853         hc     99    bbb     H7   2853 0.04936100   1.008000   ; qtot -0.085188
 2854         hc     99    bbb     H8   2854 0.04936100   1.008000   ; qtot -0.035827
 2855         c3     99    bbb     C5   2855 0.11363000  12.010000   ; qtot 0.077803
 2856         hc     99    bbb     H9   2856 0.06265900   1.008000   ; qtot 0.140462
 2857         hc     99    bbb    H10   2857 0.06265900   1.008000   ; qtot 0.203121
 2858         c3     99    bbb     C6   2858 0.11363000  12.010000   ; qtot 0.316751
 2859         hc     99    bbb    H11   2859 0.06265900   1.008000   ; qtot 0.379410
 2860         hc     99    bbb    H12   2860 0.06265900   1.008000   ; qtot 0.442069
 2861         c3     99    bbb     C7   2861 0.05858200  12.010000   ; qtot 0.500651
 2862         h1     99    bbb    H13   2862 0.06123400   1.008000   ; qtot 0.561885
 2863         h1     99    bbb    H14   2863 0.06123400   1.008000   ; qtot 0.623119
 2864         c3     99    bbb     C8   2864 -0.72423400  12.010000   ; qtot -0.101115
 2865         h1     99    bbb    H15   2865 0.25637600   1.008000   ; qtot 0.155261
 2866         h1     99    bbb    H16   2866 0.25637600   1.008000   ; qtot 0.411637
 2867         c3     99    bbb     C9   2867 -0.72423400  12.010000   ; qtot -0.312597
 2868         h1     99    bbb    H17   2868 0.25637600   1.008000   ; qtot -0.056221
 2869         h1     99    bbb    H18   2869 0.25637600   1.008000   ; qtot 0.200155
 2870         os     99    bbb     O1   2870 -0.20025300  16.000000   ; qtot -0.000098
; residue  100 bbb rtp bbb q -0.0
 2871         n3    100    bbb     N1   2871 -0.59685800  14.010000   ; qtot -0.596956
 2872         c3    100    bbb     C1   2872 0.10137000  12.010000   ; qtot -0.495586
 2873         h1    100    bbb     H1   2873 0.04411300   1.008000   ; qtot -0.451473
 2874         h1    100    bbb     H2   2874 0.04411300   1.008000   ; qtot -0.407360
 2875         c3    100    bbb     C2   2875 0.10137000  12.010000   ; qtot -0.305990
 2876         h1    100    bbb     H3   2876 0.04411300   1.008000   ; qtot -0.261877
 2877         h1    100    bbb     H4   2877 0.04411300   1.008000   ; qtot -0.217764
 2878         c3    100    bbb     C3   2878 -0.00195300  12.010000   ; qtot -0.219717
 2879         h1    100    bbb     H5   2879 0.05064400   1.008000   ; qtot -0.169073
 2880         h1    100    bbb     H6   2880 0.05064400   1.008000   ; qtot -0.118429
 2881         c3    100    bbb     C4   2881 -0.01612100  12.010000   ; qtot -0.134550
 2882         hc    100    bbb     H7   2882 0.04936100   1.008000   ; qtot -0.085189
 2883         hc    100    bbb     H8   2883 0.04936100   1.008000   ; qtot -0.035828
 2884         c3    100    bbb     C5   2884 0.11363000  12.010000   ; qtot 0.077802
 2885         hc    100    bbb     H9   2885 0.06265900   1.008000   ; qtot 0.140461
 2886         hc    100    bbb    H10   2886 0.06265900   1.008000   ; qtot 0.203120
 2887         c3    100    bbb     C6   2887 0.11363000  12.010000   ; qtot 0.316750
 2888         hc    100    bbb    H11   2888 0.06265900   1.008000   ; qtot 0.379409
 2889         hc    100    bbb    H12   2889 0.06265900   1.008000   ; qtot 0.442068
 2890         c3    100    bbb     C7   2890 0.05858200  12.010000   ; qtot 0.500650
 2891         h1    100    bbb    H13   2891 0.06123400   1.008000   ; qtot 0.561884
 2892         h1    100    bbb    H14   2892 0.06123400   1.008000   ; qtot 0.623118
 2893         c3    100    bbb     C8   2893 -0.72423400  12.010000   ; qtot -0.101116
 2894         h1    100    bbb    H15   2894 0.25637600   1.008000   ; qtot 0.155260
 2895         h1    100    bbb    H16   2895 0.25637600   1.008000   ; qtot 0.411636
 2896         c3    100    bbb     C9   2896 -0.72423400  12.010000   ; qtot -0.312598
 2897         h1    100    bbb    H17   2897 0.25637600   1.008000   ; qtot -0.056222
 2898         h1    100    bbb    H18   2898 0.25637600   1.008000   ; qtot 0.200154
 2899         os    100    bbb     O1   2899 -0.20025300  16.000000   ; qtot -0.000099
; residue  101 bbb rtp bbb q -0.0
 2900         n3    101    bbb     N1   2900 -0.59685800  14.010000   ; qtot -0.596957
 2901         c3    101    bbb     C1   2901 0.10137000  12.010000   ; qtot -0.495587
 2902         h1    101    bbb     H1   2902 0.04411300   1.008000   ; qtot -0.451474
 2903         h1    101    bbb     H2   2903 0.04411300   1.008000   ; qtot -0.407361
 2904         c3    101    bbb     C2   2904 0.10137000  12.010000   ; qtot -0.305991
 2905         h1    101    bbb     H3   2905 0.04411300   1.008000   ; qtot -0.261878
 2906         h1    101    bbb     H4   2906 0.04411300   1.008000   ; qtot -0.217765
 2907         c3    101    bbb     C3   2907 -0.00195300  12.010000   ; qtot -0.219718
 2908         h1    101    bbb     H5   2908 0.05064400   1.008000   ; qtot -0.169074
 2909         h1    101    bbb     H6   2909 0.05064400   1.008000   ; qtot -0.118430
 2910         c3    101    bbb     C4   2910 -0.01612100  12.010000   ; qtot -0.134551
 2911         hc    101    bbb     H7   2911 0.04936100   1.008000   ; qtot -0.085190
 2912         hc    101    bbb     H8   2912 0.04936100   1.008000   ; qtot -0.035829
 2913         c3    101    bbb     C5   2913 0.11363000  12.010000   ; qtot 0.077801
 2914         hc    101    bbb     H9   2914 0.06265900   1.008000   ; qtot 0.140460
 2915         hc    101    bbb    H10   2915 0.06265900   1.008000   ; qtot 0.203119
 2916         c3    101    bbb     C6   2916 0.11363000  12.010000   ; qtot 0.316749
 2917         hc    101    bbb    H11   2917 0.06265900   1.008000   ; qtot 0.379408
 2918         hc    101    bbb    H12   2918 0.06265900   1.008000   ; qtot 0.442067
 2919         c3    101    bbb     C7   2919 0.05858200  12.010000   ; qtot 0.500649
 2920         h1    101    bbb    H13   2920 0.06123400   1.008000   ; qtot 0.561883
 2921         h1    101    bbb    H14   2921 0.06123400   1.008000   ; qtot 0.623117
 2922         c3    101    bbb     C8   2922 -0.72423400  12.010000   ; qtot -0.101117
 2923         h1    101    bbb    H15   2923 0.25637600   1.008000   ; qtot 0.155259
 2924         h1    101    bbb    H16   2924 0.25637600   1.008000   ; qtot 0.411635
 2925         c3    101    bbb     C9   2925 -0.72423400  12.010000   ; qtot -0.312599
 2926         h1    101    bbb    H17   2926 0.25637600   1.008000   ; qtot -0.056223
 2927         h1    101    bbb    H18   2927 0.25637600   1.008000   ; qtot 0.200153
 2928         os    101    bbb     O1   2928 -0.20025300  16.000000   ; qtot -0.000100
; residue  102 bbb rtp bbb q -0.0
 2929         n3    102    bbb     N1   2929 -0.59685800  14.010000   ; qtot -0.596958
 2930         c3    102    bbb     C1   2930 0.10137000  12.010000   ; qtot -0.495588
 2931         h1    102    bbb     H1   2931 0.04411300   1.008000   ; qtot -0.451475
 2932         h1    102    bbb     H2   2932 0.04411300   1.008000   ; qtot -0.407362
 2933         c3    102    bbb     C2   2933 0.10137000  12.010000   ; qtot -0.305992
 2934         h1    102    bbb     H3   2934 0.04411300   1.008000   ; qtot -0.261879
 2935         h1    102    bbb     H4   2935 0.04411300   1.008000   ; qtot -0.217766
 2936         c3    102    bbb     C3   2936 -0.00195300  12.010000   ; qtot -0.219719
 2937         h1    102    bbb     H5   2937 0.05064400   1.008000   ; qtot -0.169075
 2938         h1    102    bbb     H6   2938 0.05064400   1.008000   ; qtot -0.118431
 2939         c3    102    bbb     C4   2939 -0.01612100  12.010000   ; qtot -0.134552
 2940         hc    102    bbb     H7   2940 0.04936100   1.008000   ; qtot -0.085191
 2941         hc    102    bbb     H8   2941 0.04936100   1.008000   ; qtot -0.035830
 2942         c3    102    bbb     C5   2942 0.11363000  12.010000   ; qtot 0.077800
 2943         hc    102    bbb     H9   2943 0.06265900   1.008000   ; qtot 0.140459
 2944         hc    102    bbb    H10   2944 0.06265900   1.008000   ; qtot 0.203118
 2945         c3    102    bbb     C6   2945 0.11363000  12.010000   ; qtot 0.316748
 2946         hc    102    bbb    H11   2946 0.06265900   1.008000   ; qtot 0.379407
 2947         hc    102    bbb    H12   2947 0.06265900   1.008000   ; qtot 0.442066
 2948         c3    102    bbb     C7   2948 0.05858200  12.010000   ; qtot 0.500648
 2949         h1    102    bbb    H13   2949 0.06123400   1.008000   ; qtot 0.561882
 2950         h1    102    bbb    H14   2950 0.06123400   1.008000   ; qtot 0.623116
 2951         c3    102    bbb     C8   2951 -0.72423400  12.010000   ; qtot -0.101118
 2952         h1    102    bbb    H15   2952 0.25637600   1.008000   ; qtot 0.155258
 2953         h1    102    bbb    H16   2953 0.25637600   1.008000   ; qtot 0.411634
 2954         c3    102    bbb     C9   2954 -0.72423400  12.010000   ; qtot -0.312600
 2955         h1    102    bbb    H17   2955 0.25637600   1.008000   ; qtot -0.056224
 2956         h1    102    bbb    H18   2956 0.25637600   1.008000   ; qtot 0.200152
 2957         os    102    bbb     O1   2957 -0.20025300  16.000000   ; qtot -0.000101
; residue  103 bbb rtp bbb q -0.0
 2958         n3    103    bbb     N1   2958 -0.59685800  14.010000   ; qtot -0.596959
 2959         c3    103    bbb     C1   2959 0.10137000  12.010000   ; qtot -0.495589
 2960         h1    103    bbb     H1   2960 0.04411300   1.008000   ; qtot -0.451476
 2961         h1    103    bbb     H2   2961 0.04411300   1.008000   ; qtot -0.407363
 2962         c3    103    bbb     C2   2962 0.10137000  12.010000   ; qtot -0.305993
 2963         h1    103    bbb     H3   2963 0.04411300   1.008000   ; qtot -0.261880
 2964         h1    103    bbb     H4   2964 0.04411300   1.008000   ; qtot -0.217767
 2965         c3    103    bbb     C3   2965 -0.00195300  12.010000   ; qtot -0.219720
 2966         h1    103    bbb     H5   2966 0.05064400   1.008000   ; qtot -0.169076
 2967         h1    103    bbb     H6   2967 0.05064400   1.008000   ; qtot -0.118432
 2968         c3    103    bbb     C4   2968 -0.01612100  12.010000   ; qtot -0.134553
 2969         hc    103    bbb     H7   2969 0.04936100   1.008000   ; qtot -0.085192
 2970         hc    103    bbb     H8   2970 0.04936100   1.008000   ; qtot -0.035831
 2971         c3    103    bbb     C5   2971 0.11363000  12.010000   ; qtot 0.077799
 2972         hc    103    bbb     H9   2972 0.06265900   1.008000   ; qtot 0.140458
 2973         hc    103    bbb    H10   2973 0.06265900   1.008000   ; qtot 0.203117
 2974         c3    103    bbb     C6   2974 0.11363000  12.010000   ; qtot 0.316747
 2975         hc    103    bbb    H11   2975 0.06265900   1.008000   ; qtot 0.379406
 2976         hc    103    bbb    H12   2976 0.06265900   1.008000   ; qtot 0.442065
 2977         c3    103    bbb     C7   2977 0.05858200  12.010000   ; qtot 0.500647
 2978         h1    103    bbb    H13   2978 0.06123400   1.008000   ; qtot 0.561881
 2979         h1    103    bbb    H14   2979 0.06123400   1.008000   ; qtot 0.623115
 2980         c3    103    bbb     C8   2980 -0.72423400  12.010000   ; qtot -0.101119
 2981         h1    103    bbb    H15   2981 0.25637600   1.008000   ; qtot 0.155257
 2982         h1    103    bbb    H16   2982 0.25637600   1.008000   ; qtot 0.411633
 2983         c3    103    bbb     C9   2983 -0.72423400  12.010000   ; qtot -0.312601
 2984         h1    103    bbb    H17   2984 0.25637600   1.008000   ; qtot -0.056225
 2985         h1    103    bbb    H18   2985 0.25637600   1.008000   ; qtot 0.200151
 2986         os    103    bbb     O1   2986 -0.20025300  16.000000   ; qtot -0.000102
; residue  104 bbb rtp bbb q -0.0
 2987         n3    104    bbb     N1   2987 -0.59685800  14.010000   ; qtot -0.596960
 2988         c3    104    bbb     C1   2988 0.10137000  12.010000   ; qtot -0.495590
 2989         h1    104    bbb     H1   2989 0.04411300   1.008000   ; qtot -0.451477
 2990         h1    104    bbb     H2   2990 0.04411300   1.008000   ; qtot -0.407364
 2991         c3    104    bbb     C2   2991 0.10137000  12.010000   ; qtot -0.305994
 2992         h1    104    bbb     H3   2992 0.04411300   1.008000   ; qtot -0.261881
 2993         h1    104    bbb     H4   2993 0.04411300   1.008000   ; qtot -0.217768
 2994         c3    104    bbb     C3   2994 -0.00195300  12.010000   ; qtot -0.219721
 2995         h1    104    bbb     H5   2995 0.05064400   1.008000   ; qtot -0.169077
 2996         h1    104    bbb     H6   2996 0.05064400   1.008000   ; qtot -0.118433
 2997         c3    104    bbb     C4   2997 -0.01612100  12.010000   ; qtot -0.134554
 2998         hc    104    bbb     H7   2998 0.04936100   1.008000   ; qtot -0.085193
 2999         hc    104    bbb     H8   2999 0.04936100   1.008000   ; qtot -0.035832
 3000         c3    104    bbb     C5   3000 0.11363000  12.010000   ; qtot 0.077798
 3001         hc    104    bbb     H9   3001 0.06265900   1.008000   ; qtot 0.140457
 3002         hc    104    bbb    H10   3002 0.06265900   1.008000   ; qtot 0.203116
 3003         c3    104    bbb     C6   3003 0.11363000  12.010000   ; qtot 0.316746
 3004         hc    104    bbb    H11   3004 0.06265900   1.008000   ; qtot 0.379405
 3005         hc    104    bbb    H12   3005 0.06265900   1.008000   ; qtot 0.442064
 3006         c3    104    bbb     C7   3006 0.05858200  12.010000   ; qtot 0.500646
 3007         h1    104    bbb    H13   3007 0.06123400   1.008000   ; qtot 0.561880
 3008         h1    104    bbb    H14   3008 0.06123400   1.008000   ; qtot 0.623114
 3009         c3    104    bbb     C8   3009 -0.72423400  12.010000   ; qtot -0.101120
 3010         h1    104    bbb    H15   3010 0.25637600   1.008000   ; qtot 0.155256
 3011         h1    104    bbb    H16   3011 0.25637600   1.008000   ; qtot 0.411632
 3012         c3    104    bbb     C9   3012 -0.72423400  12.010000   ; qtot -0.312602
 3013         h1    104    bbb    H17   3013 0.25637600   1.008000   ; qtot -0.056226
 3014         h1    104    bbb    H18   3014 0.25637600   1.008000   ; qtot 0.200150
 3015         os    104    bbb     O1   3015 -0.20025300  16.000000   ; qtot -0.000103
; residue  105 bbb rtp bbb q -0.0
 3016         n3    105    bbb     N1   3016 -0.59685800  14.010000   ; qtot -0.596961
 3017         c3    105    bbb     C1   3017 0.10137000  12.010000   ; qtot -0.495591
 3018         h1    105    bbb     H1   3018 0.04411300   1.008000   ; qtot -0.451478
 3019         h1    105    bbb     H2   3019 0.04411300   1.008000   ; qtot -0.407365
 3020         c3    105    bbb     C2   3020 0.10137000  12.010000   ; qtot -0.305995
 3021         h1    105    bbb     H3   3021 0.04411300   1.008000   ; qtot -0.261882
 3022         h1    105    bbb     H4   3022 0.04411300   1.008000   ; qtot -0.217769
 3023         c3    105    bbb     C3   3023 -0.00195300  12.010000   ; qtot -0.219722
 3024         h1    105    bbb     H5   3024 0.05064400   1.008000   ; qtot -0.169078
 3025         h1    105    bbb     H6   3025 0.05064400   1.008000   ; qtot -0.118434
 3026         c3    105    bbb     C4   3026 -0.01612100  12.010000   ; qtot -0.134555
 3027         hc    105    bbb     H7   3027 0.04936100   1.008000   ; qtot -0.085194
 3028         hc    105    bbb     H8   3028 0.04936100   1.008000   ; qtot -0.035833
 3029         c3    105    bbb     C5   3029 0.11363000  12.010000   ; qtot 0.077797
 3030         hc    105    bbb     H9   3030 0.06265900   1.008000   ; qtot 0.140456
 3031         hc    105    bbb    H10   3031 0.06265900   1.008000   ; qtot 0.203115
 3032         c3    105    bbb     C6   3032 0.11363000  12.010000   ; qtot 0.316745
 3033         hc    105    bbb    H11   3033 0.06265900   1.008000   ; qtot 0.379404
 3034         hc    105    bbb    H12   3034 0.06265900   1.008000   ; qtot 0.442063
 3035         c3    105    bbb     C7   3035 0.05858200  12.010000   ; qtot 0.500645
 3036         h1    105    bbb    H13   3036 0.06123400   1.008000   ; qtot 0.561879
 3037         h1    105    bbb    H14   3037 0.06123400   1.008000   ; qtot 0.623113
 3038         c3    105    bbb     C8   3038 -0.72423400  12.010000   ; qtot -0.101121
 3039         h1    105    bbb    H15   3039 0.25637600   1.008000   ; qtot 0.155255
 3040         h1    105    bbb    H16   3040 0.25637600   1.008000   ; qtot 0.411631
 3041         c3    105    bbb     C9   3041 -0.72423400  12.010000   ; qtot -0.312603
 3042         h1    105    bbb    H17   3042 0.25637600   1.008000   ; qtot -0.056227
 3043         h1    105    bbb    H18   3043 0.25637600   1.008000   ; qtot 0.200149
 3044         os    105    bbb     O1   3044 -0.20025300  16.000000   ; qtot -0.000104
; residue  106 bbb rtp bbb q -0.0
 3045         n3    106    bbb     N1   3045 -0.59685800  14.010000   ; qtot -0.596962
 3046         c3    106    bbb     C1   3046 0.10137000  12.010000   ; qtot -0.495592
 3047         h1    106    bbb     H1   3047 0.04411300   1.008000   ; qtot -0.451479
 3048         h1    106    bbb     H2   3048 0.04411300   1.008000   ; qtot -0.407366
 3049         c3    106    bbb     C2   3049 0.10137000  12.010000   ; qtot -0.305996
 3050         h1    106    bbb     H3   3050 0.04411300   1.008000   ; qtot -0.261883
 3051         h1    106    bbb     H4   3051 0.04411300   1.008000   ; qtot -0.217770
 3052         c3    106    bbb     C3   3052 -0.00195300  12.010000   ; qtot -0.219723
 3053         h1    106    bbb     H5   3053 0.05064400   1.008000   ; qtot -0.169079
 3054         h1    106    bbb     H6   3054 0.05064400   1.008000   ; qtot -0.118435
 3055         c3    106    bbb     C4   3055 -0.01612100  12.010000   ; qtot -0.134556
 3056         hc    106    bbb     H7   3056 0.04936100   1.008000   ; qtot -0.085195
 3057         hc    106    bbb     H8   3057 0.04936100   1.008000   ; qtot -0.035834
 3058         c3    106    bbb     C5   3058 0.11363000  12.010000   ; qtot 0.077796
 3059         hc    106    bbb     H9   3059 0.06265900   1.008000   ; qtot 0.140455
 3060         hc    106    bbb    H10   3060 0.06265900   1.008000   ; qtot 0.203114
 3061         c3    106    bbb     C6   3061 0.11363000  12.010000   ; qtot 0.316744
 3062         hc    106    bbb    H11   3062 0.06265900   1.008000   ; qtot 0.379403
 3063         hc    106    bbb    H12   3063 0.06265900   1.008000   ; qtot 0.442062
 3064         c3    106    bbb     C7   3064 0.05858200  12.010000   ; qtot 0.500644
 3065         h1    106    bbb    H13   3065 0.06123400   1.008000   ; qtot 0.561878
 3066         h1    106    bbb    H14   3066 0.06123400   1.008000   ; qtot 0.623112
 3067         c3    106    bbb     C8   3067 -0.72423400  12.010000   ; qtot -0.101122
 3068         h1    106    bbb    H15   3068 0.25637600   1.008000   ; qtot 0.155254
 3069         h1    106    bbb    H16   3069 0.25637600   1.008000   ; qtot 0.411630
 3070         c3    106    bbb     C9   3070 -0.72423400  12.010000   ; qtot -0.312604
 3071         h1    106    bbb    H17   3071 0.25637600   1.008000   ; qtot -0.056228
 3072         h1    106    bbb    H18   3072 0.25637600   1.008000   ; qtot 0.200148
 3073         os    106    bbb     O1   3073 -0.20025300  16.000000   ; qtot -0.000105
; residue  107 bbb rtp bbb q -0.0
 3074         n3    107    bbb     N1   3074 -0.59685800  14.010000   ; qtot -0.596963
 3075         c3    107    bbb     C1   3075 0.10137000  12.010000   ; qtot -0.495593
 3076         h1    107    bbb     H1   3076 0.04411300   1.008000   ; qtot -0.451480
 3077         h1    107    bbb     H2   3077 0.04411300   1.008000   ; qtot -0.407367
 3078         c3    107    bbb     C2   3078 0.10137000  12.010000   ; qtot -0.305997
 3079         h1    107    bbb     H3   3079 0.04411300   1.008000   ; qtot -0.261884
 3080         h1    107    bbb     H4   3080 0.04411300   1.008000   ; qtot -0.217771
 3081         c3    107    bbb     C3   3081 -0.00195300  12.010000   ; qtot -0.219724
 3082         h1    107    bbb     H5   3082 0.05064400   1.008000   ; qtot -0.169080
 3083         h1    107    bbb     H6   3083 0.05064400   1.008000   ; qtot -0.118436
 3084         c3    107    bbb     C4   3084 -0.01612100  12.010000   ; qtot -0.134557
 3085         hc    107    bbb     H7   3085 0.04936100   1.008000   ; qtot -0.085196
 3086         hc    107    bbb     H8   3086 0.04936100   1.008000   ; qtot -0.035835
 3087         c3    107    bbb     C5   3087 0.11363000  12.010000   ; qtot 0.077795
 3088         hc    107    bbb     H9   3088 0.06265900   1.008000   ; qtot 0.140454
 3089         hc    107    bbb    H10   3089 0.06265900   1.008000   ; qtot 0.203113
 3090         c3    107    bbb     C6   3090 0.11363000  12.010000   ; qtot 0.316743
 3091         hc    107    bbb    H11   3091 0.06265900   1.008000   ; qtot 0.379402
 3092         hc    107    bbb    H12   3092 0.06265900   1.008000   ; qtot 0.442061
 3093         c3    107    bbb     C7   3093 0.05858200  12.010000   ; qtot 0.500643
 3094         h1    107    bbb    H13   3094 0.06123400   1.008000   ; qtot 0.561877
 3095         h1    107    bbb    H14   3095 0.06123400   1.008000   ; qtot 0.623111
 3096         c3    107    bbb     C8   3096 -0.72423400  12.010000   ; qtot -0.101123
 3097         h1    107    bbb    H15   3097 0.25637600   1.008000   ; qtot 0.155253
 3098         h1    107    bbb    H16   3098 0.25637600   1.008000   ; qtot 0.411629
 3099         c3    107    bbb     C9   3099 -0.72423400  12.010000   ; qtot -0.312605
 3100         h1    107    bbb    H17   3100 0.25637600   1.008000   ; qtot -0.056229
 3101         h1    107    bbb    H18   3101 0.25637600   1.008000   ; qtot 0.200147
 3102         os    107    bbb     O1   3102 -0.20025300  16.000000   ; qtot -0.000106
; residue  108 bbb rtp bbb q -0.0
 3103         n3    108    bbb     N1   3103 -0.59685800  14.010000   ; qtot -0.596964
 3104         c3    108    bbb     C1   3104 0.10137000  12.010000   ; qtot -0.495594
 3105         h1    108    bbb     H1   3105 0.04411300   1.008000   ; qtot -0.451481
 3106         h1    108    bbb     H2   3106 0.04411300   1.008000   ; qtot -0.407368
 3107         c3    108    bbb     C2   3107 0.10137000  12.010000   ; qtot -0.305998
 3108         h1    108    bbb     H3   3108 0.04411300   1.008000   ; qtot -0.261885
 3109         h1    108    bbb     H4   3109 0.04411300   1.008000   ; qtot -0.217772
 3110         c3    108    bbb     C3   3110 -0.00195300  12.010000   ; qtot -0.219725
 3111         h1    108    bbb     H5   3111 0.05064400   1.008000   ; qtot -0.169081
 3112         h1    108    bbb     H6   3112 0.05064400   1.008000   ; qtot -0.118437
 3113         c3    108    bbb     C4   3113 -0.01612100  12.010000   ; qtot -0.134558
 3114         hc    108    bbb     H7   3114 0.04936100   1.008000   ; qtot -0.085197
 3115         hc    108    bbb     H8   3115 0.04936100   1.008000   ; qtot -0.035836
 3116         c3    108    bbb     C5   3116 0.11363000  12.010000   ; qtot 0.077794
 3117         hc    108    bbb     H9   3117 0.06265900   1.008000   ; qtot 0.140453
 3118         hc    108    bbb    H10   3118 0.06265900   1.008000   ; qtot 0.203112
 3119         c3    108    bbb     C6   3119 0.11363000  12.010000   ; qtot 0.316742
 3120         hc    108    bbb    H11   3120 0.06265900   1.008000   ; qtot 0.379401
 3121         hc    108    bbb    H12   3121 0.06265900   1.008000   ; qtot 0.442060
 3122         c3    108    bbb     C7   3122 0.05858200  12.010000   ; qtot 0.500642
 3123         h1    108    bbb    H13   3123 0.06123400   1.008000   ; qtot 0.561876
 3124         h1    108    bbb    H14   3124 0.06123400   1.008000   ; qtot 0.623110
 3125         c3    108    bbb     C8   3125 -0.72423400  12.010000   ; qtot -0.101124
 3126         h1    108    bbb    H15   3126 0.25637600   1.008000   ; qtot 0.155252
 3127         h1    108    bbb    H16   3127 0.25637600   1.008000   ; qtot 0.411628
 3128         c3    108    bbb     C9   3128 -0.72423400  12.010000   ; qtot -0.312606
 3129         h1    108    bbb    H17   3129 0.25637600   1.008000   ; qtot -0.056230
 3130         h1    108    bbb    H18   3130 0.25637600   1.008000   ; qtot 0.200146
 3131         os    108    bbb     O1   3131 -0.20025300  16.000000   ; qtot -0.000107
; residue  109 bbb rtp bbb q -0.0
 3132         n3    109    bbb     N1   3132 -0.59685800  14.010000   ; qtot -0.596965
 3133         c3    109    bbb     C1   3133 0.10137000  12.010000   ; qtot -0.495595
 3134         h1    109    bbb     H1   3134 0.04411300   1.008000   ; qtot -0.451482
 3135         h1    109    bbb     H2   3135 0.04411300   1.008000   ; qtot -0.407369
 3136         c3    109    bbb     C2   3136 0.10137000  12.010000   ; qtot -0.305999
 3137         h1    109    bbb     H3   3137 0.04411300   1.008000   ; qtot -0.261886
 3138         h1    109    bbb     H4   3138 0.04411300   1.008000   ; qtot -0.217773
 3139         c3    109    bbb     C3   3139 -0.00195300  12.010000   ; qtot -0.219726
 3140         h1    109    bbb     H5   3140 0.05064400   1.008000   ; qtot -0.169082
 3141         h1    109    bbb     H6   3141 0.05064400   1.008000   ; qtot -0.118438
 3142         c3    109    bbb     C4   3142 -0.01612100  12.010000   ; qtot -0.134559
 3143         hc    109    bbb     H7   3143 0.04936100   1.008000   ; qtot -0.085198
 3144         hc    109    bbb     H8   3144 0.04936100   1.008000   ; qtot -0.035837
 3145         c3    109    bbb     C5   3145 0.11363000  12.010000   ; qtot 0.077793
 3146         hc    109    bbb     H9   3146 0.06265900   1.008000   ; qtot 0.140452
 3147         hc    109    bbb    H10   3147 0.06265900   1.008000   ; qtot 0.203111
 3148         c3    109    bbb     C6   3148 0.11363000  12.010000   ; qtot 0.316741
 3149         hc    109    bbb    H11   3149 0.06265900   1.008000   ; qtot 0.379400
 3150         hc    109    bbb    H12   3150 0.06265900   1.008000   ; qtot 0.442059
 3151         c3    109    bbb     C7   3151 0.05858200  12.010000   ; qtot 0.500641
 3152         h1    109    bbb    H13   3152 0.06123400   1.008000   ; qtot 0.561875
 3153         h1    109    bbb    H14   3153 0.06123400   1.008000   ; qtot 0.623109
 3154         c3    109    bbb     C8   3154 -0.72423400  12.010000   ; qtot -0.101125
 3155         h1    109    bbb    H15   3155 0.25637600   1.008000   ; qtot 0.155251
 3156         h1    109    bbb    H16   3156 0.25637600   1.008000   ; qtot 0.411627
 3157         c3    109    bbb     C9   3157 -0.72423400  12.010000   ; qtot -0.312607
 3158         h1    109    bbb    H17   3158 0.25637600   1.008000   ; qtot -0.056231
 3159         h1    109    bbb    H18   3159 0.25637600   1.008000   ; qtot 0.200145
 3160         os    109    bbb     O1   3160 -0.20025300  16.000000   ; qtot -0.000108
; residue  110 bbb rtp bbb q -0.0
 3161         n3    110    bbb     N1   3161 -0.59685800  14.010000   ; qtot -0.596966
 3162         c3    110    bbb     C1   3162 0.10137000  12.010000   ; qtot -0.495596
 3163         h1    110    bbb     H1   3163 0.04411300   1.008000   ; qtot -0.451483
 3164         h1    110    bbb     H2   3164 0.04411300   1.008000   ; qtot -0.407370
 3165         c3    110    bbb     C2   3165 0.10137000  12.010000   ; qtot -0.306000
 3166         h1    110    bbb     H3   3166 0.04411300   1.008000   ; qtot -0.261887
 3167         h1    110    bbb     H4   3167 0.04411300   1.008000   ; qtot -0.217774
 3168         c3    110    bbb     C3   3168 -0.00195300  12.010000   ; qtot -0.219727
 3169         h1    110    bbb     H5   3169 0.05064400   1.008000   ; qtot -0.169083
 3170         h1    110    bbb     H6   3170 0.05064400   1.008000   ; qtot -0.118439
 3171         c3    110    bbb     C4   3171 -0.01612100  12.010000   ; qtot -0.134560
 3172         hc    110    bbb     H7   3172 0.04936100   1.008000   ; qtot -0.085199
 3173         hc    110    bbb     H8   3173 0.04936100   1.008000   ; qtot -0.035838
 3174         c3    110    bbb     C5   3174 0.11363000  12.010000   ; qtot 0.077792
 3175         hc    110    bbb     H9   3175 0.06265900   1.008000   ; qtot 0.140451
 3176         hc    110    bbb    H10   3176 0.06265900   1.008000   ; qtot 0.203110
 3177         c3    110    bbb     C6   3177 0.11363000  12.010000   ; qtot 0.316740
 3178         hc    110    bbb    H11   3178 0.06265900   1.008000   ; qtot 0.379399
 3179         hc    110    bbb    H12   3179 0.06265900   1.008000   ; qtot 0.442058
 3180         c3    110    bbb     C7   3180 0.05858200  12.010000   ; qtot 0.500640
 3181         h1    110    bbb    H13   3181 0.06123400   1.008000   ; qtot 0.561874
 3182         h1    110    bbb    H14   3182 0.06123400   1.008000   ; qtot 0.623108
 3183         c3    110    bbb     C8   3183 -0.72423400  12.010000   ; qtot -0.101126
 3184         h1    110    bbb    H15   3184 0.25637600   1.008000   ; qtot 0.155250
 3185         h1    110    bbb    H16   3185 0.25637600   1.008000   ; qtot 0.411626
 3186         c3    110    bbb     C9   3186 -0.72423400  12.010000   ; qtot -0.312608
 3187         h1    110    bbb    H17   3187 0.25637600   1.008000   ; qtot -0.056232
 3188         h1    110    bbb    H18   3188 0.25637600   1.008000   ; qtot 0.200144
 3189         os    110    bbb     O1   3189 -0.20025300  16.000000   ; qtot -0.000109
; residue  111 bbb rtp bbb q -0.0
 3190         n3    111    bbb     N1   3190 -0.59685800  14.010000   ; qtot -0.596967
 3191         c3    111    bbb     C1   3191 0.10137000  12.010000   ; qtot -0.495597
 3192         h1    111    bbb     H1   3192 0.04411300   1.008000   ; qtot -0.451484
 3193         h1    111    bbb     H2   3193 0.04411300   1.008000   ; qtot -0.407371
 3194         c3    111    bbb     C2   3194 0.10137000  12.010000   ; qtot -0.306001
 3195         h1    111    bbb     H3   3195 0.04411300   1.008000   ; qtot -0.261888
 3196         h1    111    bbb     H4   3196 0.04411300   1.008000   ; qtot -0.217775
 3197         c3    111    bbb     C3   3197 -0.00195300  12.010000   ; qtot -0.219728
 3198         h1    111    bbb     H5   3198 0.05064400   1.008000   ; qtot -0.169084
 3199         h1    111    bbb     H6   3199 0.05064400   1.008000   ; qtot -0.118440
 3200         c3    111    bbb     C4   3200 -0.01612100  12.010000   ; qtot -0.134561
 3201         hc    111    bbb     H7   3201 0.04936100   1.008000   ; qtot -0.085200
 3202         hc    111    bbb     H8   3202 0.04936100   1.008000   ; qtot -0.035839
 3203         c3    111    bbb     C5   3203 0.11363000  12.010000   ; qtot 0.077791
 3204         hc    111    bbb     H9   3204 0.06265900   1.008000   ; qtot 0.140450
 3205         hc    111    bbb    H10   3205 0.06265900   1.008000   ; qtot 0.203109
 3206         c3    111    bbb     C6   3206 0.11363000  12.010000   ; qtot 0.316739
 3207         hc    111    bbb    H11   3207 0.06265900   1.008000   ; qtot 0.379398
 3208         hc    111    bbb    H12   3208 0.06265900   1.008000   ; qtot 0.442057
 3209         c3    111    bbb     C7   3209 0.05858200  12.010000   ; qtot 0.500639
 3210         h1    111    bbb    H13   3210 0.06123400   1.008000   ; qtot 0.561873
 3211         h1    111    bbb    H14   3211 0.06123400   1.008000   ; qtot 0.623107
 3212         c3    111    bbb     C8   3212 -0.72423400  12.010000   ; qtot -0.101127
 3213         h1    111    bbb    H15   3213 0.25637600   1.008000   ; qtot 0.155249
 3214         h1    111    bbb    H16   3214 0.25637600   1.008000   ; qtot 0.411625
 3215         c3    111    bbb     C9   3215 -0.72423400  12.010000   ; qtot -0.312609
 3216         h1    111    bbb    H17   3216 0.25637600   1.008000   ; qtot -0.056233
 3217         h1    111    bbb    H18   3217 0.25637600   1.008000   ; qtot 0.200143
 3218         os    111    bbb     O1   3218 -0.20025300  16.000000   ; qtot -0.000110
; residue  112 bbb rtp bbb q -0.0
 3219         n3    112    bbb     N1   3219 -0.59685800  14.010000   ; qtot -0.596968
 3220         c3    112    bbb     C1   3220 0.10137000  12.010000   ; qtot -0.495598
 3221         h1    112    bbb     H1   3221 0.04411300   1.008000   ; qtot -0.451485
 3222         h1    112    bbb     H2   3222 0.04411300   1.008000   ; qtot -0.407372
 3223         c3    112    bbb     C2   3223 0.10137000  12.010000   ; qtot -0.306002
 3224         h1    112    bbb     H3   3224 0.04411300   1.008000   ; qtot -0.261889
 3225         h1    112    bbb     H4   3225 0.04411300   1.008000   ; qtot -0.217776
 3226         c3    112    bbb     C3   3226 -0.00195300  12.010000   ; qtot -0.219729
 3227         h1    112    bbb     H5   3227 0.05064400   1.008000   ; qtot -0.169085
 3228         h1    112    bbb     H6   3228 0.05064400   1.008000   ; qtot -0.118441
 3229         c3    112    bbb     C4   3229 -0.01612100  12.010000   ; qtot -0.134562
 3230         hc    112    bbb     H7   3230 0.04936100   1.008000   ; qtot -0.085201
 3231         hc    112    bbb     H8   3231 0.04936100   1.008000   ; qtot -0.035840
 3232         c3    112    bbb     C5   3232 0.11363000  12.010000   ; qtot 0.077790
 3233         hc    112    bbb     H9   3233 0.06265900   1.008000   ; qtot 0.140449
 3234         hc    112    bbb    H10   3234 0.06265900   1.008000   ; qtot 0.203108
 3235         c3    112    bbb     C6   3235 0.11363000  12.010000   ; qtot 0.316738
 3236         hc    112    bbb    H11   3236 0.06265900   1.008000   ; qtot 0.379397
 3237         hc    112    bbb    H12   3237 0.06265900   1.008000   ; qtot 0.442056
 3238         c3    112    bbb     C7   3238 0.05858200  12.010000   ; qtot 0.500638
 3239         h1    112    bbb    H13   3239 0.06123400   1.008000   ; qtot 0.561872
 3240         h1    112    bbb    H14   3240 0.06123400   1.008000   ; qtot 0.623106
 3241         c3    112    bbb     C8   3241 -0.72423400  12.010000   ; qtot -0.101128
 3242         h1    112    bbb    H15   3242 0.25637600   1.008000   ; qtot 0.155248
 3243         h1    112    bbb    H16   3243 0.25637600   1.008000   ; qtot 0.411624
 3244         c3    112    bbb     C9   3244 -0.72423400  12.010000   ; qtot -0.312610
 3245         h1    112    bbb    H17   3245 0.25637600   1.008000   ; qtot -0.056234
 3246         h1    112    bbb    H18   3246 0.25637600   1.008000   ; qtot 0.200142
 3247         os    112    bbb     O1   3247 -0.20025300  16.000000   ; qtot -0.000111
; residue  113 bbb rtp bbb q -0.0
 3248         n3    113    bbb     N1   3248 -0.59685800  14.010000   ; qtot -0.596969
 3249         c3    113    bbb     C1   3249 0.10137000  12.010000   ; qtot -0.495599
 3250         h1    113    bbb     H1   3250 0.04411300   1.008000   ; qtot -0.451486
 3251         h1    113    bbb     H2   3251 0.04411300   1.008000   ; qtot -0.407373
 3252         c3    113    bbb     C2   3252 0.10137000  12.010000   ; qtot -0.306003
 3253         h1    113    bbb     H3   3253 0.04411300   1.008000   ; qtot -0.261890
 3254         h1    113    bbb     H4   3254 0.04411300   1.008000   ; qtot -0.217777
 3255         c3    113    bbb     C3   3255 -0.00195300  12.010000   ; qtot -0.219730
 3256         h1    113    bbb     H5   3256 0.05064400   1.008000   ; qtot -0.169086
 3257         h1    113    bbb     H6   3257 0.05064400   1.008000   ; qtot -0.118442
 3258         c3    113    bbb     C4   3258 -0.01612100  12.010000   ; qtot -0.134563
 3259         hc    113    bbb     H7   3259 0.04936100   1.008000   ; qtot -0.085202
 3260         hc    113    bbb     H8   3260 0.04936100   1.008000   ; qtot -0.035841
 3261         c3    113    bbb     C5   3261 0.11363000  12.010000   ; qtot 0.077789
 3262         hc    113    bbb     H9   3262 0.06265900   1.008000   ; qtot 0.140448
 3263         hc    113    bbb    H10   3263 0.06265900   1.008000   ; qtot 0.203107
 3264         c3    113    bbb     C6   3264 0.11363000  12.010000   ; qtot 0.316737
 3265         hc    113    bbb    H11   3265 0.06265900   1.008000   ; qtot 0.379396
 3266         hc    113    bbb    H12   3266 0.06265900   1.008000   ; qtot 0.442055
 3267         c3    113    bbb     C7   3267 0.05858200  12.010000   ; qtot 0.500637
 3268         h1    113    bbb    H13   3268 0.06123400   1.008000   ; qtot 0.561871
 3269         h1    113    bbb    H14   3269 0.06123400   1.008000   ; qtot 0.623105
 3270         c3    113    bbb     C8   3270 -0.72423400  12.010000   ; qtot -0.101129
 3271         h1    113    bbb    H15   3271 0.25637600   1.008000   ; qtot 0.155247
 3272         h1    113    bbb    H16   3272 0.25637600   1.008000   ; qtot 0.411623
 3273         c3    113    bbb     C9   3273 -0.72423400  12.010000   ; qtot -0.312611
 3274         h1    113    bbb    H17   3274 0.25637600   1.008000   ; qtot -0.056235
 3275         h1    113    bbb    H18   3275 0.25637600   1.008000   ; qtot 0.200141
 3276         os    113    bbb     O1   3276 -0.20025300  16.000000   ; qtot -0.000112
; residue  114 bbb rtp bbb q -0.0
 3277         n3    114    bbb     N1   3277 -0.59685800  14.010000   ; qtot -0.596970
 3278         c3    114    bbb     C1   3278 0.10137000  12.010000   ; qtot -0.495600
 3279         h1    114    bbb     H1   3279 0.04411300   1.008000   ; qtot -0.451487
 3280         h1    114    bbb     H2   3280 0.04411300   1.008000   ; qtot -0.407374
 3281         c3    114    bbb     C2   3281 0.10137000  12.010000   ; qtot -0.306004
 3282         h1    114    bbb     H3   3282 0.04411300   1.008000   ; qtot -0.261891
 3283         h1    114    bbb     H4   3283 0.04411300   1.008000   ; qtot -0.217778
 3284         c3    114    bbb     C3   3284 -0.00195300  12.010000   ; qtot -0.219731
 3285         h1    114    bbb     H5   3285 0.05064400   1.008000   ; qtot -0.169087
 3286         h1    114    bbb     H6   3286 0.05064400   1.008000   ; qtot -0.118443
 3287         c3    114    bbb     C4   3287 -0.01612100  12.010000   ; qtot -0.134564
 3288         hc    114    bbb     H7   3288 0.04936100   1.008000   ; qtot -0.085203
 3289         hc    114    bbb     H8   3289 0.04936100   1.008000   ; qtot -0.035842
 3290         c3    114    bbb     C5   3290 0.11363000  12.010000   ; qtot 0.077788
 3291         hc    114    bbb     H9   3291 0.06265900   1.008000   ; qtot 0.140447
 3292         hc    114    bbb    H10   3292 0.06265900   1.008000   ; qtot 0.203106
 3293         c3    114    bbb     C6   3293 0.11363000  12.010000   ; qtot 0.316736
 3294         hc    114    bbb    H11   3294 0.06265900   1.008000   ; qtot 0.379395
 3295         hc    114    bbb    H12   3295 0.06265900   1.008000   ; qtot 0.442054
 3296         c3    114    bbb     C7   3296 0.05858200  12.010000   ; qtot 0.500636
 3297         h1    114    bbb    H13   3297 0.06123400   1.008000   ; qtot 0.561870
 3298         h1    114    bbb    H14   3298 0.06123400   1.008000   ; qtot 0.623104
 3299         c3    114    bbb     C8   3299 -0.72423400  12.010000   ; qtot -0.101130
 3300         h1    114    bbb    H15   3300 0.25637600   1.008000   ; qtot 0.155246
 3301         h1    114    bbb    H16   3301 0.25637600   1.008000   ; qtot 0.411622
 3302         c3    114    bbb     C9   3302 -0.72423400  12.010000   ; qtot -0.312612
 3303         h1    114    bbb    H17   3303 0.25637600   1.008000   ; qtot -0.056236
 3304         h1    114    bbb    H18   3304 0.25637600   1.008000   ; qtot 0.200140
 3305         os    114    bbb     O1   3305 -0.20025300  16.000000   ; qtot -0.000113
; residue  115 bbb rtp bbb q -0.0
 3306         n3    115    bbb     N1   3306 -0.59685800  14.010000   ; qtot -0.596971
 3307         c3    115    bbb     C1   3307 0.10137000  12.010000   ; qtot -0.495601
 3308         h1    115    bbb     H1   3308 0.04411300   1.008000   ; qtot -0.451488
 3309         h1    115    bbb     H2   3309 0.04411300   1.008000   ; qtot -0.407375
 3310         c3    115    bbb     C2   3310 0.10137000  12.010000   ; qtot -0.306005
 3311         h1    115    bbb     H3   3311 0.04411300   1.008000   ; qtot -0.261892
 3312         h1    115    bbb     H4   3312 0.04411300   1.008000   ; qtot -0.217779
 3313         c3    115    bbb     C3   3313 -0.00195300  12.010000   ; qtot -0.219732
 3314         h1    115    bbb     H5   3314 0.05064400   1.008000   ; qtot -0.169088
 3315         h1    115    bbb     H6   3315 0.05064400   1.008000   ; qtot -0.118444
 3316         c3    115    bbb     C4   3316 -0.01612100  12.010000   ; qtot -0.134565
 3317         hc    115    bbb     H7   3317 0.04936100   1.008000   ; qtot -0.085204
 3318         hc    115    bbb     H8   3318 0.04936100   1.008000   ; qtot -0.035843
 3319         c3    115    bbb     C5   3319 0.11363000  12.010000   ; qtot 0.077787
 3320         hc    115    bbb     H9   3320 0.06265900   1.008000   ; qtot 0.140446
 3321         hc    115    bbb    H10   3321 0.06265900   1.008000   ; qtot 0.203105
 3322         c3    115    bbb     C6   3322 0.11363000  12.010000   ; qtot 0.316735
 3323         hc    115    bbb    H11   3323 0.06265900   1.008000   ; qtot 0.379394
 3324         hc    115    bbb    H12   3324 0.06265900   1.008000   ; qtot 0.442053
 3325         c3    115    bbb     C7   3325 0.05858200  12.010000   ; qtot 0.500635
 3326         h1    115    bbb    H13   3326 0.06123400   1.008000   ; qtot 0.561869
 3327         h1    115    bbb    H14   3327 0.06123400   1.008000   ; qtot 0.623103
 3328         c3    115    bbb     C8   3328 -0.72423400  12.010000   ; qtot -0.101131
 3329         h1    115    bbb    H15   3329 0.25637600   1.008000   ; qtot 0.155245
 3330         h1    115    bbb    H16   3330 0.25637600   1.008000   ; qtot 0.411621
 3331         c3    115    bbb     C9   3331 -0.72423400  12.010000   ; qtot -0.312613
 3332         h1    115    bbb    H17   3332 0.25637600   1.008000   ; qtot -0.056237
 3333         h1    115    bbb    H18   3333 0.25637600   1.008000   ; qtot 0.200139
 3334         os    115    bbb     O1   3334 -0.20025300  16.000000   ; qtot -0.000114
; residue  116 bbb rtp bbb q -0.0
 3335         n3    116    bbb     N1   3335 -0.59685800  14.010000   ; qtot -0.596972
 3336         c3    116    bbb     C1   3336 0.10137000  12.010000   ; qtot -0.495602
 3337         h1    116    bbb     H1   3337 0.04411300   1.008000   ; qtot -0.451489
 3338         h1    116    bbb     H2   3338 0.04411300   1.008000   ; qtot -0.407376
 3339         c3    116    bbb     C2   3339 0.10137000  12.010000   ; qtot -0.306006
 3340         h1    116    bbb     H3   3340 0.04411300   1.008000   ; qtot -0.261893
 3341         h1    116    bbb     H4   3341 0.04411300   1.008000   ; qtot -0.217780
 3342         c3    116    bbb     C3   3342 -0.00195300  12.010000   ; qtot -0.219733
 3343         h1    116    bbb     H5   3343 0.05064400   1.008000   ; qtot -0.169089
 3344         h1    116    bbb     H6   3344 0.05064400   1.008000   ; qtot -0.118445
 3345         c3    116    bbb     C4   3345 -0.01612100  12.010000   ; qtot -0.134566
 3346         hc    116    bbb     H7   3346 0.04936100   1.008000   ; qtot -0.085205
 3347         hc    116    bbb     H8   3347 0.04936100   1.008000   ; qtot -0.035844
 3348         c3    116    bbb     C5   3348 0.11363000  12.010000   ; qtot 0.077786
 3349         hc    116    bbb     H9   3349 0.06265900   1.008000   ; qtot 0.140445
 3350         hc    116    bbb    H10   3350 0.06265900   1.008000   ; qtot 0.203104
 3351         c3    116    bbb     C6   3351 0.11363000  12.010000   ; qtot 0.316734
 3352         hc    116    bbb    H11   3352 0.06265900   1.008000   ; qtot 0.379393
 3353         hc    116    bbb    H12   3353 0.06265900   1.008000   ; qtot 0.442052
 3354         c3    116    bbb     C7   3354 0.05858200  12.010000   ; qtot 0.500634
 3355         h1    116    bbb    H13   3355 0.06123400   1.008000   ; qtot 0.561868
 3356         h1    116    bbb    H14   3356 0.06123400   1.008000   ; qtot 0.623102
 3357         c3    116    bbb     C8   3357 -0.72423400  12.010000   ; qtot -0.101132
 3358         h1    116    bbb    H15   3358 0.25637600   1.008000   ; qtot 0.155244
 3359         h1    116    bbb    H16   3359 0.25637600   1.008000   ; qtot 0.411620
 3360         c3    116    bbb     C9   3360 -0.72423400  12.010000   ; qtot -0.312614
 3361         h1    116    bbb    H17   3361 0.25637600   1.008000   ; qtot -0.056238
 3362         h1    116    bbb    H18   3362 0.25637600   1.008000   ; qtot 0.200138
 3363         os    116    bbb     O1   3363 -0.20025300  16.000000   ; qtot -0.000115
; residue  117 bbb rtp bbb q -0.0
 3364         n3    117    bbb     N1   3364 -0.59685800  14.010000   ; qtot -0.596973
 3365         c3    117    bbb     C1   3365 0.10137000  12.010000   ; qtot -0.495603
 3366         h1    117    bbb     H1   3366 0.04411300   1.008000   ; qtot -0.451490
 3367         h1    117    bbb     H2   3367 0.04411300   1.008000   ; qtot -0.407377
 3368         c3    117    bbb     C2   3368 0.10137000  12.010000   ; qtot -0.306007
 3369         h1    117    bbb     H3   3369 0.04411300   1.008000   ; qtot -0.261894
 3370         h1    117    bbb     H4   3370 0.04411300   1.008000   ; qtot -0.217781
 3371         c3    117    bbb     C3   3371 -0.00195300  12.010000   ; qtot -0.219734
 3372         h1    117    bbb     H5   3372 0.05064400   1.008000   ; qtot -0.169090
 3373         h1    117    bbb     H6   3373 0.05064400   1.008000   ; qtot -0.118446
 3374         c3    117    bbb     C4   3374 -0.01612100  12.010000   ; qtot -0.134567
 3375         hc    117    bbb     H7   3375 0.04936100   1.008000   ; qtot -0.085206
 3376         hc    117    bbb     H8   3376 0.04936100   1.008000   ; qtot -0.035845
 3377         c3    117    bbb     C5   3377 0.11363000  12.010000   ; qtot 0.077785
 3378         hc    117    bbb     H9   3378 0.06265900   1.008000   ; qtot 0.140444
 3379         hc    117    bbb    H10   3379 0.06265900   1.008000   ; qtot 0.203103
 3380         c3    117    bbb     C6   3380 0.11363000  12.010000   ; qtot 0.316733
 3381         hc    117    bbb    H11   3381 0.06265900   1.008000   ; qtot 0.379392
 3382         hc    117    bbb    H12   3382 0.06265900   1.008000   ; qtot 0.442051
 3383         c3    117    bbb     C7   3383 0.05858200  12.010000   ; qtot 0.500633
 3384         h1    117    bbb    H13   3384 0.06123400   1.008000   ; qtot 0.561867
 3385         h1    117    bbb    H14   3385 0.06123400   1.008000   ; qtot 0.623101
 3386         c3    117    bbb     C8   3386 -0.72423400  12.010000   ; qtot -0.101133
 3387         h1    117    bbb    H15   3387 0.25637600   1.008000   ; qtot 0.155243
 3388         h1    117    bbb    H16   3388 0.25637600   1.008000   ; qtot 0.411619
 3389         c3    117    bbb     C9   3389 -0.72423400  12.010000   ; qtot -0.312615
 3390         h1    117    bbb    H17   3390 0.25637600   1.008000   ; qtot -0.056239
 3391         h1    117    bbb    H18   3391 0.25637600   1.008000   ; qtot 0.200137
 3392         os    117    bbb     O1   3392 -0.20025300  16.000000   ; qtot -0.000116
; residue  118 bbb rtp bbb q -0.0
 3393         n3    118    bbb     N1   3393 -0.59685800  14.010000   ; qtot -0.596974
 3394         c3    118    bbb     C1   3394 0.10137000  12.010000   ; qtot -0.495604
 3395         h1    118    bbb     H1   3395 0.04411300   1.008000   ; qtot -0.451491
 3396         h1    118    bbb     H2   3396 0.04411300   1.008000   ; qtot -0.407378
 3397         c3    118    bbb     C2   3397 0.10137000  12.010000   ; qtot -0.306008
 3398         h1    118    bbb     H3   3398 0.04411300   1.008000   ; qtot -0.261895
 3399         h1    118    bbb     H4   3399 0.04411300   1.008000   ; qtot -0.217782
 3400         c3    118    bbb     C3   3400 -0.00195300  12.010000   ; qtot -0.219735
 3401         h1    118    bbb     H5   3401 0.05064400   1.008000   ; qtot -0.169091
 3402         h1    118    bbb     H6   3402 0.05064400   1.008000   ; qtot -0.118447
 3403         c3    118    bbb     C4   3403 -0.01612100  12.010000   ; qtot -0.134568
 3404         hc    118    bbb     H7   3404 0.04936100   1.008000   ; qtot -0.085207
 3405         hc    118    bbb     H8   3405 0.04936100   1.008000   ; qtot -0.035846
 3406         c3    118    bbb     C5   3406 0.11363000  12.010000   ; qtot 0.077784
 3407         hc    118    bbb     H9   3407 0.06265900   1.008000   ; qtot 0.140443
 3408         hc    118    bbb    H10   3408 0.06265900   1.008000   ; qtot 0.203102
 3409         c3    118    bbb     C6   3409 0.11363000  12.010000   ; qtot 0.316732
 3410         hc    118    bbb    H11   3410 0.06265900   1.008000   ; qtot 0.379391
 3411         hc    118    bbb    H12   3411 0.06265900   1.008000   ; qtot 0.442050
 3412         c3    118    bbb     C7   3412 0.05858200  12.010000   ; qtot 0.500632
 3413         h1    118    bbb    H13   3413 0.06123400   1.008000   ; qtot 0.561866
 3414         h1    118    bbb    H14   3414 0.06123400   1.008000   ; qtot 0.623100
 3415         c3    118    bbb     C8   3415 -0.72423400  12.010000   ; qtot -0.101134
 3416         h1    118    bbb    H15   3416 0.25637600   1.008000   ; qtot 0.155242
 3417         h1    118    bbb    H16   3417 0.25637600   1.008000   ; qtot 0.411618
 3418         c3    118    bbb     C9   3418 -0.72423400  12.010000   ; qtot -0.312616
 3419         h1    118    bbb    H17   3419 0.25637600   1.008000   ; qtot -0.056240
 3420         h1    118    bbb    H18   3420 0.25637600   1.008000   ; qtot 0.200136
 3421         os    118    bbb     O1   3421 -0.20025300  16.000000   ; qtot -0.000117
; residue  119 bbb rtp bbb q -0.0
 3422         n3    119    bbb     N1   3422 -0.59685800  14.010000   ; qtot -0.596975
 3423         c3    119    bbb     C1   3423 0.10137000  12.010000   ; qtot -0.495605
 3424         h1    119    bbb     H1   3424 0.04411300   1.008000   ; qtot -0.451492
 3425         h1    119    bbb     H2   3425 0.04411300   1.008000   ; qtot -0.407379
 3426         c3    119    bbb     C2   3426 0.10137000  12.010000   ; qtot -0.306009
 3427         h1    119    bbb     H3   3427 0.04411300   1.008000   ; qtot -0.261896
 3428         h1    119    bbb     H4   3428 0.04411300   1.008000   ; qtot -0.217783
 3429         c3    119    bbb     C3   3429 -0.00195300  12.010000   ; qtot -0.219736
 3430         h1    119    bbb     H5   3430 0.05064400   1.008000   ; qtot -0.169092
 3431         h1    119    bbb     H6   3431 0.05064400   1.008000   ; qtot -0.118448
 3432         c3    119    bbb     C4   3432 -0.01612100  12.010000   ; qtot -0.134569
 3433         hc    119    bbb     H7   3433 0.04936100   1.008000   ; qtot -0.085208
 3434         hc    119    bbb     H8   3434 0.04936100   1.008000   ; qtot -0.035847
 3435         c3    119    bbb     C5   3435 0.11363000  12.010000   ; qtot 0.077783
 3436         hc    119    bbb     H9   3436 0.06265900   1.008000   ; qtot 0.140442
 3437         hc    119    bbb    H10   3437 0.06265900   1.008000   ; qtot 0.203101
 3438         c3    119    bbb     C6   3438 0.11363000  12.010000   ; qtot 0.316731
 3439         hc    119    bbb    H11   3439 0.06265900   1.008000   ; qtot 0.379390
 3440         hc    119    bbb    H12   3440 0.06265900   1.008000   ; qtot 0.442049
 3441         c3    119    bbb     C7   3441 0.05858200  12.010000   ; qtot 0.500631
 3442         h1    119    bbb    H13   3442 0.06123400   1.008000   ; qtot 0.561865
 3443         h1    119    bbb    H14   3443 0.06123400   1.008000   ; qtot 0.623099
 3444         c3    119    bbb     C8   3444 -0.72423400  12.010000   ; qtot -0.101135
 3445         h1    119    bbb    H15   3445 0.25637600   1.008000   ; qtot 0.155241
 3446         h1    119    bbb    H16   3446 0.25637600   1.008000   ; qtot 0.411617
 3447         c3    119    bbb     C9   3447 -0.72423400  12.010000   ; qtot -0.312617
 3448         h1    119    bbb    H17   3448 0.25637600   1.008000   ; qtot -0.056241
 3449         h1    119    bbb    H18   3449 0.25637600   1.008000   ; qtot 0.200135
 3450         os    119    bbb     O1   3450 -0.20025300  16.000000   ; qtot -0.000118
; residue  120 bbb rtp bbb q -0.0
 3451         n3    120    bbb     N1   3451 -0.59685800  14.010000   ; qtot -0.596976
 3452         c3    120    bbb     C1   3452 0.10137000  12.010000   ; qtot -0.495606
 3453         h1    120    bbb     H1   3453 0.04411300   1.008000   ; qtot -0.451493
 3454         h1    120    bbb     H2   3454 0.04411300   1.008000   ; qtot -0.407380
 3455         c3    120    bbb     C2   3455 0.10137000  12.010000   ; qtot -0.306010
 3456         h1    120    bbb     H3   3456 0.04411300   1.008000   ; qtot -0.261897
 3457         h1    120    bbb     H4   3457 0.04411300   1.008000   ; qtot -0.217784
 3458         c3    120    bbb     C3   3458 -0.00195300  12.010000   ; qtot -0.219737
 3459         h1    120    bbb     H5   3459 0.05064400   1.008000   ; qtot -0.169093
 3460         h1    120    bbb     H6   3460 0.05064400   1.008000   ; qtot -0.118449
 3461         c3    120    bbb     C4   3461 -0.01612100  12.010000   ; qtot -0.134570
 3462         hc    120    bbb     H7   3462 0.04936100   1.008000   ; qtot -0.085209
 3463         hc    120    bbb     H8   3463 0.04936100   1.008000   ; qtot -0.035848
 3464         c3    120    bbb     C5   3464 0.11363000  12.010000   ; qtot 0.077782
 3465         hc    120    bbb     H9   3465 0.06265900   1.008000   ; qtot 0.140441
 3466         hc    120    bbb    H10   3466 0.06265900   1.008000   ; qtot 0.203100
 3467         c3    120    bbb     C6   3467 0.11363000  12.010000   ; qtot 0.316730
 3468         hc    120    bbb    H11   3468 0.06265900   1.008000   ; qtot 0.379389
 3469         hc    120    bbb    H12   3469 0.06265900   1.008000   ; qtot 0.442048
 3470         c3    120    bbb     C7   3470 0.05858200  12.010000   ; qtot 0.500630
 3471         h1    120    bbb    H13   3471 0.06123400   1.008000   ; qtot 0.561864
 3472         h1    120    bbb    H14   3472 0.06123400   1.008000   ; qtot 0.623098
 3473         c3    120    bbb     C8   3473 -0.72423400  12.010000   ; qtot -0.101136
 3474         h1    120    bbb    H15   3474 0.25637600   1.008000   ; qtot 0.155240
 3475         h1    120    bbb    H16   3475 0.25637600   1.008000   ; qtot 0.411616
 3476         c3    120    bbb     C9   3476 -0.72423400  12.010000   ; qtot -0.312618
 3477         h1    120    bbb    H17   3477 0.25637600   1.008000   ; qtot -0.056242
 3478         h1    120    bbb    H18   3478 0.25637600   1.008000   ; qtot 0.200134
 3479         os    120    bbb     O1   3479 -0.20025300  16.000000   ; qtot -0.000119
; residue  121 bbb rtp bbb q -0.0
 3480         n3    121    bbb     N1   3480 -0.59685800  14.010000   ; qtot -0.596977
 3481         c3    121    bbb     C1   3481 0.10137000  12.010000   ; qtot -0.495607
 3482         h1    121    bbb     H1   3482 0.04411300   1.008000   ; qtot -0.451494
 3483         h1    121    bbb     H2   3483 0.04411300   1.008000   ; qtot -0.407381
 3484         c3    121    bbb     C2   3484 0.10137000  12.010000   ; qtot -0.306011
 3485         h1    121    bbb     H3   3485 0.04411300   1.008000   ; qtot -0.261898
 3486         h1    121    bbb     H4   3486 0.04411300   1.008000   ; qtot -0.217785
 3487         c3    121    bbb     C3   3487 -0.00195300  12.010000   ; qtot -0.219738
 3488         h1    121    bbb     H5   3488 0.05064400   1.008000   ; qtot -0.169094
 3489         h1    121    bbb     H6   3489 0.05064400   1.008000   ; qtot -0.118450
 3490         c3    121    bbb     C4   3490 -0.01612100  12.010000   ; qtot -0.134571
 3491         hc    121    bbb     H7   3491 0.04936100   1.008000   ; qtot -0.085210
 3492         hc    121    bbb     H8   3492 0.04936100   1.008000   ; qtot -0.035849
 3493         c3    121    bbb     C5   3493 0.11363000  12.010000   ; qtot 0.077781
 3494         hc    121    bbb     H9   3494 0.06265900   1.008000   ; qtot 0.140440
 3495         hc    121    bbb    H10   3495 0.06265900   1.008000   ; qtot 0.203099
 3496         c3    121    bbb     C6   3496 0.11363000  12.010000   ; qtot 0.316729
 3497         hc    121    bbb    H11   3497 0.06265900   1.008000   ; qtot 0.379388
 3498         hc    121    bbb    H12   3498 0.06265900   1.008000   ; qtot 0.442047
 3499         c3    121    bbb     C7   3499 0.05858200  12.010000   ; qtot 0.500629
 3500         h1    121    bbb    H13   3500 0.06123400   1.008000   ; qtot 0.561863
 3501         h1    121    bbb    H14   3501 0.06123400   1.008000   ; qtot 0.623097
 3502         c3    121    bbb     C8   3502 -0.72423400  12.010000   ; qtot -0.101137
 3503         h1    121    bbb    H15   3503 0.25637600   1.008000   ; qtot 0.155239
 3504         h1    121    bbb    H16   3504 0.25637600   1.008000   ; qtot 0.411615
 3505         c3    121    bbb     C9   3505 -0.72423400  12.010000   ; qtot -0.312619
 3506         h1    121    bbb    H17   3506 0.25637600   1.008000   ; qtot -0.056243
 3507         h1    121    bbb    H18   3507 0.25637600   1.008000   ; qtot 0.200133
 3508         os    121    bbb     O1   3508 -0.20025300  16.000000   ; qtot -0.000120
; residue  122 bbb rtp bbb q -0.0
 3509         n3    122    bbb     N1   3509 -0.59685800  14.010000   ; qtot -0.596978
 3510         c3    122    bbb     C1   3510 0.10137000  12.010000   ; qtot -0.495608
 3511         h1    122    bbb     H1   3511 0.04411300   1.008000   ; qtot -0.451495
 3512         h1    122    bbb     H2   3512 0.04411300   1.008000   ; qtot -0.407382
 3513         c3    122    bbb     C2   3513 0.10137000  12.010000   ; qtot -0.306012
 3514         h1    122    bbb     H3   3514 0.04411300   1.008000   ; qtot -0.261899
 3515         h1    122    bbb     H4   3515 0.04411300   1.008000   ; qtot -0.217786
 3516         c3    122    bbb     C3   3516 -0.00195300  12.010000   ; qtot -0.219739
 3517         h1    122    bbb     H5   3517 0.05064400   1.008000   ; qtot -0.169095
 3518         h1    122    bbb     H6   3518 0.05064400   1.008000   ; qtot -0.118451
 3519         c3    122    bbb     C4   3519 -0.01612100  12.010000   ; qtot -0.134572
 3520         hc    122    bbb     H7   3520 0.04936100   1.008000   ; qtot -0.085211
 3521         hc    122    bbb     H8   3521 0.04936100   1.008000   ; qtot -0.035850
 3522         c3    122    bbb     C5   3522 0.11363000  12.010000   ; qtot 0.077780
 3523         hc    122    bbb     H9   3523 0.06265900   1.008000   ; qtot 0.140439
 3524         hc    122    bbb    H10   3524 0.06265900   1.008000   ; qtot 0.203098
 3525         c3    122    bbb     C6   3525 0.11363000  12.010000   ; qtot 0.316728
 3526         hc    122    bbb    H11   3526 0.06265900   1.008000   ; qtot 0.379387
 3527         hc    122    bbb    H12   3527 0.06265900   1.008000   ; qtot 0.442046
 3528         c3    122    bbb     C7   3528 0.05858200  12.010000   ; qtot 0.500628
 3529         h1    122    bbb    H13   3529 0.06123400   1.008000   ; qtot 0.561862
 3530         h1    122    bbb    H14   3530 0.06123400   1.008000   ; qtot 0.623096
 3531         c3    122    bbb     C8   3531 -0.72423400  12.010000   ; qtot -0.101138
 3532         h1    122    bbb    H15   3532 0.25637600   1.008000   ; qtot 0.155238
 3533         h1    122    bbb    H16   3533 0.25637600   1.008000   ; qtot 0.411614
 3534         c3    122    bbb     C9   3534 -0.72423400  12.010000   ; qtot -0.312620
 3535         h1    122    bbb    H17   3535 0.25637600   1.008000   ; qtot -0.056244
 3536         h1    122    bbb    H18   3536 0.25637600   1.008000   ; qtot 0.200132
 3537         os    122    bbb     O1   3537 -0.20025300  16.000000   ; qtot -0.000121
; residue  123 bbb rtp bbb q -0.0
 3538         n3    123    bbb     N1   3538 -0.59685800  14.010000   ; qtot -0.596979
 3539         c3    123    bbb     C1   3539 0.10137000  12.010000   ; qtot -0.495609
 3540         h1    123    bbb     H1   3540 0.04411300   1.008000   ; qtot -0.451496
 3541         h1    123    bbb     H2   3541 0.04411300   1.008000   ; qtot -0.407383
 3542         c3    123    bbb     C2   3542 0.10137000  12.010000   ; qtot -0.306013
 3543         h1    123    bbb     H3   3543 0.04411300   1.008000   ; qtot -0.261900
 3544         h1    123    bbb     H4   3544 0.04411300   1.008000   ; qtot -0.217787
 3545         c3    123    bbb     C3   3545 -0.00195300  12.010000   ; qtot -0.219740
 3546         h1    123    bbb     H5   3546 0.05064400   1.008000   ; qtot -0.169096
 3547         h1    123    bbb     H6   3547 0.05064400   1.008000   ; qtot -0.118452
 3548         c3    123    bbb     C4   3548 -0.01612100  12.010000   ; qtot -0.134573
 3549         hc    123    bbb     H7   3549 0.04936100   1.008000   ; qtot -0.085212
 3550         hc    123    bbb     H8   3550 0.04936100   1.008000   ; qtot -0.035851
 3551         c3    123    bbb     C5   3551 0.11363000  12.010000   ; qtot 0.077779
 3552         hc    123    bbb     H9   3552 0.06265900   1.008000   ; qtot 0.140438
 3553         hc    123    bbb    H10   3553 0.06265900   1.008000   ; qtot 0.203097
 3554         c3    123    bbb     C6   3554 0.11363000  12.010000   ; qtot 0.316727
 3555         hc    123    bbb    H11   3555 0.06265900   1.008000   ; qtot 0.379386
 3556         hc    123    bbb    H12   3556 0.06265900   1.008000   ; qtot 0.442045
 3557         c3    123    bbb     C7   3557 0.05858200  12.010000   ; qtot 0.500627
 3558         h1    123    bbb    H13   3558 0.06123400   1.008000   ; qtot 0.561861
 3559         h1    123    bbb    H14   3559 0.06123400   1.008000   ; qtot 0.623095
 3560         c3    123    bbb     C8   3560 -0.72423400  12.010000   ; qtot -0.101139
 3561         h1    123    bbb    H15   3561 0.25637600   1.008000   ; qtot 0.155237
 3562         h1    123    bbb    H16   3562 0.25637600   1.008000   ; qtot 0.411613
 3563         c3    123    bbb     C9   3563 -0.72423400  12.010000   ; qtot -0.312620
 3564         h1    123    bbb    H17   3564 0.25637600   1.008000   ; qtot -0.056245
 3565         h1    123    bbb    H18   3565 0.25637600   1.008000   ; qtot 0.200131
 3566         os    123    bbb     O1   3566 -0.20025300  16.000000   ; qtot -0.000122
; residue  124 bbb rtp bbb q -0.0
 3567         n3    124    bbb     N1   3567 -0.59685800  14.010000   ; qtot -0.596979
 3568         c3    124    bbb     C1   3568 0.10137000  12.010000   ; qtot -0.495609
 3569         h1    124    bbb     H1   3569 0.04411300   1.008000   ; qtot -0.451496
 3570         h1    124    bbb     H2   3570 0.04411300   1.008000   ; qtot -0.407383
 3571         c3    124    bbb     C2   3571 0.10137000  12.010000   ; qtot -0.306013
 3572         h1    124    bbb     H3   3572 0.04411300   1.008000   ; qtot -0.261900
 3573         h1    124    bbb     H4   3573 0.04411300   1.008000   ; qtot -0.217787
 3574         c3    124    bbb     C3   3574 -0.00195300  12.010000   ; qtot -0.219740
 3575         h1    124    bbb     H5   3575 0.05064400   1.008000   ; qtot -0.169096
 3576         h1    124    bbb     H6   3576 0.05064400   1.008000   ; qtot -0.118452
 3577         c3    124    bbb     C4   3577 -0.01612100  12.010000   ; qtot -0.134573
 3578         hc    124    bbb     H7   3578 0.04936100   1.008000   ; qtot -0.085212
 3579         hc    124    bbb     H8   3579 0.04936100   1.008000   ; qtot -0.035851
 3580         c3    124    bbb     C5   3580 0.11363000  12.010000   ; qtot 0.077779
 3581         hc    124    bbb     H9   3581 0.06265900   1.008000   ; qtot 0.140438
 3582         hc    124    bbb    H10   3582 0.06265900   1.008000   ; qtot 0.203097
 3583         c3    124    bbb     C6   3583 0.11363000  12.010000   ; qtot 0.316727
 3584         hc    124    bbb    H11   3584 0.06265900   1.008000   ; qtot 0.379386
 3585         hc    124    bbb    H12   3585 0.06265900   1.008000   ; qtot 0.442045
 3586         c3    124    bbb     C7   3586 0.05858200  12.010000   ; qtot 0.500627
 3587         h1    124    bbb    H13   3587 0.06123400   1.008000   ; qtot 0.561861
 3588         h1    124    bbb    H14   3588 0.06123400   1.008000   ; qtot 0.623095
 3589         c3    124    bbb     C8   3589 -0.72423400  12.010000   ; qtot -0.101139
 3590         h1    124    bbb    H15   3590 0.25637600   1.008000   ; qtot 0.155237
 3591         h1    124    bbb    H16   3591 0.25637600   1.008000   ; qtot 0.411613
 3592         c3    124    bbb     C9   3592 -0.72423400  12.010000   ; qtot -0.312621
 3593         h1    124    bbb    H17   3593 0.25637600   1.008000   ; qtot -0.056245
 3594         h1    124    bbb    H18   3594 0.25637600   1.008000   ; qtot 0.200131
 3595         os    124    bbb     O1   3595 -0.20025300  16.000000   ; qtot -0.000122
; residue  125 bbb rtp bbb q -0.0
 3596         n3    125    bbb     N1   3596 -0.59685800  14.010000   ; qtot -0.596980
 3597         c3    125    bbb     C1   3597 0.10137000  12.010000   ; qtot -0.495610
 3598         h1    125    bbb     H1   3598 0.04411300   1.008000   ; qtot -0.451497
 3599         h1    125    bbb     H2   3599 0.04411300   1.008000   ; qtot -0.407384
 3600         c3    125    bbb     C2   3600 0.10137000  12.010000   ; qtot -0.306014
 3601         h1    125    bbb     H3   3601 0.04411300   1.008000   ; qtot -0.261901
 3602         h1    125    bbb     H4   3602 0.04411300   1.008000   ; qtot -0.217788
 3603         c3    125    bbb     C3   3603 -0.00195300  12.010000   ; qtot -0.219741
 3604         h1    125    bbb     H5   3604 0.05064400   1.008000   ; qtot -0.169097
 3605         h1    125    bbb     H6   3605 0.05064400   1.008000   ; qtot -0.118453
 3606         c3    125    bbb     C4   3606 -0.01612100  12.010000   ; qtot -0.134574
 3607         hc    125    bbb     H7   3607 0.04936100   1.008000   ; qtot -0.085213
 3608         hc    125    bbb     H8   3608 0.04936100   1.008000   ; qtot -0.035852
 3609         c3    125    bbb     C5   3609 0.11363000  12.010000   ; qtot 0.077778
 3610         hc    125    bbb     H9   3610 0.06265900   1.008000   ; qtot 0.140437
 3611         hc    125    bbb    H10   3611 0.06265900   1.008000   ; qtot 0.203096
 3612         c3    125    bbb     C6   3612 0.11363000  12.010000   ; qtot 0.316726
 3613         hc    125    bbb    H11   3613 0.06265900   1.008000   ; qtot 0.379385
 3614         hc    125    bbb    H12   3614 0.06265900   1.008000   ; qtot 0.442044
 3615         c3    125    bbb     C7   3615 0.05858200  12.010000   ; qtot 0.500626
 3616         h1    125    bbb    H13   3616 0.06123400   1.008000   ; qtot 0.561860
 3617         h1    125    bbb    H14   3617 0.06123400   1.008000   ; qtot 0.623094
 3618         c3    125    bbb     C8   3618 -0.72423400  12.010000   ; qtot -0.101140
 3619         h1    125    bbb    H15   3619 0.25637600   1.008000   ; qtot 0.155236
 3620         h1    125    bbb    H16   3620 0.25637600   1.008000   ; qtot 0.411612
 3621         c3    125    bbb     C9   3621 -0.72423400  12.010000   ; qtot -0.312622
 3622         h1    125    bbb    H17   3622 0.25637600   1.008000   ; qtot -0.056246
 3623         h1    125    bbb    H18   3623 0.25637600   1.008000   ; qtot 0.200130
 3624         os    125    bbb     O1   3624 -0.20025300  16.000000   ; qtot -0.000123
; residue  126 bbb rtp bbb q -0.0
 3625         n3    126    bbb     N1   3625 -0.59685800  14.010000   ; qtot -0.596981
 3626         c3    126    bbb     C1   3626 0.10137000  12.010000   ; qtot -0.495611
 3627         h1    126    bbb     H1   3627 0.04411300   1.008000   ; qtot -0.451498
 3628         h1    126    bbb     H2   3628 0.04411300   1.008000   ; qtot -0.407385
 3629         c3    126    bbb     C2   3629 0.10137000  12.010000   ; qtot -0.306015
 3630         h1    126    bbb     H3   3630 0.04411300   1.008000   ; qtot -0.261902
 3631         h1    126    bbb     H4   3631 0.04411300   1.008000   ; qtot -0.217789
 3632         c3    126    bbb     C3   3632 -0.00195300  12.010000   ; qtot -0.219742
 3633         h1    126    bbb     H5   3633 0.05064400   1.008000   ; qtot -0.169098
 3634         h1    126    bbb     H6   3634 0.05064400   1.008000   ; qtot -0.118454
 3635         c3    126    bbb     C4   3635 -0.01612100  12.010000   ; qtot -0.134575
 3636         hc    126    bbb     H7   3636 0.04936100   1.008000   ; qtot -0.085214
 3637         hc    126    bbb     H8   3637 0.04936100   1.008000   ; qtot -0.035853
 3638         c3    126    bbb     C5   3638 0.11363000  12.010000   ; qtot 0.077777
 3639         hc    126    bbb     H9   3639 0.06265900   1.008000   ; qtot 0.140436
 3640         hc    126    bbb    H10   3640 0.06265900   1.008000   ; qtot 0.203095
 3641         c3    126    bbb     C6   3641 0.11363000  12.010000   ; qtot 0.316725
 3642         hc    126    bbb    H11   3642 0.06265900   1.008000   ; qtot 0.379384
 3643         hc    126    bbb    H12   3643 0.06265900   1.008000   ; qtot 0.442043
 3644         c3    126    bbb     C7   3644 0.05858200  12.010000   ; qtot 0.500625
 3645         h1    126    bbb    H13   3645 0.06123400   1.008000   ; qtot 0.561859
 3646         h1    126    bbb    H14   3646 0.06123400   1.008000   ; qtot 0.623093
 3647         c3    126    bbb     C8   3647 -0.72423400  12.010000   ; qtot -0.101141
 3648         h1    126    bbb    H15   3648 0.25637600   1.008000   ; qtot 0.155235
 3649         h1    126    bbb    H16   3649 0.25637600   1.008000   ; qtot 0.411611
 3650         c3    126    bbb     C9   3650 -0.72423400  12.010000   ; qtot -0.312623
 3651         h1    126    bbb    H17   3651 0.25637600   1.008000   ; qtot -0.056247
 3652         h1    126    bbb    H18   3652 0.25637600   1.008000   ; qtot 0.200129
 3653         os    126    bbb     O1   3653 -0.20025300  16.000000   ; qtot -0.000124
; residue  127 bbb rtp bbb q -0.0
 3654         n3    127    bbb     N1   3654 -0.59685800  14.010000   ; qtot -0.596982
 3655         c3    127    bbb     C1   3655 0.10137000  12.010000   ; qtot -0.495612
 3656         h1    127    bbb     H1   3656 0.04411300   1.008000   ; qtot -0.451499
 3657         h1    127    bbb     H2   3657 0.04411300   1.008000   ; qtot -0.407386
 3658         c3    127    bbb     C2   3658 0.10137000  12.010000   ; qtot -0.306016
 3659         h1    127    bbb     H3   3659 0.04411300   1.008000   ; qtot -0.261903
 3660         h1    127    bbb     H4   3660 0.04411300   1.008000   ; qtot -0.217790
 3661         c3    127    bbb     C3   3661 -0.00195300  12.010000   ; qtot -0.219743
 3662         h1    127    bbb     H5   3662 0.05064400   1.008000   ; qtot -0.169099
 3663         h1    127    bbb     H6   3663 0.05064400   1.008000   ; qtot -0.118455
 3664         c3    127    bbb     C4   3664 -0.01612100  12.010000   ; qtot -0.134576
 3665         hc    127    bbb     H7   3665 0.04936100   1.008000   ; qtot -0.085215
 3666         hc    127    bbb     H8   3666 0.04936100   1.008000   ; qtot -0.035854
 3667         c3    127    bbb     C5   3667 0.11363000  12.010000   ; qtot 0.077776
 3668         hc    127    bbb     H9   3668 0.06265900   1.008000   ; qtot 0.140435
 3669         hc    127    bbb    H10   3669 0.06265900   1.008000   ; qtot 0.203094
 3670         c3    127    bbb     C6   3670 0.11363000  12.010000   ; qtot 0.316724
 3671         hc    127    bbb    H11   3671 0.06265900   1.008000   ; qtot 0.379383
 3672         hc    127    bbb    H12   3672 0.06265900   1.008000   ; qtot 0.442042
 3673         c3    127    bbb     C7   3673 0.05858200  12.010000   ; qtot 0.500624
 3674         h1    127    bbb    H13   3674 0.06123400   1.008000   ; qtot 0.561858
 3675         h1    127    bbb    H14   3675 0.06123400   1.008000   ; qtot 0.623092
 3676         c3    127    bbb     C8   3676 -0.72423400  12.010000   ; qtot -0.101142
 3677         h1    127    bbb    H15   3677 0.25637600   1.008000   ; qtot 0.155234
 3678         h1    127    bbb    H16   3678 0.25637600   1.008000   ; qtot 0.411610
 3679         c3    127    bbb     C9   3679 -0.72423400  12.010000   ; qtot -0.312624
 3680         h1    127    bbb    H17   3680 0.25637600   1.008000   ; qtot -0.056248
 3681         h1    127    bbb    H18   3681 0.25637600   1.008000   ; qtot 0.200128
 3682         os    127    bbb     O1   3682 -0.20025300  16.000000   ; qtot -0.000125
; residue  128 bbb rtp bbb q -0.0
 3683         n3    128    bbb     N1   3683 -0.59685800  14.010000   ; qtot -0.596983
 3684         c3    128    bbb     C1   3684 0.10137000  12.010000   ; qtot -0.495613
 3685         h1    128    bbb     H1   3685 0.04411300   1.008000   ; qtot -0.451500
 3686         h1    128    bbb     H2   3686 0.04411300   1.008000   ; qtot -0.407387
 3687         c3    128    bbb     C2   3687 0.10137000  12.010000   ; qtot -0.306017
 3688         h1    128    bbb     H3   3688 0.04411300   1.008000   ; qtot -0.261904
 3689         h1    128    bbb     H4   3689 0.04411300   1.008000   ; qtot -0.217791
 3690         c3    128    bbb     C3   3690 -0.00195300  12.010000   ; qtot -0.219744
 3691         h1    128    bbb     H5   3691 0.05064400   1.008000   ; qtot -0.169100
 3692         h1    128    bbb     H6   3692 0.05064400   1.008000   ; qtot -0.118456
 3693         c3    128    bbb     C4   3693 -0.01612100  12.010000   ; qtot -0.134577
 3694         hc    128    bbb     H7   3694 0.04936100   1.008000   ; qtot -0.085216
 3695         hc    128    bbb     H8   3695 0.04936100   1.008000   ; qtot -0.035855
 3696         c3    128    bbb     C5   3696 0.11363000  12.010000   ; qtot 0.077775
 3697         hc    128    bbb     H9   3697 0.06265900   1.008000   ; qtot 0.140434
 3698         hc    128    bbb    H10   3698 0.06265900   1.008000   ; qtot 0.203093
 3699         c3    128    bbb     C6   3699 0.11363000  12.010000   ; qtot 0.316723
 3700         hc    128    bbb    H11   3700 0.06265900   1.008000   ; qtot 0.379382
 3701         hc    128    bbb    H12   3701 0.06265900   1.008000   ; qtot 0.442041
 3702         c3    128    bbb     C7   3702 0.05858200  12.010000   ; qtot 0.500623
 3703         h1    128    bbb    H13   3703 0.06123400   1.008000   ; qtot 0.561857
 3704         h1    128    bbb    H14   3704 0.06123400   1.008000   ; qtot 0.623091
 3705         c3    128    bbb     C8   3705 -0.72423400  12.010000   ; qtot -0.101143
 3706         h1    128    bbb    H15   3706 0.25637600   1.008000   ; qtot 0.155233
 3707         h1    128    bbb    H16   3707 0.25637600   1.008000   ; qtot 0.411609
 3708         c3    128    bbb     C9   3708 -0.72423400  12.010000   ; qtot -0.312625
 3709         h1    128    bbb    H17   3709 0.25637600   1.008000   ; qtot -0.056249
 3710         h1    128    bbb    H18   3710 0.25637600   1.008000   ; qtot 0.200127
 3711         os    128    bbb     O1   3711 -0.20025300  16.000000   ; qtot -0.000126
; residue  129 bbb rtp bbb q -0.0
 3712         n3    129    bbb     N1   3712 -0.59685800  14.010000   ; qtot -0.596984
 3713         c3    129    bbb     C1   3713 0.10137000  12.010000   ; qtot -0.495614
 3714         h1    129    bbb     H1   3714 0.04411300   1.008000   ; qtot -0.451501
 3715         h1    129    bbb     H2   3715 0.04411300   1.008000   ; qtot -0.407388
 3716         c3    129    bbb     C2   3716 0.10137000  12.010000   ; qtot -0.306018
 3717         h1    129    bbb     H3   3717 0.04411300   1.008000   ; qtot -0.261905
 3718         h1    129    bbb     H4   3718 0.04411300   1.008000   ; qtot -0.217792
 3719         c3    129    bbb     C3   3719 -0.00195300  12.010000   ; qtot -0.219745
 3720         h1    129    bbb     H5   3720 0.05064400   1.008000   ; qtot -0.169101
 3721         h1    129    bbb     H6   3721 0.05064400   1.008000   ; qtot -0.118457
 3722         c3    129    bbb     C4   3722 -0.01612100  12.010000   ; qtot -0.134578
 3723         hc    129    bbb     H7   3723 0.04936100   1.008000   ; qtot -0.085217
 3724         hc    129    bbb     H8   3724 0.04936100   1.008000   ; qtot -0.035856
 3725         c3    129    bbb     C5   3725 0.11363000  12.010000   ; qtot 0.077774
 3726         hc    129    bbb     H9   3726 0.06265900   1.008000   ; qtot 0.140433
 3727         hc    129    bbb    H10   3727 0.06265900   1.008000   ; qtot 0.203092
 3728         c3    129    bbb     C6   3728 0.11363000  12.010000   ; qtot 0.316722
 3729         hc    129    bbb    H11   3729 0.06265900   1.008000   ; qtot 0.379381
 3730         hc    129    bbb    H12   3730 0.06265900   1.008000   ; qtot 0.442040
 3731         c3    129    bbb     C7   3731 0.05858200  12.010000   ; qtot 0.500622
 3732         h1    129    bbb    H13   3732 0.06123400   1.008000   ; qtot 0.561856
 3733         h1    129    bbb    H14   3733 0.06123400   1.008000   ; qtot 0.623090
 3734         c3    129    bbb     C8   3734 -0.72423400  12.010000   ; qtot -0.101144
 3735         h1    129    bbb    H15   3735 0.25637600   1.008000   ; qtot 0.155232
 3736         h1    129    bbb    H16   3736 0.25637600   1.008000   ; qtot 0.411608
 3737         c3    129    bbb     C9   3737 -0.72423400  12.010000   ; qtot -0.312626
 3738         h1    129    bbb    H17   3738 0.25637600   1.008000   ; qtot -0.056250
 3739         h1    129    bbb    H18   3739 0.25637600   1.008000   ; qtot 0.200126
 3740         os    129    bbb     O1   3740 -0.20025300  16.000000   ; qtot -0.000127
; residue  130 bbb rtp bbb q -0.0
 3741         n3    130    bbb     N1   3741 -0.59685800  14.010000   ; qtot -0.596985
 3742         c3    130    bbb     C1   3742 0.10137000  12.010000   ; qtot -0.495615
 3743         h1    130    bbb     H1   3743 0.04411300   1.008000   ; qtot -0.451502
 3744         h1    130    bbb     H2   3744 0.04411300   1.008000   ; qtot -0.407389
 3745         c3    130    bbb     C2   3745 0.10137000  12.010000   ; qtot -0.306019
 3746         h1    130    bbb     H3   3746 0.04411300   1.008000   ; qtot -0.261906
 3747         h1    130    bbb     H4   3747 0.04411300   1.008000   ; qtot -0.217793
 3748         c3    130    bbb     C3   3748 -0.00195300  12.010000   ; qtot -0.219746
 3749         h1    130    bbb     H5   3749 0.05064400   1.008000   ; qtot -0.169102
 3750         h1    130    bbb     H6   3750 0.05064400   1.008000   ; qtot -0.118458
 3751         c3    130    bbb     C4   3751 -0.01612100  12.010000   ; qtot -0.134579
 3752         hc    130    bbb     H7   3752 0.04936100   1.008000   ; qtot -0.085218
 3753         hc    130    bbb     H8   3753 0.04936100   1.008000   ; qtot -0.035857
 3754         c3    130    bbb     C5   3754 0.11363000  12.010000   ; qtot 0.077773
 3755         hc    130    bbb     H9   3755 0.06265900   1.008000   ; qtot 0.140432
 3756         hc    130    bbb    H10   3756 0.06265900   1.008000   ; qtot 0.203091
 3757         c3    130    bbb     C6   3757 0.11363000  12.010000   ; qtot 0.316721
 3758         hc    130    bbb    H11   3758 0.06265900   1.008000   ; qtot 0.379380
 3759         hc    130    bbb    H12   3759 0.06265900   1.008000   ; qtot 0.442039
 3760         c3    130    bbb     C7   3760 0.05858200  12.010000   ; qtot 0.500621
 3761         h1    130    bbb    H13   3761 0.06123400   1.008000   ; qtot 0.561855
 3762         h1    130    bbb    H14   3762 0.06123400   1.008000   ; qtot 0.623089
 3763         c3    130    bbb     C8   3763 -0.72423400  12.010000   ; qtot -0.101145
 3764         h1    130    bbb    H15   3764 0.25637600   1.008000   ; qtot 0.155231
 3765         h1    130    bbb    H16   3765 0.25637600   1.008000   ; qtot 0.411607
 3766         c3    130    bbb     C9   3766 -0.72423400  12.010000   ; qtot -0.312627
 3767         h1    130    bbb    H17   3767 0.25637600   1.008000   ; qtot -0.056251
 3768         h1    130    bbb    H18   3768 0.25637600   1.008000   ; qtot 0.200125
 3769         os    130    bbb     O1   3769 -0.20025300  16.000000   ; qtot -0.000128
; residue  131 bbb rtp bbb q -0.0
 3770         n3    131    bbb     N1   3770 -0.59685800  14.010000   ; qtot -0.596986
 3771         c3    131    bbb     C1   3771 0.10137000  12.010000   ; qtot -0.495616
 3772         h1    131    bbb     H1   3772 0.04411300   1.008000   ; qtot -0.451503
 3773         h1    131    bbb     H2   3773 0.04411300   1.008000   ; qtot -0.407390
 3774         c3    131    bbb     C2   3774 0.10137000  12.010000   ; qtot -0.306020
 3775         h1    131    bbb     H3   3775 0.04411300   1.008000   ; qtot -0.261907
 3776         h1    131    bbb     H4   3776 0.04411300   1.008000   ; qtot -0.217794
 3777         c3    131    bbb     C3   3777 -0.00195300  12.010000   ; qtot -0.219747
 3778         h1    131    bbb     H5   3778 0.05064400   1.008000   ; qtot -0.169103
 3779         h1    131    bbb     H6   3779 0.05064400   1.008000   ; qtot -0.118459
 3780         c3    131    bbb     C4   3780 -0.01612100  12.010000   ; qtot -0.134580
 3781         hc    131    bbb     H7   3781 0.04936100   1.008000   ; qtot -0.085219
 3782         hc    131    bbb     H8   3782 0.04936100   1.008000   ; qtot -0.035858
 3783         c3    131    bbb     C5   3783 0.11363000  12.010000   ; qtot 0.077772
 3784         hc    131    bbb     H9   3784 0.06265900   1.008000   ; qtot 0.140431
 3785         hc    131    bbb    H10   3785 0.06265900   1.008000   ; qtot 0.203090
 3786         c3    131    bbb     C6   3786 0.11363000  12.010000   ; qtot 0.316720
 3787         hc    131    bbb    H11   3787 0.06265900   1.008000   ; qtot 0.379379
 3788         hc    131    bbb    H12   3788 0.06265900   1.008000   ; qtot 0.442038
 3789         c3    131    bbb     C7   3789 0.05858200  12.010000   ; qtot 0.500620
 3790         h1    131    bbb    H13   3790 0.06123400   1.008000   ; qtot 0.561854
 3791         h1    131    bbb    H14   3791 0.06123400   1.008000   ; qtot 0.623088
 3792         c3    131    bbb     C8   3792 -0.72423400  12.010000   ; qtot -0.101146
 3793         h1    131    bbb    H15   3793 0.25637600   1.008000   ; qtot 0.155230
 3794         h1    131    bbb    H16   3794 0.25637600   1.008000   ; qtot 0.411606
 3795         c3    131    bbb     C9   3795 -0.72423400  12.010000   ; qtot -0.312628
 3796         h1    131    bbb    H17   3796 0.25637600   1.008000   ; qtot -0.056252
 3797         h1    131    bbb    H18   3797 0.25637600   1.008000   ; qtot 0.200124
 3798         os    131    bbb     O1   3798 -0.20025300  16.000000   ; qtot -0.000129
; residue  132 bbb rtp bbb q -0.0
 3799         n3    132    bbb     N1   3799 -0.59685800  14.010000   ; qtot -0.596987
 3800         c3    132    bbb     C1   3800 0.10137000  12.010000   ; qtot -0.495617
 3801         h1    132    bbb     H1   3801 0.04411300   1.008000   ; qtot -0.451504
 3802         h1    132    bbb     H2   3802 0.04411300   1.008000   ; qtot -0.407391
 3803         c3    132    bbb     C2   3803 0.10137000  12.010000   ; qtot -0.306021
 3804         h1    132    bbb     H3   3804 0.04411300   1.008000   ; qtot -0.261908
 3805         h1    132    bbb     H4   3805 0.04411300   1.008000   ; qtot -0.217795
 3806         c3    132    bbb     C3   3806 -0.00195300  12.010000   ; qtot -0.219748
 3807         h1    132    bbb     H5   3807 0.05064400   1.008000   ; qtot -0.169104
 3808         h1    132    bbb     H6   3808 0.05064400   1.008000   ; qtot -0.118460
 3809         c3    132    bbb     C4   3809 -0.01612100  12.010000   ; qtot -0.134581
 3810         hc    132    bbb     H7   3810 0.04936100   1.008000   ; qtot -0.085220
 3811         hc    132    bbb     H8   3811 0.04936100   1.008000   ; qtot -0.035859
 3812         c3    132    bbb     C5   3812 0.11363000  12.010000   ; qtot 0.077771
 3813         hc    132    bbb     H9   3813 0.06265900   1.008000   ; qtot 0.140430
 3814         hc    132    bbb    H10   3814 0.06265900   1.008000   ; qtot 0.203089
 3815         c3    132    bbb     C6   3815 0.11363000  12.010000   ; qtot 0.316719
 3816         hc    132    bbb    H11   3816 0.06265900   1.008000   ; qtot 0.379378
 3817         hc    132    bbb    H12   3817 0.06265900   1.008000   ; qtot 0.442037
 3818         c3    132    bbb     C7   3818 0.05858200  12.010000   ; qtot 0.500619
 3819         h1    132    bbb    H13   3819 0.06123400   1.008000   ; qtot 0.561853
 3820         h1    132    bbb    H14   3820 0.06123400   1.008000   ; qtot 0.623087
 3821         c3    132    bbb     C8   3821 -0.72423400  12.010000   ; qtot -0.101147
 3822         h1    132    bbb    H15   3822 0.25637600   1.008000   ; qtot 0.155229
 3823         h1    132    bbb    H16   3823 0.25637600   1.008000   ; qtot 0.411605
 3824         c3    132    bbb     C9   3824 -0.72423400  12.010000   ; qtot -0.312629
 3825         h1    132    bbb    H17   3825 0.25637600   1.008000   ; qtot -0.056253
 3826         h1    132    bbb    H18   3826 0.25637600   1.008000   ; qtot 0.200123
 3827         os    132    bbb     O1   3827 -0.20025300  16.000000   ; qtot -0.000130
; residue  133 bbb rtp bbb q -0.0
 3828         n3    133    bbb     N1   3828 -0.59685800  14.010000   ; qtot -0.596988
 3829         c3    133    bbb     C1   3829 0.10137000  12.010000   ; qtot -0.495618
 3830         h1    133    bbb     H1   3830 0.04411300   1.008000   ; qtot -0.451505
 3831         h1    133    bbb     H2   3831 0.04411300   1.008000   ; qtot -0.407392
 3832         c3    133    bbb     C2   3832 0.10137000  12.010000   ; qtot -0.306022
 3833         h1    133    bbb     H3   3833 0.04411300   1.008000   ; qtot -0.261909
 3834         h1    133    bbb     H4   3834 0.04411300   1.008000   ; qtot -0.217796
 3835         c3    133    bbb     C3   3835 -0.00195300  12.010000   ; qtot -0.219749
 3836         h1    133    bbb     H5   3836 0.05064400   1.008000   ; qtot -0.169105
 3837         h1    133    bbb     H6   3837 0.05064400   1.008000   ; qtot -0.118461
 3838         c3    133    bbb     C4   3838 -0.01612100  12.010000   ; qtot -0.134582
 3839         hc    133    bbb     H7   3839 0.04936100   1.008000   ; qtot -0.085221
 3840         hc    133    bbb     H8   3840 0.04936100   1.008000   ; qtot -0.035860
 3841         c3    133    bbb     C5   3841 0.11363000  12.010000   ; qtot 0.077770
 3842         hc    133    bbb     H9   3842 0.06265900   1.008000   ; qtot 0.140429
 3843         hc    133    bbb    H10   3843 0.06265900   1.008000   ; qtot 0.203088
 3844         c3    133    bbb     C6   3844 0.11363000  12.010000   ; qtot 0.316718
 3845         hc    133    bbb    H11   3845 0.06265900   1.008000   ; qtot 0.379377
 3846         hc    133    bbb    H12   3846 0.06265900   1.008000   ; qtot 0.442036
 3847         c3    133    bbb     C7   3847 0.05858200  12.010000   ; qtot 0.500618
 3848         h1    133    bbb    H13   3848 0.06123400   1.008000   ; qtot 0.561852
 3849         h1    133    bbb    H14   3849 0.06123400   1.008000   ; qtot 0.623086
 3850         c3    133    bbb     C8   3850 -0.72423400  12.010000   ; qtot -0.101148
 3851         h1    133    bbb    H15   3851 0.25637600   1.008000   ; qtot 0.155228
 3852         h1    133    bbb    H16   3852 0.25637600   1.008000   ; qtot 0.411604
 3853         c3    133    bbb     C9   3853 -0.72423400  12.010000   ; qtot -0.312630
 3854         h1    133    bbb    H17   3854 0.25637600   1.008000   ; qtot -0.056254
 3855         h1    133    bbb    H18   3855 0.25637600   1.008000   ; qtot 0.200122
 3856         os    133    bbb     O1   3856 -0.20025300  16.000000   ; qtot -0.000131
; residue  134 bbb rtp bbb q -0.0
 3857         n3    134    bbb     N1   3857 -0.59685800  14.010000   ; qtot -0.596989
 3858         c3    134    bbb     C1   3858 0.10137000  12.010000   ; qtot -0.495619
 3859         h1    134    bbb     H1   3859 0.04411300   1.008000   ; qtot -0.451506
 3860         h1    134    bbb     H2   3860 0.04411300   1.008000   ; qtot -0.407393
 3861         c3    134    bbb     C2   3861 0.10137000  12.010000   ; qtot -0.306023
 3862         h1    134    bbb     H3   3862 0.04411300   1.008000   ; qtot -0.261910
 3863         h1    134    bbb     H4   3863 0.04411300   1.008000   ; qtot -0.217797
 3864         c3    134    bbb     C3   3864 -0.00195300  12.010000   ; qtot -0.219750
 3865         h1    134    bbb     H5   3865 0.05064400   1.008000   ; qtot -0.169106
 3866         h1    134    bbb     H6   3866 0.05064400   1.008000   ; qtot -0.118462
 3867         c3    134    bbb     C4   3867 -0.01612100  12.010000   ; qtot -0.134583
 3868         hc    134    bbb     H7   3868 0.04936100   1.008000   ; qtot -0.085222
 3869         hc    134    bbb     H8   3869 0.04936100   1.008000   ; qtot -0.035861
 3870         c3    134    bbb     C5   3870 0.11363000  12.010000   ; qtot 0.077769
 3871         hc    134    bbb     H9   3871 0.06265900   1.008000   ; qtot 0.140428
 3872         hc    134    bbb    H10   3872 0.06265900   1.008000   ; qtot 0.203087
 3873         c3    134    bbb     C6   3873 0.11363000  12.010000   ; qtot 0.316717
 3874         hc    134    bbb    H11   3874 0.06265900   1.008000   ; qtot 0.379376
 3875         hc    134    bbb    H12   3875 0.06265900   1.008000   ; qtot 0.442035
 3876         c3    134    bbb     C7   3876 0.05858200  12.010000   ; qtot 0.500617
 3877         h1    134    bbb    H13   3877 0.06123400   1.008000   ; qtot 0.561851
 3878         h1    134    bbb    H14   3878 0.06123400   1.008000   ; qtot 0.623085
 3879         c3    134    bbb     C8   3879 -0.72423400  12.010000   ; qtot -0.101149
 3880         h1    134    bbb    H15   3880 0.25637600   1.008000   ; qtot 0.155227
 3881         h1    134    bbb    H16   3881 0.25637600   1.008000   ; qtot 0.411603
 3882         c3    134    bbb     C9   3882 -0.72423400  12.010000   ; qtot -0.312631
 3883         h1    134    bbb    H17   3883 0.25637600   1.008000   ; qtot -0.056255
 3884         h1    134    bbb    H18   3884 0.25637600   1.008000   ; qtot 0.200121
 3885         os    134    bbb     O1   3885 -0.20025300  16.000000   ; qtot -0.000132
; residue  135 bbb rtp bbb q -0.0
 3886         n3    135    bbb     N1   3886 -0.59685800  14.010000   ; qtot -0.596990
 3887         c3    135    bbb     C1   3887 0.10137000  12.010000   ; qtot -0.495620
 3888         h1    135    bbb     H1   3888 0.04411300   1.008000   ; qtot -0.451507
 3889         h1    135    bbb     H2   3889 0.04411300   1.008000   ; qtot -0.407394
 3890         c3    135    bbb     C2   3890 0.10137000  12.010000   ; qtot -0.306024
 3891         h1    135    bbb     H3   3891 0.04411300   1.008000   ; qtot -0.261911
 3892         h1    135    bbb     H4   3892 0.04411300   1.008000   ; qtot -0.217798
 3893         c3    135    bbb     C3   3893 -0.00195300  12.010000   ; qtot -0.219751
 3894         h1    135    bbb     H5   3894 0.05064400   1.008000   ; qtot -0.169107
 3895         h1    135    bbb     H6   3895 0.05064400   1.008000   ; qtot -0.118463
 3896         c3    135    bbb     C4   3896 -0.01612100  12.010000   ; qtot -0.134584
 3897         hc    135    bbb     H7   3897 0.04936100   1.008000   ; qtot -0.085223
 3898         hc    135    bbb     H8   3898 0.04936100   1.008000   ; qtot -0.035862
 3899         c3    135    bbb     C5   3899 0.11363000  12.010000   ; qtot 0.077768
 3900         hc    135    bbb     H9   3900 0.06265900   1.008000   ; qtot 0.140427
 3901         hc    135    bbb    H10   3901 0.06265900   1.008000   ; qtot 0.203086
 3902         c3    135    bbb     C6   3902 0.11363000  12.010000   ; qtot 0.316716
 3903         hc    135    bbb    H11   3903 0.06265900   1.008000   ; qtot 0.379375
 3904         hc    135    bbb    H12   3904 0.06265900   1.008000   ; qtot 0.442034
 3905         c3    135    bbb     C7   3905 0.05858200  12.010000   ; qtot 0.500616
 3906         h1    135    bbb    H13   3906 0.06123400   1.008000   ; qtot 0.561850
 3907         h1    135    bbb    H14   3907 0.06123400   1.008000   ; qtot 0.623084
 3908         c3    135    bbb     C8   3908 -0.72423400  12.010000   ; qtot -0.101150
 3909         h1    135    bbb    H15   3909 0.25637600   1.008000   ; qtot 0.155226
 3910         h1    135    bbb    H16   3910 0.25637600   1.008000   ; qtot 0.411602
 3911         c3    135    bbb     C9   3911 -0.72423400  12.010000   ; qtot -0.312632
 3912         h1    135    bbb    H17   3912 0.25637600   1.008000   ; qtot -0.056256
 3913         h1    135    bbb    H18   3913 0.25637600   1.008000   ; qtot 0.200120
 3914         os    135    bbb     O1   3914 -0.20025300  16.000000   ; qtot -0.000133
; residue  136 bbb rtp bbb q -0.0
 3915         n3    136    bbb     N1   3915 -0.59685800  14.010000   ; qtot -0.596991
 3916         c3    136    bbb     C1   3916 0.10137000  12.010000   ; qtot -0.495621
 3917         h1    136    bbb     H1   3917 0.04411300   1.008000   ; qtot -0.451508
 3918         h1    136    bbb     H2   3918 0.04411300   1.008000   ; qtot -0.407395
 3919         c3    136    bbb     C2   3919 0.10137000  12.010000   ; qtot -0.306025
 3920         h1    136    bbb     H3   3920 0.04411300   1.008000   ; qtot -0.261912
 3921         h1    136    bbb     H4   3921 0.04411300   1.008000   ; qtot -0.217799
 3922         c3    136    bbb     C3   3922 -0.00195300  12.010000   ; qtot -0.219752
 3923         h1    136    bbb     H5   3923 0.05064400   1.008000   ; qtot -0.169108
 3924         h1    136    bbb     H6   3924 0.05064400   1.008000   ; qtot -0.118464
 3925         c3    136    bbb     C4   3925 -0.01612100  12.010000   ; qtot -0.134585
 3926         hc    136    bbb     H7   3926 0.04936100   1.008000   ; qtot -0.085224
 3927         hc    136    bbb     H8   3927 0.04936100   1.008000   ; qtot -0.035863
 3928         c3    136    bbb     C5   3928 0.11363000  12.010000   ; qtot 0.077767
 3929         hc    136    bbb     H9   3929 0.06265900   1.008000   ; qtot 0.140426
 3930         hc    136    bbb    H10   3930 0.06265900   1.008000   ; qtot 0.203085
 3931         c3    136    bbb     C6   3931 0.11363000  12.010000   ; qtot 0.316715
 3932         hc    136    bbb    H11   3932 0.06265900   1.008000   ; qtot 0.379374
 3933         hc    136    bbb    H12   3933 0.06265900   1.008000   ; qtot 0.442033
 3934         c3    136    bbb     C7   3934 0.05858200  12.010000   ; qtot 0.500615
 3935         h1    136    bbb    H13   3935 0.06123400   1.008000   ; qtot 0.561849
 3936         h1    136    bbb    H14   3936 0.06123400   1.008000   ; qtot 0.623083
 3937         c3    136    bbb     C8   3937 -0.72423400  12.010000   ; qtot -0.101151
 3938         h1    136    bbb    H15   3938 0.25637600   1.008000   ; qtot 0.155225
 3939         h1    136    bbb    H16   3939 0.25637600   1.008000   ; qtot 0.411601
 3940         c3    136    bbb     C9   3940 -0.72423400  12.010000   ; qtot -0.312633
 3941         h1    136    bbb    H17   3941 0.25637600   1.008000   ; qtot -0.056257
 3942         h1    136    bbb    H18   3942 0.25637600   1.008000   ; qtot 0.200119
 3943         os    136    bbb     O1   3943 -0.20025300  16.000000   ; qtot -0.000134
; residue  137 bbb rtp bbb q -0.0
 3944         n3    137    bbb     N1   3944 -0.59685800  14.010000   ; qtot -0.596992
 3945         c3    137    bbb     C1   3945 0.10137000  12.010000   ; qtot -0.495622
 3946         h1    137    bbb     H1   3946 0.04411300   1.008000   ; qtot -0.451509
 3947         h1    137    bbb     H2   3947 0.04411300   1.008000   ; qtot -0.407396
 3948         c3    137    bbb     C2   3948 0.10137000  12.010000   ; qtot -0.306026
 3949         h1    137    bbb     H3   3949 0.04411300   1.008000   ; qtot -0.261913
 3950         h1    137    bbb     H4   3950 0.04411300   1.008000   ; qtot -0.217800
 3951         c3    137    bbb     C3   3951 -0.00195300  12.010000   ; qtot -0.219753
 3952         h1    137    bbb     H5   3952 0.05064400   1.008000   ; qtot -0.169109
 3953         h1    137    bbb     H6   3953 0.05064400   1.008000   ; qtot -0.118465
 3954         c3    137    bbb     C4   3954 -0.01612100  12.010000   ; qtot -0.134586
 3955         hc    137    bbb     H7   3955 0.04936100   1.008000   ; qtot -0.085225
 3956         hc    137    bbb     H8   3956 0.04936100   1.008000   ; qtot -0.035864
 3957         c3    137    bbb     C5   3957 0.11363000  12.010000   ; qtot 0.077766
 3958         hc    137    bbb     H9   3958 0.06265900   1.008000   ; qtot 0.140425
 3959         hc    137    bbb    H10   3959 0.06265900   1.008000   ; qtot 0.203084
 3960         c3    137    bbb     C6   3960 0.11363000  12.010000   ; qtot 0.316714
 3961         hc    137    bbb    H11   3961 0.06265900   1.008000   ; qtot 0.379373
 3962         hc    137    bbb    H12   3962 0.06265900   1.008000   ; qtot 0.442032
 3963         c3    137    bbb     C7   3963 0.05858200  12.010000   ; qtot 0.500614
 3964         h1    137    bbb    H13   3964 0.06123400   1.008000   ; qtot 0.561848
 3965         h1    137    bbb    H14   3965 0.06123400   1.008000   ; qtot 0.623082
 3966         c3    137    bbb     C8   3966 -0.72423400  12.010000   ; qtot -0.101152
 3967         h1    137    bbb    H15   3967 0.25637600   1.008000   ; qtot 0.155224
 3968         h1    137    bbb    H16   3968 0.25637600   1.008000   ; qtot 0.411600
 3969         c3    137    bbb     C9   3969 -0.72423400  12.010000   ; qtot -0.312634
 3970         h1    137    bbb    H17   3970 0.25637600   1.008000   ; qtot -0.056258
 3971         h1    137    bbb    H18   3971 0.25637600   1.008000   ; qtot 0.200118
 3972         os    137    bbb     O1   3972 -0.20025300  16.000000   ; qtot -0.000135
; residue  138 bbb rtp bbb q -0.0
 3973         n3    138    bbb     N1   3973 -0.59685800  14.010000   ; qtot -0.596993
 3974         c3    138    bbb     C1   3974 0.10137000  12.010000   ; qtot -0.495623
 3975         h1    138    bbb     H1   3975 0.04411300   1.008000   ; qtot -0.451510
 3976         h1    138    bbb     H2   3976 0.04411300   1.008000   ; qtot -0.407397
 3977         c3    138    bbb     C2   3977 0.10137000  12.010000   ; qtot -0.306027
 3978         h1    138    bbb     H3   3978 0.04411300   1.008000   ; qtot -0.261914
 3979         h1    138    bbb     H4   3979 0.04411300   1.008000   ; qtot -0.217801
 3980         c3    138    bbb     C3   3980 -0.00195300  12.010000   ; qtot -0.219754
 3981         h1    138    bbb     H5   3981 0.05064400   1.008000   ; qtot -0.169110
 3982         h1    138    bbb     H6   3982 0.05064400   1.008000   ; qtot -0.118466
 3983         c3    138    bbb     C4   3983 -0.01612100  12.010000   ; qtot -0.134587
 3984         hc    138    bbb     H7   3984 0.04936100   1.008000   ; qtot -0.085226
 3985         hc    138    bbb     H8   3985 0.04936100   1.008000   ; qtot -0.035865
 3986         c3    138    bbb     C5   3986 0.11363000  12.010000   ; qtot 0.077765
 3987         hc    138    bbb     H9   3987 0.06265900   1.008000   ; qtot 0.140424
 3988         hc    138    bbb    H10   3988 0.06265900   1.008000   ; qtot 0.203083
 3989         c3    138    bbb     C6   3989 0.11363000  12.010000   ; qtot 0.316713
 3990         hc    138    bbb    H11   3990 0.06265900   1.008000   ; qtot 0.379372
 3991         hc    138    bbb    H12   3991 0.06265900   1.008000   ; qtot 0.442031
 3992         c3    138    bbb     C7   3992 0.05858200  12.010000   ; qtot 0.500613
 3993         h1    138    bbb    H13   3993 0.06123400   1.008000   ; qtot 0.561847
 3994         h1    138    bbb    H14   3994 0.06123400   1.008000   ; qtot 0.623081
 3995         c3    138    bbb     C8   3995 -0.72423400  12.010000   ; qtot -0.101153
 3996         h1    138    bbb    H15   3996 0.25637600   1.008000   ; qtot 0.155223
 3997         h1    138    bbb    H16   3997 0.25637600   1.008000   ; qtot 0.411599
 3998         c3    138    bbb     C9   3998 -0.72423400  12.010000   ; qtot -0.312635
 3999         h1    138    bbb    H17   3999 0.25637600   1.008000   ; qtot -0.056259
 4000         h1    138    bbb    H18   4000 0.25637600   1.008000   ; qtot 0.200117
 4001         os    138    bbb     O1   4001 -0.20025300  16.000000   ; qtot -0.000136
; residue  139 bbb rtp bbb q -0.0
 4002         n3    139    bbb     N1   4002 -0.59685800  14.010000   ; qtot -0.596994
 4003         c3    139    bbb     C1   4003 0.10137000  12.010000   ; qtot -0.495624
 4004         h1    139    bbb     H1   4004 0.04411300   1.008000   ; qtot -0.451511
 4005         h1    139    bbb     H2   4005 0.04411300   1.008000   ; qtot -0.407398
 4006         c3    139    bbb     C2   4006 0.10137000  12.010000   ; qtot -0.306028
 4007         h1    139    bbb     H3   4007 0.04411300   1.008000   ; qtot -0.261915
 4008         h1    139    bbb     H4   4008 0.04411300   1.008000   ; qtot -0.217802
 4009         c3    139    bbb     C3   4009 -0.00195300  12.010000   ; qtot -0.219755
 4010         h1    139    bbb     H5   4010 0.05064400   1.008000   ; qtot -0.169111
 4011         h1    139    bbb     H6   4011 0.05064400   1.008000   ; qtot -0.118467
 4012         c3    139    bbb     C4   4012 -0.01612100  12.010000   ; qtot -0.134588
 4013         hc    139    bbb     H7   4013 0.04936100   1.008000   ; qtot -0.085227
 4014         hc    139    bbb     H8   4014 0.04936100   1.008000   ; qtot -0.035866
 4015         c3    139    bbb     C5   4015 0.11363000  12.010000   ; qtot 0.077764
 4016         hc    139    bbb     H9   4016 0.06265900   1.008000   ; qtot 0.140423
 4017         hc    139    bbb    H10   4017 0.06265900   1.008000   ; qtot 0.203082
 4018         c3    139    bbb     C6   4018 0.11363000  12.010000   ; qtot 0.316712
 4019         hc    139    bbb    H11   4019 0.06265900   1.008000   ; qtot 0.379371
 4020         hc    139    bbb    H12   4020 0.06265900   1.008000   ; qtot 0.442030
 4021         c3    139    bbb     C7   4021 0.05858200  12.010000   ; qtot 0.500612
 4022         h1    139    bbb    H13   4022 0.06123400   1.008000   ; qtot 0.561846
 4023         h1    139    bbb    H14   4023 0.06123400   1.008000   ; qtot 0.623080
 4024         c3    139    bbb     C8   4024 -0.72423400  12.010000   ; qtot -0.101154
 4025         h1    139    bbb    H15   4025 0.25637600   1.008000   ; qtot 0.155222
 4026         h1    139    bbb    H16   4026 0.25637600   1.008000   ; qtot 0.411598
 4027         c3    139    bbb     C9   4027 -0.72423400  12.010000   ; qtot -0.312636
 4028         h1    139    bbb    H17   4028 0.25637600   1.008000   ; qtot -0.056260
 4029         h1    139    bbb    H18   4029 0.25637600   1.008000   ; qtot 0.200116
 4030         os    139    bbb     O1   4030 -0.20025300  16.000000   ; qtot -0.000137
; residue  140 bbb rtp bbb q -0.0
 4031         n3    140    bbb     N1   4031 -0.59685800  14.010000   ; qtot -0.596995
 4032         c3    140    bbb     C1   4032 0.10137000  12.010000   ; qtot -0.495625
 4033         h1    140    bbb     H1   4033 0.04411300   1.008000   ; qtot -0.451512
 4034         h1    140    bbb     H2   4034 0.04411300   1.008000   ; qtot -0.407399
 4035         c3    140    bbb     C2   4035 0.10137000  12.010000   ; qtot -0.306029
 4036         h1    140    bbb     H3   4036 0.04411300   1.008000   ; qtot -0.261916
 4037         h1    140    bbb     H4   4037 0.04411300   1.008000   ; qtot -0.217803
 4038         c3    140    bbb     C3   4038 -0.00195300  12.010000   ; qtot -0.219756
 4039         h1    140    bbb     H5   4039 0.05064400   1.008000   ; qtot -0.169112
 4040         h1    140    bbb     H6   4040 0.05064400   1.008000   ; qtot -0.118468
 4041         c3    140    bbb     C4   4041 -0.01612100  12.010000   ; qtot -0.134589
 4042         hc    140    bbb     H7   4042 0.04936100   1.008000   ; qtot -0.085228
 4043         hc    140    bbb     H8   4043 0.04936100   1.008000   ; qtot -0.035867
 4044         c3    140    bbb     C5   4044 0.11363000  12.010000   ; qtot 0.077763
 4045         hc    140    bbb     H9   4045 0.06265900   1.008000   ; qtot 0.140422
 4046         hc    140    bbb    H10   4046 0.06265900   1.008000   ; qtot 0.203081
 4047         c3    140    bbb     C6   4047 0.11363000  12.010000   ; qtot 0.316711
 4048         hc    140    bbb    H11   4048 0.06265900   1.008000   ; qtot 0.379370
 4049         hc    140    bbb    H12   4049 0.06265900   1.008000   ; qtot 0.442029
 4050         c3    140    bbb     C7   4050 0.05858200  12.010000   ; qtot 0.500611
 4051         h1    140    bbb    H13   4051 0.06123400   1.008000   ; qtot 0.561845
 4052         h1    140    bbb    H14   4052 0.06123400   1.008000   ; qtot 0.623079
 4053         c3    140    bbb     C8   4053 -0.72423400  12.010000   ; qtot -0.101155
 4054         h1    140    bbb    H15   4054 0.25637600   1.008000   ; qtot 0.155221
 4055         h1    140    bbb    H16   4055 0.25637600   1.008000   ; qtot 0.411597
 4056         c3    140    bbb     C9   4056 -0.72423400  12.010000   ; qtot -0.312637
 4057         h1    140    bbb    H17   4057 0.25637600   1.008000   ; qtot -0.056261
 4058         h1    140    bbb    H18   4058 0.25637600   1.008000   ; qtot 0.200115
 4059         os    140    bbb     O1   4059 -0.20025300  16.000000   ; qtot -0.000138
; residue  141 bbb rtp bbb q -0.0
 4060         n3    141    bbb     N1   4060 -0.59685800  14.010000   ; qtot -0.596996
 4061         c3    141    bbb     C1   4061 0.10137000  12.010000   ; qtot -0.495626
 4062         h1    141    bbb     H1   4062 0.04411300   1.008000   ; qtot -0.451513
 4063         h1    141    bbb     H2   4063 0.04411300   1.008000   ; qtot -0.407400
 4064         c3    141    bbb     C2   4064 0.10137000  12.010000   ; qtot -0.306030
 4065         h1    141    bbb     H3   4065 0.04411300   1.008000   ; qtot -0.261917
 4066         h1    141    bbb     H4   4066 0.04411300   1.008000   ; qtot -0.217804
 4067         c3    141    bbb     C3   4067 -0.00195300  12.010000   ; qtot -0.219757
 4068         h1    141    bbb     H5   4068 0.05064400   1.008000   ; qtot -0.169113
 4069         h1    141    bbb     H6   4069 0.05064400   1.008000   ; qtot -0.118469
 4070         c3    141    bbb     C4   4070 -0.01612100  12.010000   ; qtot -0.134590
 4071         hc    141    bbb     H7   4071 0.04936100   1.008000   ; qtot -0.085229
 4072         hc    141    bbb     H8   4072 0.04936100   1.008000   ; qtot -0.035868
 4073         c3    141    bbb     C5   4073 0.11363000  12.010000   ; qtot 0.077762
 4074         hc    141    bbb     H9   4074 0.06265900   1.008000   ; qtot 0.140421
 4075         hc    141    bbb    H10   4075 0.06265900   1.008000   ; qtot 0.203080
 4076         c3    141    bbb     C6   4076 0.11363000  12.010000   ; qtot 0.316710
 4077         hc    141    bbb    H11   4077 0.06265900   1.008000   ; qtot 0.379369
 4078         hc    141    bbb    H12   4078 0.06265900   1.008000   ; qtot 0.442028
 4079         c3    141    bbb     C7   4079 0.05858200  12.010000   ; qtot 0.500610
 4080         h1    141    bbb    H13   4080 0.06123400   1.008000   ; qtot 0.561844
 4081         h1    141    bbb    H14   4081 0.06123400   1.008000   ; qtot 0.623078
 4082         c3    141    bbb     C8   4082 -0.72423400  12.010000   ; qtot -0.101156
 4083         h1    141    bbb    H15   4083 0.25637600   1.008000   ; qtot 0.155220
 4084         h1    141    bbb    H16   4084 0.25637600   1.008000   ; qtot 0.411596
 4085         c3    141    bbb     C9   4085 -0.72423400  12.010000   ; qtot -0.312638
 4086         h1    141    bbb    H17   4086 0.25637600   1.008000   ; qtot -0.056262
 4087         h1    141    bbb    H18   4087 0.25637600   1.008000   ; qtot 0.200114
 4088         os    141    bbb     O1   4088 -0.20025300  16.000000   ; qtot -0.000139
; residue  142 bbb rtp bbb q -0.0
 4089         n3    142    bbb     N1   4089 -0.59685800  14.010000   ; qtot -0.596997
 4090         c3    142    bbb     C1   4090 0.10137000  12.010000   ; qtot -0.495627
 4091         h1    142    bbb     H1   4091 0.04411300   1.008000   ; qtot -0.451514
 4092         h1    142    bbb     H2   4092 0.04411300   1.008000   ; qtot -0.407401
 4093         c3    142    bbb     C2   4093 0.10137000  12.010000   ; qtot -0.306031
 4094         h1    142    bbb     H3   4094 0.04411300   1.008000   ; qtot -0.261918
 4095         h1    142    bbb     H4   4095 0.04411300   1.008000   ; qtot -0.217805
 4096         c3    142    bbb     C3   4096 -0.00195300  12.010000   ; qtot -0.219758
 4097         h1    142    bbb     H5   4097 0.05064400   1.008000   ; qtot -0.169114
 4098         h1    142    bbb     H6   4098 0.05064400   1.008000   ; qtot -0.118470
 4099         c3    142    bbb     C4   4099 -0.01612100  12.010000   ; qtot -0.134591
 4100         hc    142    bbb     H7   4100 0.04936100   1.008000   ; qtot -0.085230
 4101         hc    142    bbb     H8   4101 0.04936100   1.008000   ; qtot -0.035869
 4102         c3    142    bbb     C5   4102 0.11363000  12.010000   ; qtot 0.077761
 4103         hc    142    bbb     H9   4103 0.06265900   1.008000   ; qtot 0.140420
 4104         hc    142    bbb    H10   4104 0.06265900   1.008000   ; qtot 0.203079
 4105         c3    142    bbb     C6   4105 0.11363000  12.010000   ; qtot 0.316709
 4106         hc    142    bbb    H11   4106 0.06265900   1.008000   ; qtot 0.379368
 4107         hc    142    bbb    H12   4107 0.06265900   1.008000   ; qtot 0.442027
 4108         c3    142    bbb     C7   4108 0.05858200  12.010000   ; qtot 0.500609
 4109         h1    142    bbb    H13   4109 0.06123400   1.008000   ; qtot 0.561843
 4110         h1    142    bbb    H14   4110 0.06123400   1.008000   ; qtot 0.623077
 4111         c3    142    bbb     C8   4111 -0.72423400  12.010000   ; qtot -0.101157
 4112         h1    142    bbb    H15   4112 0.25637600   1.008000   ; qtot 0.155219
 4113         h1    142    bbb    H16   4113 0.25637600   1.008000   ; qtot 0.411595
 4114         c3    142    bbb     C9   4114 -0.72423400  12.010000   ; qtot -0.312639
 4115         h1    142    bbb    H17   4115 0.25637600   1.008000   ; qtot -0.056263
 4116         h1    142    bbb    H18   4116 0.25637600   1.008000   ; qtot 0.200113
 4117         os    142    bbb     O1   4117 -0.20025300  16.000000   ; qtot -0.000140
; residue  143 bbb rtp bbb q -0.0
 4118         n3    143    bbb     N1   4118 -0.59685800  14.010000   ; qtot -0.596998
 4119         c3    143    bbb     C1   4119 0.10137000  12.010000   ; qtot -0.495628
 4120         h1    143    bbb     H1   4120 0.04411300   1.008000   ; qtot -0.451515
 4121         h1    143    bbb     H2   4121 0.04411300   1.008000   ; qtot -0.407402
 4122         c3    143    bbb     C2   4122 0.10137000  12.010000   ; qtot -0.306032
 4123         h1    143    bbb     H3   4123 0.04411300   1.008000   ; qtot -0.261919
 4124         h1    143    bbb     H4   4124 0.04411300   1.008000   ; qtot -0.217806
 4125         c3    143    bbb     C3   4125 -0.00195300  12.010000   ; qtot -0.219759
 4126         h1    143    bbb     H5   4126 0.05064400   1.008000   ; qtot -0.169115
 4127         h1    143    bbb     H6   4127 0.05064400   1.008000   ; qtot -0.118471
 4128         c3    143    bbb     C4   4128 -0.01612100  12.010000   ; qtot -0.134592
 4129         hc    143    bbb     H7   4129 0.04936100   1.008000   ; qtot -0.085231
 4130         hc    143    bbb     H8   4130 0.04936100   1.008000   ; qtot -0.035870
 4131         c3    143    bbb     C5   4131 0.11363000  12.010000   ; qtot 0.077760
 4132         hc    143    bbb     H9   4132 0.06265900   1.008000   ; qtot 0.140419
 4133         hc    143    bbb    H10   4133 0.06265900   1.008000   ; qtot 0.203078
 4134         c3    143    bbb     C6   4134 0.11363000  12.010000   ; qtot 0.316708
 4135         hc    143    bbb    H11   4135 0.06265900   1.008000   ; qtot 0.379367
 4136         hc    143    bbb    H12   4136 0.06265900   1.008000   ; qtot 0.442026
 4137         c3    143    bbb     C7   4137 0.05858200  12.010000   ; qtot 0.500608
 4138         h1    143    bbb    H13   4138 0.06123400   1.008000   ; qtot 0.561842
 4139         h1    143    bbb    H14   4139 0.06123400   1.008000   ; qtot 0.623076
 4140         c3    143    bbb     C8   4140 -0.72423400  12.010000   ; qtot -0.101158
 4141         h1    143    bbb    H15   4141 0.25637600   1.008000   ; qtot 0.155218
 4142         h1    143    bbb    H16   4142 0.25637600   1.008000   ; qtot 0.411594
 4143         c3    143    bbb     C9   4143 -0.72423400  12.010000   ; qtot -0.312640
 4144         h1    143    bbb    H17   4144 0.25637600   1.008000   ; qtot -0.056264
 4145         h1    143    bbb    H18   4145 0.25637600   1.008000   ; qtot 0.200112
 4146         os    143    bbb     O1   4146 -0.20025300  16.000000   ; qtot -0.000141
; residue  144 bbb rtp bbb q -0.0
 4147         n3    144    bbb     N1   4147 -0.59685800  14.010000   ; qtot -0.596999
 4148         c3    144    bbb     C1   4148 0.10137000  12.010000   ; qtot -0.495629
 4149         h1    144    bbb     H1   4149 0.04411300   1.008000   ; qtot -0.451516
 4150         h1    144    bbb     H2   4150 0.04411300   1.008000   ; qtot -0.407403
 4151         c3    144    bbb     C2   4151 0.10137000  12.010000   ; qtot -0.306033
 4152         h1    144    bbb     H3   4152 0.04411300   1.008000   ; qtot -0.261920
 4153         h1    144    bbb     H4   4153 0.04411300   1.008000   ; qtot -0.217807
 4154         c3    144    bbb     C3   4154 -0.00195300  12.010000   ; qtot -0.219760
 4155         h1    144    bbb     H5   4155 0.05064400   1.008000   ; qtot -0.169116
 4156         h1    144    bbb     H6   4156 0.05064400   1.008000   ; qtot -0.118472
 4157         c3    144    bbb     C4   4157 -0.01612100  12.010000   ; qtot -0.134593
 4158         hc    144    bbb     H7   4158 0.04936100   1.008000   ; qtot -0.085232
 4159         hc    144    bbb     H8   4159 0.04936100   1.008000   ; qtot -0.035871
 4160         c3    144    bbb     C5   4160 0.11363000  12.010000   ; qtot 0.077759
 4161         hc    144    bbb     H9   4161 0.06265900   1.008000   ; qtot 0.140418
 4162         hc    144    bbb    H10   4162 0.06265900   1.008000   ; qtot 0.203077
 4163         c3    144    bbb     C6   4163 0.11363000  12.010000   ; qtot 0.316707
 4164         hc    144    bbb    H11   4164 0.06265900   1.008000   ; qtot 0.379366
 4165         hc    144    bbb    H12   4165 0.06265900   1.008000   ; qtot 0.442025
 4166         c3    144    bbb     C7   4166 0.05858200  12.010000   ; qtot 0.500607
 4167         h1    144    bbb    H13   4167 0.06123400   1.008000   ; qtot 0.561841
 4168         h1    144    bbb    H14   4168 0.06123400   1.008000   ; qtot 0.623075
 4169         c3    144    bbb     C8   4169 -0.72423400  12.010000   ; qtot -0.101159
 4170         h1    144    bbb    H15   4170 0.25637600   1.008000   ; qtot 0.155217
 4171         h1    144    bbb    H16   4171 0.25637600   1.008000   ; qtot 0.411593
 4172         c3    144    bbb     C9   4172 -0.72423400  12.010000   ; qtot -0.312641
 4173         h1    144    bbb    H17   4173 0.25637600   1.008000   ; qtot -0.056265
 4174         h1    144    bbb    H18   4174 0.25637600   1.008000   ; qtot 0.200111
 4175         os    144    bbb     O1   4175 -0.20025300  16.000000   ; qtot -0.000142
; residue  145 bbb rtp bbb q -0.0
 4176         n3    145    bbb     N1   4176 -0.59685800  14.010000   ; qtot -0.597000
 4177         c3    145    bbb     C1   4177 0.10137000  12.010000   ; qtot -0.495630
 4178         h1    145    bbb     H1   4178 0.04411300   1.008000   ; qtot -0.451517
 4179         h1    145    bbb     H2   4179 0.04411300   1.008000   ; qtot -0.407404
 4180         c3    145    bbb     C2   4180 0.10137000  12.010000   ; qtot -0.306034
 4181         h1    145    bbb     H3   4181 0.04411300   1.008000   ; qtot -0.261921
 4182         h1    145    bbb     H4   4182 0.04411300   1.008000   ; qtot -0.217808
 4183         c3    145    bbb     C3   4183 -0.00195300  12.010000   ; qtot -0.219761
 4184         h1    145    bbb     H5   4184 0.05064400   1.008000   ; qtot -0.169117
 4185         h1    145    bbb     H6   4185 0.05064400   1.008000   ; qtot -0.118473
 4186         c3    145    bbb     C4   4186 -0.01612100  12.010000   ; qtot -0.134594
 4187         hc    145    bbb     H7   4187 0.04936100   1.008000   ; qtot -0.085233
 4188         hc    145    bbb     H8   4188 0.04936100   1.008000   ; qtot -0.035872
 4189         c3    145    bbb     C5   4189 0.11363000  12.010000   ; qtot 0.077758
 4190         hc    145    bbb     H9   4190 0.06265900   1.008000   ; qtot 0.140417
 4191         hc    145    bbb    H10   4191 0.06265900   1.008000   ; qtot 0.203076
 4192         c3    145    bbb     C6   4192 0.11363000  12.010000   ; qtot 0.316706
 4193         hc    145    bbb    H11   4193 0.06265900   1.008000   ; qtot 0.379365
 4194         hc    145    bbb    H12   4194 0.06265900   1.008000   ; qtot 0.442024
 4195         c3    145    bbb     C7   4195 0.05858200  12.010000   ; qtot 0.500606
 4196         h1    145    bbb    H13   4196 0.06123400   1.008000   ; qtot 0.561840
 4197         h1    145    bbb    H14   4197 0.06123400   1.008000   ; qtot 0.623074
 4198         c3    145    bbb     C8   4198 -0.72423400  12.010000   ; qtot -0.101160
 4199         h1    145    bbb    H15   4199 0.25637600   1.008000   ; qtot 0.155216
 4200         h1    145    bbb    H16   4200 0.25637600   1.008000   ; qtot 0.411592
 4201         c3    145    bbb     C9   4201 -0.72423400  12.010000   ; qtot -0.312642
 4202         h1    145    bbb    H17   4202 0.25637600   1.008000   ; qtot -0.056266
 4203         h1    145    bbb    H18   4203 0.25637600   1.008000   ; qtot 0.200110
 4204         os    145    bbb     O1   4204 -0.20025300  16.000000   ; qtot -0.000143
; residue  146 bbb rtp bbb q -0.0
 4205         n3    146    bbb     N1   4205 -0.59685800  14.010000   ; qtot -0.597001
 4206         c3    146    bbb     C1   4206 0.10137000  12.010000   ; qtot -0.495631
 4207         h1    146    bbb     H1   4207 0.04411300   1.008000   ; qtot -0.451518
 4208         h1    146    bbb     H2   4208 0.04411300   1.008000   ; qtot -0.407405
 4209         c3    146    bbb     C2   4209 0.10137000  12.010000   ; qtot -0.306035
 4210         h1    146    bbb     H3   4210 0.04411300   1.008000   ; qtot -0.261922
 4211         h1    146    bbb     H4   4211 0.04411300   1.008000   ; qtot -0.217809
 4212         c3    146    bbb     C3   4212 -0.00195300  12.010000   ; qtot -0.219762
 4213         h1    146    bbb     H5   4213 0.05064400   1.008000   ; qtot -0.169118
 4214         h1    146    bbb     H6   4214 0.05064400   1.008000   ; qtot -0.118474
 4215         c3    146    bbb     C4   4215 -0.01612100  12.010000   ; qtot -0.134595
 4216         hc    146    bbb     H7   4216 0.04936100   1.008000   ; qtot -0.085234
 4217         hc    146    bbb     H8   4217 0.04936100   1.008000   ; qtot -0.035873
 4218         c3    146    bbb     C5   4218 0.11363000  12.010000   ; qtot 0.077757
 4219         hc    146    bbb     H9   4219 0.06265900   1.008000   ; qtot 0.140416
 4220         hc    146    bbb    H10   4220 0.06265900   1.008000   ; qtot 0.203075
 4221         c3    146    bbb     C6   4221 0.11363000  12.010000   ; qtot 0.316705
 4222         hc    146    bbb    H11   4222 0.06265900   1.008000   ; qtot 0.379364
 4223         hc    146    bbb    H12   4223 0.06265900   1.008000   ; qtot 0.442023
 4224         c3    146    bbb     C7   4224 0.05858200  12.010000   ; qtot 0.500605
 4225         h1    146    bbb    H13   4225 0.06123400   1.008000   ; qtot 0.561839
 4226         h1    146    bbb    H14   4226 0.06123400   1.008000   ; qtot 0.623073
 4227         c3    146    bbb     C8   4227 -0.72423400  12.010000   ; qtot -0.101161
 4228         h1    146    bbb    H15   4228 0.25637600   1.008000   ; qtot 0.155215
 4229         h1    146    bbb    H16   4229 0.25637600   1.008000   ; qtot 0.411591
 4230         c3    146    bbb     C9   4230 -0.72423400  12.010000   ; qtot -0.312643
 4231         h1    146    bbb    H17   4231 0.25637600   1.008000   ; qtot -0.056267
 4232         h1    146    bbb    H18   4232 0.25637600   1.008000   ; qtot 0.200109
 4233         os    146    bbb     O1   4233 -0.20025300  16.000000   ; qtot -0.000144
; residue  147 bbb rtp bbb q -0.0
 4234         n3    147    bbb     N1   4234 -0.59685800  14.010000   ; qtot -0.597002
 4235         c3    147    bbb     C1   4235 0.10137000  12.010000   ; qtot -0.495632
 4236         h1    147    bbb     H1   4236 0.04411300   1.008000   ; qtot -0.451519
 4237         h1    147    bbb     H2   4237 0.04411300   1.008000   ; qtot -0.407406
 4238         c3    147    bbb     C2   4238 0.10137000  12.010000   ; qtot -0.306036
 4239         h1    147    bbb     H3   4239 0.04411300   1.008000   ; qtot -0.261923
 4240         h1    147    bbb     H4   4240 0.04411300   1.008000   ; qtot -0.217810
 4241         c3    147    bbb     C3   4241 -0.00195300  12.010000   ; qtot -0.219763
 4242         h1    147    bbb     H5   4242 0.05064400   1.008000   ; qtot -0.169119
 4243         h1    147    bbb     H6   4243 0.05064400   1.008000   ; qtot -0.118475
 4244         c3    147    bbb     C4   4244 -0.01612100  12.010000   ; qtot -0.134596
 4245         hc    147    bbb     H7   4245 0.04936100   1.008000   ; qtot -0.085235
 4246         hc    147    bbb     H8   4246 0.04936100   1.008000   ; qtot -0.035874
 4247         c3    147    bbb     C5   4247 0.11363000  12.010000   ; qtot 0.077756
 4248         hc    147    bbb     H9   4248 0.06265900   1.008000   ; qtot 0.140415
 4249         hc    147    bbb    H10   4249 0.06265900   1.008000   ; qtot 0.203074
 4250         c3    147    bbb     C6   4250 0.11363000  12.010000   ; qtot 0.316704
 4251         hc    147    bbb    H11   4251 0.06265900   1.008000   ; qtot 0.379363
 4252         hc    147    bbb    H12   4252 0.06265900   1.008000   ; qtot 0.442022
 4253         c3    147    bbb     C7   4253 0.05858200  12.010000   ; qtot 0.500604
 4254         h1    147    bbb    H13   4254 0.06123400   1.008000   ; qtot 0.561838
 4255         h1    147    bbb    H14   4255 0.06123400   1.008000   ; qtot 0.623072
 4256         c3    147    bbb     C8   4256 -0.72423400  12.010000   ; qtot -0.101162
 4257         h1    147    bbb    H15   4257 0.25637600   1.008000   ; qtot 0.155214
 4258         h1    147    bbb    H16   4258 0.25637600   1.008000   ; qtot 0.411590
 4259         c3    147    bbb     C9   4259 -0.72423400  12.010000   ; qtot -0.312644
 4260         h1    147    bbb    H17   4260 0.25637600   1.008000   ; qtot -0.056268
 4261         h1    147    bbb    H18   4261 0.25637600   1.008000   ; qtot 0.200108
 4262         os    147    bbb     O1   4262 -0.20025300  16.000000   ; qtot -0.000145
; residue  148 bbb rtp bbb q -0.0
 4263         n3    148    bbb     N1   4263 -0.59685800  14.010000   ; qtot -0.597003
 4264         c3    148    bbb     C1   4264 0.10137000  12.010000   ; qtot -0.495633
 4265         h1    148    bbb     H1   4265 0.04411300   1.008000   ; qtot -0.451520
 4266         h1    148    bbb     H2   4266 0.04411300   1.008000   ; qtot -0.407407
 4267         c3    148    bbb     C2   4267 0.10137000  12.010000   ; qtot -0.306037
 4268         h1    148    bbb     H3   4268 0.04411300   1.008000   ; qtot -0.261924
 4269         h1    148    bbb     H4   4269 0.04411300   1.008000   ; qtot -0.217811
 4270         c3    148    bbb     C3   4270 -0.00195300  12.010000   ; qtot -0.219764
 4271         h1    148    bbb     H5   4271 0.05064400   1.008000   ; qtot -0.169120
 4272         h1    148    bbb     H6   4272 0.05064400   1.008000   ; qtot -0.118476
 4273         c3    148    bbb     C4   4273 -0.01612100  12.010000   ; qtot -0.134597
 4274         hc    148    bbb     H7   4274 0.04936100   1.008000   ; qtot -0.085236
 4275         hc    148    bbb     H8   4275 0.04936100   1.008000   ; qtot -0.035875
 4276         c3    148    bbb     C5   4276 0.11363000  12.010000   ; qtot 0.077755
 4277         hc    148    bbb     H9   4277 0.06265900   1.008000   ; qtot 0.140414
 4278         hc    148    bbb    H10   4278 0.06265900   1.008000   ; qtot 0.203073
 4279         c3    148    bbb     C6   4279 0.11363000  12.010000   ; qtot 0.316703
 4280         hc    148    bbb    H11   4280 0.06265900   1.008000   ; qtot 0.379362
 4281         hc    148    bbb    H12   4281 0.06265900   1.008000   ; qtot 0.442021
 4282         c3    148    bbb     C7   4282 0.05858200  12.010000   ; qtot 0.500603
 4283         h1    148    bbb    H13   4283 0.06123400   1.008000   ; qtot 0.561837
 4284         h1    148    bbb    H14   4284 0.06123400   1.008000   ; qtot 0.623071
 4285         c3    148    bbb     C8   4285 -0.72423400  12.010000   ; qtot -0.101163
 4286         h1    148    bbb    H15   4286 0.25637600   1.008000   ; qtot 0.155213
 4287         h1    148    bbb    H16   4287 0.25637600   1.008000   ; qtot 0.411589
 4288         c3    148    bbb     C9   4288 -0.72423400  12.010000   ; qtot -0.312645
 4289         h1    148    bbb    H17   4289 0.25637600   1.008000   ; qtot -0.056269
 4290         h1    148    bbb    H18   4290 0.25637600   1.008000   ; qtot 0.200107
 4291         os    148    bbb     O1   4291 -0.20025300  16.000000   ; qtot -0.000146
; residue  149 bbb rtp bbb q -0.0
 4292         n3    149    bbb     N1   4292 -0.59685800  14.010000   ; qtot -0.597004
 4293         c3    149    bbb     C1   4293 0.10137000  12.010000   ; qtot -0.495634
 4294         h1    149    bbb     H1   4294 0.04411300   1.008000   ; qtot -0.451521
 4295         h1    149    bbb     H2   4295 0.04411300   1.008000   ; qtot -0.407408
 4296         c3    149    bbb     C2   4296 0.10137000  12.010000   ; qtot -0.306038
 4297         h1    149    bbb     H3   4297 0.04411300   1.008000   ; qtot -0.261925
 4298         h1    149    bbb     H4   4298 0.04411300   1.008000   ; qtot -0.217812
 4299         c3    149    bbb     C3   4299 -0.00195300  12.010000   ; qtot -0.219765
 4300         h1    149    bbb     H5   4300 0.05064400   1.008000   ; qtot -0.169121
 4301         h1    149    bbb     H6   4301 0.05064400   1.008000   ; qtot -0.118477
 4302         c3    149    bbb     C4   4302 -0.01612100  12.010000   ; qtot -0.134598
 4303         hc    149    bbb     H7   4303 0.04936100   1.008000   ; qtot -0.085237
 4304         hc    149    bbb     H8   4304 0.04936100   1.008000   ; qtot -0.035876
 4305         c3    149    bbb     C5   4305 0.11363000  12.010000   ; qtot 0.077754
 4306         hc    149    bbb     H9   4306 0.06265900   1.008000   ; qtot 0.140413
 4307         hc    149    bbb    H10   4307 0.06265900   1.008000   ; qtot 0.203072
 4308         c3    149    bbb     C6   4308 0.11363000  12.010000   ; qtot 0.316702
 4309         hc    149    bbb    H11   4309 0.06265900   1.008000   ; qtot 0.379361
 4310         hc    149    bbb    H12   4310 0.06265900   1.008000   ; qtot 0.442020
 4311         c3    149    bbb     C7   4311 0.05858200  12.010000   ; qtot 0.500602
 4312         h1    149    bbb    H13   4312 0.06123400   1.008000   ; qtot 0.561836
 4313         h1    149    bbb    H14   4313 0.06123400   1.008000   ; qtot 0.623070
 4314         c3    149    bbb     C8   4314 -0.72423400  12.010000   ; qtot -0.101164
 4315         h1    149    bbb    H15   4315 0.25637600   1.008000   ; qtot 0.155212
 4316         h1    149    bbb    H16   4316 0.25637600   1.008000   ; qtot 0.411588
 4317         c3    149    bbb     C9   4317 -0.72423400  12.010000   ; qtot -0.312646
 4318         h1    149    bbb    H17   4318 0.25637600   1.008000   ; qtot -0.056270
 4319         h1    149    bbb    H18   4319 0.25637600   1.008000   ; qtot 0.200106
 4320         os    149    bbb     O1   4320 -0.20025300  16.000000   ; qtot -0.000147
; residue  150 bbb rtp bbb q -0.0
 4321         n3    150    bbb     N1   4321 -0.59685800  14.010000   ; qtot -0.597005
 4322         c3    150    bbb     C1   4322 0.10137000  12.010000   ; qtot -0.495635
 4323         h1    150    bbb     H1   4323 0.04411300   1.008000   ; qtot -0.451522
 4324         h1    150    bbb     H2   4324 0.04411300   1.008000   ; qtot -0.407409
 4325         c3    150    bbb     C2   4325 0.10137000  12.010000   ; qtot -0.306039
 4326         h1    150    bbb     H3   4326 0.04411300   1.008000   ; qtot -0.261926
 4327         h1    150    bbb     H4   4327 0.04411300   1.008000   ; qtot -0.217813
 4328         c3    150    bbb     C3   4328 -0.00195300  12.010000   ; qtot -0.219766
 4329         h1    150    bbb     H5   4329 0.05064400   1.008000   ; qtot -0.169122
 4330         h1    150    bbb     H6   4330 0.05064400   1.008000   ; qtot -0.118478
 4331         c3    150    bbb     C4   4331 -0.01612100  12.010000   ; qtot -0.134599
 4332         hc    150    bbb     H7   4332 0.04936100   1.008000   ; qtot -0.085238
 4333         hc    150    bbb     H8   4333 0.04936100   1.008000   ; qtot -0.035877
 4334         c3    150    bbb     C5   4334 0.11363000  12.010000   ; qtot 0.077753
 4335         hc    150    bbb     H9   4335 0.06265900   1.008000   ; qtot 0.140412
 4336         hc    150    bbb    H10   4336 0.06265900   1.008000   ; qtot 0.203071
 4337         c3    150    bbb     C6   4337 0.11363000  12.010000   ; qtot 0.316701
 4338         hc    150    bbb    H11   4338 0.06265900   1.008000   ; qtot 0.379360
 4339         hc    150    bbb    H12   4339 0.06265900   1.008000   ; qtot 0.442019
 4340         c3    150    bbb     C7   4340 0.05858200  12.010000   ; qtot 0.500601
 4341         h1    150    bbb    H13   4341 0.06123400   1.008000   ; qtot 0.561835
 4342         h1    150    bbb    H14   4342 0.06123400   1.008000   ; qtot 0.623069
 4343         c3    150    bbb     C8   4343 -0.72423400  12.010000   ; qtot -0.101165
 4344         h1    150    bbb    H15   4344 0.25637600   1.008000   ; qtot 0.155211
 4345         h1    150    bbb    H16   4345 0.25637600   1.008000   ; qtot 0.411587
 4346         c3    150    bbb     C9   4346 -0.72423400  12.010000   ; qtot -0.312647
 4347         h1    150    bbb    H17   4347 0.25637600   1.008000   ; qtot -0.056271
 4348         h1    150    bbb    H18   4348 0.25637600   1.008000   ; qtot 0.200105
 4349         os    150    bbb     O1   4349 -0.20025300  16.000000   ; qtot -0.000148
; residue  151 bbb rtp bbb q -0.0
 4350         n3    151    bbb     N1   4350 -0.59685800  14.010000   ; qtot -0.597006
 4351         c3    151    bbb     C1   4351 0.10137000  12.010000   ; qtot -0.495636
 4352         h1    151    bbb     H1   4352 0.04411300   1.008000   ; qtot -0.451523
 4353         h1    151    bbb     H2   4353 0.04411300   1.008000   ; qtot -0.407410
 4354         c3    151    bbb     C2   4354 0.10137000  12.010000   ; qtot -0.306040
 4355         h1    151    bbb     H3   4355 0.04411300   1.008000   ; qtot -0.261927
 4356         h1    151    bbb     H4   4356 0.04411300   1.008000   ; qtot -0.217814
 4357         c3    151    bbb     C3   4357 -0.00195300  12.010000   ; qtot -0.219767
 4358         h1    151    bbb     H5   4358 0.05064400   1.008000   ; qtot -0.169123
 4359         h1    151    bbb     H6   4359 0.05064400   1.008000   ; qtot -0.118479
 4360         c3    151    bbb     C4   4360 -0.01612100  12.010000   ; qtot -0.134600
 4361         hc    151    bbb     H7   4361 0.04936100   1.008000   ; qtot -0.085239
 4362         hc    151    bbb     H8   4362 0.04936100   1.008000   ; qtot -0.035878
 4363         c3    151    bbb     C5   4363 0.11363000  12.010000   ; qtot 0.077752
 4364         hc    151    bbb     H9   4364 0.06265900   1.008000   ; qtot 0.140411
 4365         hc    151    bbb    H10   4365 0.06265900   1.008000   ; qtot 0.203070
 4366         c3    151    bbb     C6   4366 0.11363000  12.010000   ; qtot 0.316700
 4367         hc    151    bbb    H11   4367 0.06265900   1.008000   ; qtot 0.379359
 4368         hc    151    bbb    H12   4368 0.06265900   1.008000   ; qtot 0.442018
 4369         c3    151    bbb     C7   4369 0.05858200  12.010000   ; qtot 0.500600
 4370         h1    151    bbb    H13   4370 0.06123400   1.008000   ; qtot 0.561834
 4371         h1    151    bbb    H14   4371 0.06123400   1.008000   ; qtot 0.623068
 4372         c3    151    bbb     C8   4372 -0.72423400  12.010000   ; qtot -0.101166
 4373         h1    151    bbb    H15   4373 0.25637600   1.008000   ; qtot 0.155210
 4374         h1    151    bbb    H16   4374 0.25637600   1.008000   ; qtot 0.411586
 4375         c3    151    bbb     C9   4375 -0.72423400  12.010000   ; qtot -0.312648
 4376         h1    151    bbb    H17   4376 0.25637600   1.008000   ; qtot -0.056272
 4377         h1    151    bbb    H18   4377 0.25637600   1.008000   ; qtot 0.200104
 4378         os    151    bbb     O1   4378 -0.20025300  16.000000   ; qtot -0.000149
; residue  152 bbb rtp bbb q -0.0
 4379         n3    152    bbb     N1   4379 -0.59685800  14.010000   ; qtot -0.597007
 4380         c3    152    bbb     C1   4380 0.10137000  12.010000   ; qtot -0.495637
 4381         h1    152    bbb     H1   4381 0.04411300   1.008000   ; qtot -0.451524
 4382         h1    152    bbb     H2   4382 0.04411300   1.008000   ; qtot -0.407411
 4383         c3    152    bbb     C2   4383 0.10137000  12.010000   ; qtot -0.306041
 4384         h1    152    bbb     H3   4384 0.04411300   1.008000   ; qtot -0.261928
 4385         h1    152    bbb     H4   4385 0.04411300   1.008000   ; qtot -0.217815
 4386         c3    152    bbb     C3   4386 -0.00195300  12.010000   ; qtot -0.219768
 4387         h1    152    bbb     H5   4387 0.05064400   1.008000   ; qtot -0.169124
 4388         h1    152    bbb     H6   4388 0.05064400   1.008000   ; qtot -0.118480
 4389         c3    152    bbb     C4   4389 -0.01612100  12.010000   ; qtot -0.134601
 4390         hc    152    bbb     H7   4390 0.04936100   1.008000   ; qtot -0.085240
 4391         hc    152    bbb     H8   4391 0.04936100   1.008000   ; qtot -0.035879
 4392         c3    152    bbb     C5   4392 0.11363000  12.010000   ; qtot 0.077751
 4393         hc    152    bbb     H9   4393 0.06265900   1.008000   ; qtot 0.140410
 4394         hc    152    bbb    H10   4394 0.06265900   1.008000   ; qtot 0.203069
 4395         c3    152    bbb     C6   4395 0.11363000  12.010000   ; qtot 0.316699
 4396         hc    152    bbb    H11   4396 0.06265900   1.008000   ; qtot 0.379358
 4397         hc    152    bbb    H12   4397 0.06265900   1.008000   ; qtot 0.442017
 4398         c3    152    bbb     C7   4398 0.05858200  12.010000   ; qtot 0.500599
 4399         h1    152    bbb    H13   4399 0.06123400   1.008000   ; qtot 0.561833
 4400         h1    152    bbb    H14   4400 0.06123400   1.008000   ; qtot 0.623067
 4401         c3    152    bbb     C8   4401 -0.72423400  12.010000   ; qtot -0.101167
 4402         h1    152    bbb    H15   4402 0.25637600   1.008000   ; qtot 0.155209
 4403         h1    152    bbb    H16   4403 0.25637600   1.008000   ; qtot 0.411585
 4404         c3    152    bbb     C9   4404 -0.72423400  12.010000   ; qtot -0.312649
 4405         h1    152    bbb    H17   4405 0.25637600   1.008000   ; qtot -0.056273
 4406         h1    152    bbb    H18   4406 0.25637600   1.008000   ; qtot 0.200103
 4407         os    152    bbb     O1   4407 -0.20025300  16.000000   ; qtot -0.000150
; residue  153 bbb rtp bbb q -0.0
 4408         n3    153    bbb     N1   4408 -0.59685800  14.010000   ; qtot -0.597008
 4409         c3    153    bbb     C1   4409 0.10137000  12.010000   ; qtot -0.495638
 4410         h1    153    bbb     H1   4410 0.04411300   1.008000   ; qtot -0.451525
 4411         h1    153    bbb     H2   4411 0.04411300   1.008000   ; qtot -0.407412
 4412         c3    153    bbb     C2   4412 0.10137000  12.010000   ; qtot -0.306042
 4413         h1    153    bbb     H3   4413 0.04411300   1.008000   ; qtot -0.261929
 4414         h1    153    bbb     H4   4414 0.04411300   1.008000   ; qtot -0.217816
 4415         c3    153    bbb     C3   4415 -0.00195300  12.010000   ; qtot -0.219769
 4416         h1    153    bbb     H5   4416 0.05064400   1.008000   ; qtot -0.169125
 4417         h1    153    bbb     H6   4417 0.05064400   1.008000   ; qtot -0.118481
 4418         c3    153    bbb     C4   4418 -0.01612100  12.010000   ; qtot -0.134602
 4419         hc    153    bbb     H7   4419 0.04936100   1.008000   ; qtot -0.085241
 4420         hc    153    bbb     H8   4420 0.04936100   1.008000   ; qtot -0.035880
 4421         c3    153    bbb     C5   4421 0.11363000  12.010000   ; qtot 0.077750
 4422         hc    153    bbb     H9   4422 0.06265900   1.008000   ; qtot 0.140409
 4423         hc    153    bbb    H10   4423 0.06265900   1.008000   ; qtot 0.203068
 4424         c3    153    bbb     C6   4424 0.11363000  12.010000   ; qtot 0.316698
 4425         hc    153    bbb    H11   4425 0.06265900   1.008000   ; qtot 0.379357
 4426         hc    153    bbb    H12   4426 0.06265900   1.008000   ; qtot 0.442016
 4427         c3    153    bbb     C7   4427 0.05858200  12.010000   ; qtot 0.500598
 4428         h1    153    bbb    H13   4428 0.06123400   1.008000   ; qtot 0.561832
 4429         h1    153    bbb    H14   4429 0.06123400   1.008000   ; qtot 0.623066
 4430         c3    153    bbb     C8   4430 -0.72423400  12.010000   ; qtot -0.101168
 4431         h1    153    bbb    H15   4431 0.25637600   1.008000   ; qtot 0.155208
 4432         h1    153    bbb    H16   4432 0.25637600   1.008000   ; qtot 0.411584
 4433         c3    153    bbb     C9   4433 -0.72423400  12.010000   ; qtot -0.312650
 4434         h1    153    bbb    H17   4434 0.25637600   1.008000   ; qtot -0.056274
 4435         h1    153    bbb    H18   4435 0.25637600   1.008000   ; qtot 0.200102
 4436         os    153    bbb     O1   4436 -0.20025300  16.000000   ; qtot -0.000151
; residue  154 bbb rtp bbb q -0.0
 4437         n3    154    bbb     N1   4437 -0.59685800  14.010000   ; qtot -0.597009
 4438         c3    154    bbb     C1   4438 0.10137000  12.010000   ; qtot -0.495639
 4439         h1    154    bbb     H1   4439 0.04411300   1.008000   ; qtot -0.451526
 4440         h1    154    bbb     H2   4440 0.04411300   1.008000   ; qtot -0.407413
 4441         c3    154    bbb     C2   4441 0.10137000  12.010000   ; qtot -0.306043
 4442         h1    154    bbb     H3   4442 0.04411300   1.008000   ; qtot -0.261930
 4443         h1    154    bbb     H4   4443 0.04411300   1.008000   ; qtot -0.217817
 4444         c3    154    bbb     C3   4444 -0.00195300  12.010000   ; qtot -0.219770
 4445         h1    154    bbb     H5   4445 0.05064400   1.008000   ; qtot -0.169126
 4446         h1    154    bbb     H6   4446 0.05064400   1.008000   ; qtot -0.118482
 4447         c3    154    bbb     C4   4447 -0.01612100  12.010000   ; qtot -0.134603
 4448         hc    154    bbb     H7   4448 0.04936100   1.008000   ; qtot -0.085242
 4449         hc    154    bbb     H8   4449 0.04936100   1.008000   ; qtot -0.035881
 4450         c3    154    bbb     C5   4450 0.11363000  12.010000   ; qtot 0.077749
 4451         hc    154    bbb     H9   4451 0.06265900   1.008000   ; qtot 0.140408
 4452         hc    154    bbb    H10   4452 0.06265900   1.008000   ; qtot 0.203067
 4453         c3    154    bbb     C6   4453 0.11363000  12.010000   ; qtot 0.316697
 4454         hc    154    bbb    H11   4454 0.06265900   1.008000   ; qtot 0.379356
 4455         hc    154    bbb    H12   4455 0.06265900   1.008000   ; qtot 0.442015
 4456         c3    154    bbb     C7   4456 0.05858200  12.010000   ; qtot 0.500597
 4457         h1    154    bbb    H13   4457 0.06123400   1.008000   ; qtot 0.561831
 4458         h1    154    bbb    H14   4458 0.06123400   1.008000   ; qtot 0.623065
 4459         c3    154    bbb     C8   4459 -0.72423400  12.010000   ; qtot -0.101169
 4460         h1    154    bbb    H15   4460 0.25637600   1.008000   ; qtot 0.155207
 4461         h1    154    bbb    H16   4461 0.25637600   1.008000   ; qtot 0.411583
 4462         c3    154    bbb     C9   4462 -0.72423400  12.010000   ; qtot -0.312651
 4463         h1    154    bbb    H17   4463 0.25637600   1.008000   ; qtot -0.056275
 4464         h1    154    bbb    H18   4464 0.25637600   1.008000   ; qtot 0.200101
 4465         os    154    bbb     O1   4465 -0.20025300  16.000000   ; qtot -0.000152
; residue  155 bbb rtp bbb q -0.0
 4466         n3    155    bbb     N1   4466 -0.59685800  14.010000   ; qtot -0.597010
 4467         c3    155    bbb     C1   4467 0.10137000  12.010000   ; qtot -0.495640
 4468         h1    155    bbb     H1   4468 0.04411300   1.008000   ; qtot -0.451527
 4469         h1    155    bbb     H2   4469 0.04411300   1.008000   ; qtot -0.407414
 4470         c3    155    bbb     C2   4470 0.10137000  12.010000   ; qtot -0.306044
 4471         h1    155    bbb     H3   4471 0.04411300   1.008000   ; qtot -0.261931
 4472         h1    155    bbb     H4   4472 0.04411300   1.008000   ; qtot -0.217818
 4473         c3    155    bbb     C3   4473 -0.00195300  12.010000   ; qtot -0.219771
 4474         h1    155    bbb     H5   4474 0.05064400   1.008000   ; qtot -0.169127
 4475         h1    155    bbb     H6   4475 0.05064400   1.008000   ; qtot -0.118483
 4476         c3    155    bbb     C4   4476 -0.01612100  12.010000   ; qtot -0.134604
 4477         hc    155    bbb     H7   4477 0.04936100   1.008000   ; qtot -0.085243
 4478         hc    155    bbb     H8   4478 0.04936100   1.008000   ; qtot -0.035882
 4479         c3    155    bbb     C5   4479 0.11363000  12.010000   ; qtot 0.077748
 4480         hc    155    bbb     H9   4480 0.06265900   1.008000   ; qtot 0.140407
 4481         hc    155    bbb    H10   4481 0.06265900   1.008000   ; qtot 0.203066
 4482         c3    155    bbb     C6   4482 0.11363000  12.010000   ; qtot 0.316696
 4483         hc    155    bbb    H11   4483 0.06265900   1.008000   ; qtot 0.379355
 4484         hc    155    bbb    H12   4484 0.06265900   1.008000   ; qtot 0.442014
 4485         c3    155    bbb     C7   4485 0.05858200  12.010000   ; qtot 0.500596
 4486         h1    155    bbb    H13   4486 0.06123400   1.008000   ; qtot 0.561830
 4487         h1    155    bbb    H14   4487 0.06123400   1.008000   ; qtot 0.623064
 4488         c3    155    bbb     C8   4488 -0.72423400  12.010000   ; qtot -0.101170
 4489         h1    155    bbb    H15   4489 0.25637600   1.008000   ; qtot 0.155206
 4490         h1    155    bbb    H16   4490 0.25637600   1.008000   ; qtot 0.411582
 4491         c3    155    bbb     C9   4491 -0.72423400  12.010000   ; qtot -0.312652
 4492         h1    155    bbb    H17   4492 0.25637600   1.008000   ; qtot -0.056276
 4493         h1    155    bbb    H18   4493 0.25637600   1.008000   ; qtot 0.200100
 4494         os    155    bbb     O1   4494 -0.20025300  16.000000   ; qtot -0.000153
; residue  156 bbb rtp bbb q -0.0
 4495         n3    156    bbb     N1   4495 -0.59685800  14.010000   ; qtot -0.597011
 4496         c3    156    bbb     C1   4496 0.10137000  12.010000   ; qtot -0.495641
 4497         h1    156    bbb     H1   4497 0.04411300   1.008000   ; qtot -0.451528
 4498         h1    156    bbb     H2   4498 0.04411300   1.008000   ; qtot -0.407415
 4499         c3    156    bbb     C2   4499 0.10137000  12.010000   ; qtot -0.306045
 4500         h1    156    bbb     H3   4500 0.04411300   1.008000   ; qtot -0.261932
 4501         h1    156    bbb     H4   4501 0.04411300   1.008000   ; qtot -0.217819
 4502         c3    156    bbb     C3   4502 -0.00195300  12.010000   ; qtot -0.219772
 4503         h1    156    bbb     H5   4503 0.05064400   1.008000   ; qtot -0.169128
 4504         h1    156    bbb     H6   4504 0.05064400   1.008000   ; qtot -0.118484
 4505         c3    156    bbb     C4   4505 -0.01612100  12.010000   ; qtot -0.134605
 4506         hc    156    bbb     H7   4506 0.04936100   1.008000   ; qtot -0.085244
 4507         hc    156    bbb     H8   4507 0.04936100   1.008000   ; qtot -0.035883
 4508         c3    156    bbb     C5   4508 0.11363000  12.010000   ; qtot 0.077747
 4509         hc    156    bbb     H9   4509 0.06265900   1.008000   ; qtot 0.140406
 4510         hc    156    bbb    H10   4510 0.06265900   1.008000   ; qtot 0.203065
 4511         c3    156    bbb     C6   4511 0.11363000  12.010000   ; qtot 0.316695
 4512         hc    156    bbb    H11   4512 0.06265900   1.008000   ; qtot 0.379354
 4513         hc    156    bbb    H12   4513 0.06265900   1.008000   ; qtot 0.442013
 4514         c3    156    bbb     C7   4514 0.05858200  12.010000   ; qtot 0.500595
 4515         h1    156    bbb    H13   4515 0.06123400   1.008000   ; qtot 0.561829
 4516         h1    156    bbb    H14   4516 0.06123400   1.008000   ; qtot 0.623063
 4517         c3    156    bbb     C8   4517 -0.72423400  12.010000   ; qtot -0.101171
 4518         h1    156    bbb    H15   4518 0.25637600   1.008000   ; qtot 0.155205
 4519         h1    156    bbb    H16   4519 0.25637600   1.008000   ; qtot 0.411581
 4520         c3    156    bbb     C9   4520 -0.72423400  12.010000   ; qtot -0.312653
 4521         h1    156    bbb    H17   4521 0.25637600   1.008000   ; qtot -0.056277
 4522         h1    156    bbb    H18   4522 0.25637600   1.008000   ; qtot 0.200099
 4523         os    156    bbb     O1   4523 -0.20025300  16.000000   ; qtot -0.000154
; residue  157 bbb rtp bbb q -0.0
 4524         n3    157    bbb     N1   4524 -0.59685800  14.010000   ; qtot -0.597012
 4525         c3    157    bbb     C1   4525 0.10137000  12.010000   ; qtot -0.495642
 4526         h1    157    bbb     H1   4526 0.04411300   1.008000   ; qtot -0.451529
 4527         h1    157    bbb     H2   4527 0.04411300   1.008000   ; qtot -0.407416
 4528         c3    157    bbb     C2   4528 0.10137000  12.010000   ; qtot -0.306046
 4529         h1    157    bbb     H3   4529 0.04411300   1.008000   ; qtot -0.261933
 4530         h1    157    bbb     H4   4530 0.04411300   1.008000   ; qtot -0.217820
 4531         c3    157    bbb     C3   4531 -0.00195300  12.010000   ; qtot -0.219773
 4532         h1    157    bbb     H5   4532 0.05064400   1.008000   ; qtot -0.169129
 4533         h1    157    bbb     H6   4533 0.05064400   1.008000   ; qtot -0.118485
 4534         c3    157    bbb     C4   4534 -0.01612100  12.010000   ; qtot -0.134606
 4535         hc    157    bbb     H7   4535 0.04936100   1.008000   ; qtot -0.085245
 4536         hc    157    bbb     H8   4536 0.04936100   1.008000   ; qtot -0.035884
 4537         c3    157    bbb     C5   4537 0.11363000  12.010000   ; qtot 0.077746
 4538         hc    157    bbb     H9   4538 0.06265900   1.008000   ; qtot 0.140405
 4539         hc    157    bbb    H10   4539 0.06265900   1.008000   ; qtot 0.203064
 4540         c3    157    bbb     C6   4540 0.11363000  12.010000   ; qtot 0.316694
 4541         hc    157    bbb    H11   4541 0.06265900   1.008000   ; qtot 0.379353
 4542         hc    157    bbb    H12   4542 0.06265900   1.008000   ; qtot 0.442012
 4543         c3    157    bbb     C7   4543 0.05858200  12.010000   ; qtot 0.500594
 4544         h1    157    bbb    H13   4544 0.06123400   1.008000   ; qtot 0.561828
 4545         h1    157    bbb    H14   4545 0.06123400   1.008000   ; qtot 0.623062
 4546         c3    157    bbb     C8   4546 -0.72423400  12.010000   ; qtot -0.101172
 4547         h1    157    bbb    H15   4547 0.25637600   1.008000   ; qtot 0.155204
 4548         h1    157    bbb    H16   4548 0.25637600   1.008000   ; qtot 0.411580
 4549         c3    157    bbb     C9   4549 -0.72423400  12.010000   ; qtot -0.312654
 4550         h1    157    bbb    H17   4550 0.25637600   1.008000   ; qtot -0.056278
 4551         h1    157    bbb    H18   4551 0.25637600   1.008000   ; qtot 0.200098
 4552         os    157    bbb     O1   4552 -0.20025300  16.000000   ; qtot -0.000155
; residue  158 bbb rtp bbb q -0.0
 4553         n3    158    bbb     N1   4553 -0.59685800  14.010000   ; qtot -0.597013
 4554         c3    158    bbb     C1   4554 0.10137000  12.010000   ; qtot -0.495643
 4555         h1    158    bbb     H1   4555 0.04411300   1.008000   ; qtot -0.451530
 4556         h1    158    bbb     H2   4556 0.04411300   1.008000   ; qtot -0.407417
 4557         c3    158    bbb     C2   4557 0.10137000  12.010000   ; qtot -0.306047
 4558         h1    158    bbb     H3   4558 0.04411300   1.008000   ; qtot -0.261934
 4559         h1    158    bbb     H4   4559 0.04411300   1.008000   ; qtot -0.217821
 4560         c3    158    bbb     C3   4560 -0.00195300  12.010000   ; qtot -0.219774
 4561         h1    158    bbb     H5   4561 0.05064400   1.008000   ; qtot -0.169130
 4562         h1    158    bbb     H6   4562 0.05064400   1.008000   ; qtot -0.118486
 4563         c3    158    bbb     C4   4563 -0.01612100  12.010000   ; qtot -0.134607
 4564         hc    158    bbb     H7   4564 0.04936100   1.008000   ; qtot -0.085246
 4565         hc    158    bbb     H8   4565 0.04936100   1.008000   ; qtot -0.035885
 4566         c3    158    bbb     C5   4566 0.11363000  12.010000   ; qtot 0.077745
 4567         hc    158    bbb     H9   4567 0.06265900   1.008000   ; qtot 0.140404
 4568         hc    158    bbb    H10   4568 0.06265900   1.008000   ; qtot 0.203063
 4569         c3    158    bbb     C6   4569 0.11363000  12.010000   ; qtot 0.316693
 4570         hc    158    bbb    H11   4570 0.06265900   1.008000   ; qtot 0.379352
 4571         hc    158    bbb    H12   4571 0.06265900   1.008000   ; qtot 0.442011
 4572         c3    158    bbb     C7   4572 0.05858200  12.010000   ; qtot 0.500593
 4573         h1    158    bbb    H13   4573 0.06123400   1.008000   ; qtot 0.561827
 4574         h1    158    bbb    H14   4574 0.06123400   1.008000   ; qtot 0.623061
 4575         c3    158    bbb     C8   4575 -0.72423400  12.010000   ; qtot -0.101173
 4576         h1    158    bbb    H15   4576 0.25637600   1.008000   ; qtot 0.155203
 4577         h1    158    bbb    H16   4577 0.25637600   1.008000   ; qtot 0.411579
 4578         c3    158    bbb     C9   4578 -0.72423400  12.010000   ; qtot -0.312655
 4579         h1    158    bbb    H17   4579 0.25637600   1.008000   ; qtot -0.056279
 4580         h1    158    bbb    H18   4580 0.25637600   1.008000   ; qtot 0.200097
 4581         os    158    bbb     O1   4581 -0.20025300  16.000000   ; qtot -0.000156
; residue  159 bbb rtp bbb q -0.0
 4582         n3    159    bbb     N1   4582 -0.59685800  14.010000   ; qtot -0.597014
 4583         c3    159    bbb     C1   4583 0.10137000  12.010000   ; qtot -0.495644
 4584         h1    159    bbb     H1   4584 0.04411300   1.008000   ; qtot -0.451531
 4585         h1    159    bbb     H2   4585 0.04411300   1.008000   ; qtot -0.407418
 4586         c3    159    bbb     C2   4586 0.10137000  12.010000   ; qtot -0.306048
 4587         h1    159    bbb     H3   4587 0.04411300   1.008000   ; qtot -0.261935
 4588         h1    159    bbb     H4   4588 0.04411300   1.008000   ; qtot -0.217822
 4589         c3    159    bbb     C3   4589 -0.00195300  12.010000   ; qtot -0.219775
 4590         h1    159    bbb     H5   4590 0.05064400   1.008000   ; qtot -0.169131
 4591         h1    159    bbb     H6   4591 0.05064400   1.008000   ; qtot -0.118487
 4592         c3    159    bbb     C4   4592 -0.01612100  12.010000   ; qtot -0.134608
 4593         hc    159    bbb     H7   4593 0.04936100   1.008000   ; qtot -0.085247
 4594         hc    159    bbb     H8   4594 0.04936100   1.008000   ; qtot -0.035886
 4595         c3    159    bbb     C5   4595 0.11363000  12.010000   ; qtot 0.077744
 4596         hc    159    bbb     H9   4596 0.06265900   1.008000   ; qtot 0.140403
 4597         hc    159    bbb    H10   4597 0.06265900   1.008000   ; qtot 0.203062
 4598         c3    159    bbb     C6   4598 0.11363000  12.010000   ; qtot 0.316692
 4599         hc    159    bbb    H11   4599 0.06265900   1.008000   ; qtot 0.379351
 4600         hc    159    bbb    H12   4600 0.06265900   1.008000   ; qtot 0.442010
 4601         c3    159    bbb     C7   4601 0.05858200  12.010000   ; qtot 0.500592
 4602         h1    159    bbb    H13   4602 0.06123400   1.008000   ; qtot 0.561826
 4603         h1    159    bbb    H14   4603 0.06123400   1.008000   ; qtot 0.623060
 4604         c3    159    bbb     C8   4604 -0.72423400  12.010000   ; qtot -0.101174
 4605         h1    159    bbb    H15   4605 0.25637600   1.008000   ; qtot 0.155202
 4606         h1    159    bbb    H16   4606 0.25637600   1.008000   ; qtot 0.411578
 4607         c3    159    bbb     C9   4607 -0.72423400  12.010000   ; qtot -0.312656
 4608         h1    159    bbb    H17   4608 0.25637600   1.008000   ; qtot -0.056280
 4609         h1    159    bbb    H18   4609 0.25637600   1.008000   ; qtot 0.200096
 4610         os    159    bbb     O1   4610 -0.20025300  16.000000   ; qtot -0.000157
; residue  160 bbb rtp bbb q -0.0
 4611         n3    160    bbb     N1   4611 -0.59685800  14.010000   ; qtot -0.597015
 4612         c3    160    bbb     C1   4612 0.10137000  12.010000   ; qtot -0.495645
 4613         h1    160    bbb     H1   4613 0.04411300   1.008000   ; qtot -0.451532
 4614         h1    160    bbb     H2   4614 0.04411300   1.008000   ; qtot -0.407419
 4615         c3    160    bbb     C2   4615 0.10137000  12.010000   ; qtot -0.306049
 4616         h1    160    bbb     H3   4616 0.04411300   1.008000   ; qtot -0.261936
 4617         h1    160    bbb     H4   4617 0.04411300   1.008000   ; qtot -0.217823
 4618         c3    160    bbb     C3   4618 -0.00195300  12.010000   ; qtot -0.219776
 4619         h1    160    bbb     H5   4619 0.05064400   1.008000   ; qtot -0.169132
 4620         h1    160    bbb     H6   4620 0.05064400   1.008000   ; qtot -0.118488
 4621         c3    160    bbb     C4   4621 -0.01612100  12.010000   ; qtot -0.134609
 4622         hc    160    bbb     H7   4622 0.04936100   1.008000   ; qtot -0.085248
 4623         hc    160    bbb     H8   4623 0.04936100   1.008000   ; qtot -0.035887
 4624         c3    160    bbb     C5   4624 0.11363000  12.010000   ; qtot 0.077743
 4625         hc    160    bbb     H9   4625 0.06265900   1.008000   ; qtot 0.140402
 4626         hc    160    bbb    H10   4626 0.06265900   1.008000   ; qtot 0.203061
 4627         c3    160    bbb     C6   4627 0.11363000  12.010000   ; qtot 0.316691
 4628         hc    160    bbb    H11   4628 0.06265900   1.008000   ; qtot 0.379350
 4629         hc    160    bbb    H12   4629 0.06265900   1.008000   ; qtot 0.442009
 4630         c3    160    bbb     C7   4630 0.05858200  12.010000   ; qtot 0.500591
 4631         h1    160    bbb    H13   4631 0.06123400   1.008000   ; qtot 0.561825
 4632         h1    160    bbb    H14   4632 0.06123400   1.008000   ; qtot 0.623059
 4633         c3    160    bbb     C8   4633 -0.72423400  12.010000   ; qtot -0.101175
 4634         h1    160    bbb    H15   4634 0.25637600   1.008000   ; qtot 0.155201
 4635         h1    160    bbb    H16   4635 0.25637600   1.008000   ; qtot 0.411577
 4636         c3    160    bbb     C9   4636 -0.72423400  12.010000   ; qtot -0.312657
 4637         h1    160    bbb    H17   4637 0.25637600   1.008000   ; qtot -0.056281
 4638         h1    160    bbb    H18   4638 0.25637600   1.008000   ; qtot 0.200095
 4639         os    160    bbb     O1   4639 -0.20025300  16.000000   ; qtot -0.000158
; residue  161 bbb rtp bbb q -0.0
 4640         n3    161    bbb     N1   4640 -0.59685800  14.010000   ; qtot -0.597016
 4641         c3    161    bbb     C1   4641 0.10137000  12.010000   ; qtot -0.495646
 4642         h1    161    bbb     H1   4642 0.04411300   1.008000   ; qtot -0.451533
 4643         h1    161    bbb     H2   4643 0.04411300   1.008000   ; qtot -0.407420
 4644         c3    161    bbb     C2   4644 0.10137000  12.010000   ; qtot -0.306050
 4645         h1    161    bbb     H3   4645 0.04411300   1.008000   ; qtot -0.261937
 4646         h1    161    bbb     H4   4646 0.04411300   1.008000   ; qtot -0.217824
 4647         c3    161    bbb     C3   4647 -0.00195300  12.010000   ; qtot -0.219777
 4648         h1    161    bbb     H5   4648 0.05064400   1.008000   ; qtot -0.169133
 4649         h1    161    bbb     H6   4649 0.05064400   1.008000   ; qtot -0.118489
 4650         c3    161    bbb     C4   4650 -0.01612100  12.010000   ; qtot -0.134610
 4651         hc    161    bbb     H7   4651 0.04936100   1.008000   ; qtot -0.085249
 4652         hc    161    bbb     H8   4652 0.04936100   1.008000   ; qtot -0.035888
 4653         c3    161    bbb     C5   4653 0.11363000  12.010000   ; qtot 0.077742
 4654         hc    161    bbb     H9   4654 0.06265900   1.008000   ; qtot 0.140401
 4655         hc    161    bbb    H10   4655 0.06265900   1.008000   ; qtot 0.203060
 4656         c3    161    bbb     C6   4656 0.11363000  12.010000   ; qtot 0.316690
 4657         hc    161    bbb    H11   4657 0.06265900   1.008000   ; qtot 0.379349
 4658         hc    161    bbb    H12   4658 0.06265900   1.008000   ; qtot 0.442008
 4659         c3    161    bbb     C7   4659 0.05858200  12.010000   ; qtot 0.500590
 4660         h1    161    bbb    H13   4660 0.06123400   1.008000   ; qtot 0.561824
 4661         h1    161    bbb    H14   4661 0.06123400   1.008000   ; qtot 0.623058
 4662         c3    161    bbb     C8   4662 -0.72423400  12.010000   ; qtot -0.101176
 4663         h1    161    bbb    H15   4663 0.25637600   1.008000   ; qtot 0.155200
 4664         h1    161    bbb    H16   4664 0.25637600   1.008000   ; qtot 0.411576
 4665         c3    161    bbb     C9   4665 -0.72423400  12.010000   ; qtot -0.312658
 4666         h1    161    bbb    H17   4666 0.25637600   1.008000   ; qtot -0.056282
 4667         h1    161    bbb    H18   4667 0.25637600   1.008000   ; qtot 0.200094
 4668         os    161    bbb     O1   4668 -0.20025300  16.000000   ; qtot -0.000159
; residue  162 bbb rtp bbb q -0.0
 4669         n3    162    bbb     N1   4669 -0.59685800  14.010000   ; qtot -0.597017
 4670         c3    162    bbb     C1   4670 0.10137000  12.010000   ; qtot -0.495647
 4671         h1    162    bbb     H1   4671 0.04411300   1.008000   ; qtot -0.451534
 4672         h1    162    bbb     H2   4672 0.04411300   1.008000   ; qtot -0.407421
 4673         c3    162    bbb     C2   4673 0.10137000  12.010000   ; qtot -0.306051
 4674         h1    162    bbb     H3   4674 0.04411300   1.008000   ; qtot -0.261938
 4675         h1    162    bbb     H4   4675 0.04411300   1.008000   ; qtot -0.217825
 4676         c3    162    bbb     C3   4676 -0.00195300  12.010000   ; qtot -0.219778
 4677         h1    162    bbb     H5   4677 0.05064400   1.008000   ; qtot -0.169134
 4678         h1    162    bbb     H6   4678 0.05064400   1.008000   ; qtot -0.118490
 4679         c3    162    bbb     C4   4679 -0.01612100  12.010000   ; qtot -0.134611
 4680         hc    162    bbb     H7   4680 0.04936100   1.008000   ; qtot -0.085250
 4681         hc    162    bbb     H8   4681 0.04936100   1.008000   ; qtot -0.035889
 4682         c3    162    bbb     C5   4682 0.11363000  12.010000   ; qtot 0.077741
 4683         hc    162    bbb     H9   4683 0.06265900   1.008000   ; qtot 0.140400
 4684         hc    162    bbb    H10   4684 0.06265900   1.008000   ; qtot 0.203059
 4685         c3    162    bbb     C6   4685 0.11363000  12.010000   ; qtot 0.316689
 4686         hc    162    bbb    H11   4686 0.06265900   1.008000   ; qtot 0.379348
 4687         hc    162    bbb    H12   4687 0.06265900   1.008000   ; qtot 0.442007
 4688         c3    162    bbb     C7   4688 0.05858200  12.010000   ; qtot 0.500589
 4689         h1    162    bbb    H13   4689 0.06123400   1.008000   ; qtot 0.561823
 4690         h1    162    bbb    H14   4690 0.06123400   1.008000   ; qtot 0.623057
 4691         c3    162    bbb     C8   4691 -0.72423400  12.010000   ; qtot -0.101177
 4692         h1    162    bbb    H15   4692 0.25637600   1.008000   ; qtot 0.155199
 4693         h1    162    bbb    H16   4693 0.25637600   1.008000   ; qtot 0.411575
 4694         c3    162    bbb     C9   4694 -0.72423400  12.010000   ; qtot -0.312659
 4695         h1    162    bbb    H17   4695 0.25637600   1.008000   ; qtot -0.056283
 4696         h1    162    bbb    H18   4696 0.25637600   1.008000   ; qtot 0.200093
 4697         os    162    bbb     O1   4697 -0.20025300  16.000000   ; qtot -0.000160
; residue  163 bbb rtp bbb q -0.0
 4698         n3    163    bbb     N1   4698 -0.59685800  14.010000   ; qtot -0.597018
 4699         c3    163    bbb     C1   4699 0.10137000  12.010000   ; qtot -0.495648
 4700         h1    163    bbb     H1   4700 0.04411300   1.008000   ; qtot -0.451535
 4701         h1    163    bbb     H2   4701 0.04411300   1.008000   ; qtot -0.407422
 4702         c3    163    bbb     C2   4702 0.10137000  12.010000   ; qtot -0.306052
 4703         h1    163    bbb     H3   4703 0.04411300   1.008000   ; qtot -0.261939
 4704         h1    163    bbb     H4   4704 0.04411300   1.008000   ; qtot -0.217826
 4705         c3    163    bbb     C3   4705 -0.00195300  12.010000   ; qtot -0.219779
 4706         h1    163    bbb     H5   4706 0.05064400   1.008000   ; qtot -0.169135
 4707         h1    163    bbb     H6   4707 0.05064400   1.008000   ; qtot -0.118491
 4708         c3    163    bbb     C4   4708 -0.01612100  12.010000   ; qtot -0.134612
 4709         hc    163    bbb     H7   4709 0.04936100   1.008000   ; qtot -0.085251
 4710         hc    163    bbb     H8   4710 0.04936100   1.008000   ; qtot -0.035890
 4711         c3    163    bbb     C5   4711 0.11363000  12.010000   ; qtot 0.077740
 4712         hc    163    bbb     H9   4712 0.06265900   1.008000   ; qtot 0.140399
 4713         hc    163    bbb    H10   4713 0.06265900   1.008000   ; qtot 0.203058
 4714         c3    163    bbb     C6   4714 0.11363000  12.010000   ; qtot 0.316688
 4715         hc    163    bbb    H11   4715 0.06265900   1.008000   ; qtot 0.379347
 4716         hc    163    bbb    H12   4716 0.06265900   1.008000   ; qtot 0.442006
 4717         c3    163    bbb     C7   4717 0.05858200  12.010000   ; qtot 0.500588
 4718         h1    163    bbb    H13   4718 0.06123400   1.008000   ; qtot 0.561822
 4719         h1    163    bbb    H14   4719 0.06123400   1.008000   ; qtot 0.623056
 4720         c3    163    bbb     C8   4720 -0.72423400  12.010000   ; qtot -0.101178
 4721         h1    163    bbb    H15   4721 0.25637600   1.008000   ; qtot 0.155198
 4722         h1    163    bbb    H16   4722 0.25637600   1.008000   ; qtot 0.411574
 4723         c3    163    bbb     C9   4723 -0.72423400  12.010000   ; qtot -0.312660
 4724         h1    163    bbb    H17   4724 0.25637600   1.008000   ; qtot -0.056284
 4725         h1    163    bbb    H18   4725 0.25637600   1.008000   ; qtot 0.200092
 4726         os    163    bbb     O1   4726 -0.20025300  16.000000   ; qtot -0.000161
; residue  164 bbb rtp bbb q -0.0
 4727         n3    164    bbb     N1   4727 -0.59685800  14.010000   ; qtot -0.597019
 4728         c3    164    bbb     C1   4728 0.10137000  12.010000   ; qtot -0.495649
 4729         h1    164    bbb     H1   4729 0.04411300   1.008000   ; qtot -0.451536
 4730         h1    164    bbb     H2   4730 0.04411300   1.008000   ; qtot -0.407423
 4731         c3    164    bbb     C2   4731 0.10137000  12.010000   ; qtot -0.306053
 4732         h1    164    bbb     H3   4732 0.04411300   1.008000   ; qtot -0.261940
 4733         h1    164    bbb     H4   4733 0.04411300   1.008000   ; qtot -0.217827
 4734         c3    164    bbb     C3   4734 -0.00195300  12.010000   ; qtot -0.219780
 4735         h1    164    bbb     H5   4735 0.05064400   1.008000   ; qtot -0.169136
 4736         h1    164    bbb     H6   4736 0.05064400   1.008000   ; qtot -0.118492
 4737         c3    164    bbb     C4   4737 -0.01612100  12.010000   ; qtot -0.134613
 4738         hc    164    bbb     H7   4738 0.04936100   1.008000   ; qtot -0.085252
 4739         hc    164    bbb     H8   4739 0.04936100   1.008000   ; qtot -0.035891
 4740         c3    164    bbb     C5   4740 0.11363000  12.010000   ; qtot 0.077739
 4741         hc    164    bbb     H9   4741 0.06265900   1.008000   ; qtot 0.140398
 4742         hc    164    bbb    H10   4742 0.06265900   1.008000   ; qtot 0.203057
 4743         c3    164    bbb     C6   4743 0.11363000  12.010000   ; qtot 0.316687
 4744         hc    164    bbb    H11   4744 0.06265900   1.008000   ; qtot 0.379346
 4745         hc    164    bbb    H12   4745 0.06265900   1.008000   ; qtot 0.442005
 4746         c3    164    bbb     C7   4746 0.05858200  12.010000   ; qtot 0.500587
 4747         h1    164    bbb    H13   4747 0.06123400   1.008000   ; qtot 0.561821
 4748         h1    164    bbb    H14   4748 0.06123400   1.008000   ; qtot 0.623055
 4749         c3    164    bbb     C8   4749 -0.72423400  12.010000   ; qtot -0.101179
 4750         h1    164    bbb    H15   4750 0.25637600   1.008000   ; qtot 0.155197
 4751         h1    164    bbb    H16   4751 0.25637600   1.008000   ; qtot 0.411573
 4752         c3    164    bbb     C9   4752 -0.72423400  12.010000   ; qtot -0.312661
 4753         h1    164    bbb    H17   4753 0.25637600   1.008000   ; qtot -0.056285
 4754         h1    164    bbb    H18   4754 0.25637600   1.008000   ; qtot 0.200091
 4755         os    164    bbb     O1   4755 -0.20025300  16.000000   ; qtot -0.000162
; residue  165 bbb rtp bbb q -0.0
 4756         n3    165    bbb     N1   4756 -0.59685800  14.010000   ; qtot -0.597020
 4757         c3    165    bbb     C1   4757 0.10137000  12.010000   ; qtot -0.495650
 4758         h1    165    bbb     H1   4758 0.04411300   1.008000   ; qtot -0.451537
 4759         h1    165    bbb     H2   4759 0.04411300   1.008000   ; qtot -0.407424
 4760         c3    165    bbb     C2   4760 0.10137000  12.010000   ; qtot -0.306054
 4761         h1    165    bbb     H3   4761 0.04411300   1.008000   ; qtot -0.261941
 4762         h1    165    bbb     H4   4762 0.04411300   1.008000   ; qtot -0.217828
 4763         c3    165    bbb     C3   4763 -0.00195300  12.010000   ; qtot -0.219781
 4764         h1    165    bbb     H5   4764 0.05064400   1.008000   ; qtot -0.169137
 4765         h1    165    bbb     H6   4765 0.05064400   1.008000   ; qtot -0.118493
 4766         c3    165    bbb     C4   4766 -0.01612100  12.010000   ; qtot -0.134614
 4767         hc    165    bbb     H7   4767 0.04936100   1.008000   ; qtot -0.085253
 4768         hc    165    bbb     H8   4768 0.04936100   1.008000   ; qtot -0.035892
 4769         c3    165    bbb     C5   4769 0.11363000  12.010000   ; qtot 0.077738
 4770         hc    165    bbb     H9   4770 0.06265900   1.008000   ; qtot 0.140397
 4771         hc    165    bbb    H10   4771 0.06265900   1.008000   ; qtot 0.203056
 4772         c3    165    bbb     C6   4772 0.11363000  12.010000   ; qtot 0.316686
 4773         hc    165    bbb    H11   4773 0.06265900   1.008000   ; qtot 0.379345
 4774         hc    165    bbb    H12   4774 0.06265900   1.008000   ; qtot 0.442004
 4775         c3    165    bbb     C7   4775 0.05858200  12.010000   ; qtot 0.500586
 4776         h1    165    bbb    H13   4776 0.06123400   1.008000   ; qtot 0.561820
 4777         h1    165    bbb    H14   4777 0.06123400   1.008000   ; qtot 0.623054
 4778         c3    165    bbb     C8   4778 -0.72423400  12.010000   ; qtot -0.101180
 4779         h1    165    bbb    H15   4779 0.25637600   1.008000   ; qtot 0.155196
 4780         h1    165    bbb    H16   4780 0.25637600   1.008000   ; qtot 0.411572
 4781         c3    165    bbb     C9   4781 -0.72423400  12.010000   ; qtot -0.312662
 4782         h1    165    bbb    H17   4782 0.25637600   1.008000   ; qtot -0.056286
 4783         h1    165    bbb    H18   4783 0.25637600   1.008000   ; qtot 0.200090
 4784         os    165    bbb     O1   4784 -0.20025300  16.000000   ; qtot -0.000163
; residue  166 bbb rtp bbb q -0.0
 4785         n3    166    bbb     N1   4785 -0.59685800  14.010000   ; qtot -0.597021
 4786         c3    166    bbb     C1   4786 0.10137000  12.010000   ; qtot -0.495651
 4787         h1    166    bbb     H1   4787 0.04411300   1.008000   ; qtot -0.451538
 4788         h1    166    bbb     H2   4788 0.04411300   1.008000   ; qtot -0.407425
 4789         c3    166    bbb     C2   4789 0.10137000  12.010000   ; qtot -0.306055
 4790         h1    166    bbb     H3   4790 0.04411300   1.008000   ; qtot -0.261942
 4791         h1    166    bbb     H4   4791 0.04411300   1.008000   ; qtot -0.217829
 4792         c3    166    bbb     C3   4792 -0.00195300  12.010000   ; qtot -0.219782
 4793         h1    166    bbb     H5   4793 0.05064400   1.008000   ; qtot -0.169138
 4794         h1    166    bbb     H6   4794 0.05064400   1.008000   ; qtot -0.118494
 4795         c3    166    bbb     C4   4795 -0.01612100  12.010000   ; qtot -0.134615
 4796         hc    166    bbb     H7   4796 0.04936100   1.008000   ; qtot -0.085254
 4797         hc    166    bbb     H8   4797 0.04936100   1.008000   ; qtot -0.035893
 4798         c3    166    bbb     C5   4798 0.11363000  12.010000   ; qtot 0.077737
 4799         hc    166    bbb     H9   4799 0.06265900   1.008000   ; qtot 0.140396
 4800         hc    166    bbb    H10   4800 0.06265900   1.008000   ; qtot 0.203055
 4801         c3    166    bbb     C6   4801 0.11363000  12.010000   ; qtot 0.316685
 4802         hc    166    bbb    H11   4802 0.06265900   1.008000   ; qtot 0.379344
 4803         hc    166    bbb    H12   4803 0.06265900   1.008000   ; qtot 0.442003
 4804         c3    166    bbb     C7   4804 0.05858200  12.010000   ; qtot 0.500585
 4805         h1    166    bbb    H13   4805 0.06123400   1.008000   ; qtot 0.561819
 4806         h1    166    bbb    H14   4806 0.06123400   1.008000   ; qtot 0.623053
 4807         c3    166    bbb     C8   4807 -0.72423400  12.010000   ; qtot -0.101181
 4808         h1    166    bbb    H15   4808 0.25637600   1.008000   ; qtot 0.155195
 4809         h1    166    bbb    H16   4809 0.25637600   1.008000   ; qtot 0.411571
 4810         c3    166    bbb     C9   4810 -0.72423400  12.010000   ; qtot -0.312663
 4811         h1    166    bbb    H17   4811 0.25637600   1.008000   ; qtot -0.056287
 4812         h1    166    bbb    H18   4812 0.25637600   1.008000   ; qtot 0.200089
 4813         os    166    bbb     O1   4813 -0.20025300  16.000000   ; qtot -0.000164
; residue  167 bbb rtp bbb q -0.0
 4814         n3    167    bbb     N1   4814 -0.59685800  14.010000   ; qtot -0.597022
 4815         c3    167    bbb     C1   4815 0.10137000  12.010000   ; qtot -0.495652
 4816         h1    167    bbb     H1   4816 0.04411300   1.008000   ; qtot -0.451539
 4817         h1    167    bbb     H2   4817 0.04411300   1.008000   ; qtot -0.407426
 4818         c3    167    bbb     C2   4818 0.10137000  12.010000   ; qtot -0.306056
 4819         h1    167    bbb     H3   4819 0.04411300   1.008000   ; qtot -0.261943
 4820         h1    167    bbb     H4   4820 0.04411300   1.008000   ; qtot -0.217830
 4821         c3    167    bbb     C3   4821 -0.00195300  12.010000   ; qtot -0.219783
 4822         h1    167    bbb     H5   4822 0.05064400   1.008000   ; qtot -0.169139
 4823         h1    167    bbb     H6   4823 0.05064400   1.008000   ; qtot -0.118495
 4824         c3    167    bbb     C4   4824 -0.01612100  12.010000   ; qtot -0.134616
 4825         hc    167    bbb     H7   4825 0.04936100   1.008000   ; qtot -0.085255
 4826         hc    167    bbb     H8   4826 0.04936100   1.008000   ; qtot -0.035894
 4827         c3    167    bbb     C5   4827 0.11363000  12.010000   ; qtot 0.077736
 4828         hc    167    bbb     H9   4828 0.06265900   1.008000   ; qtot 0.140395
 4829         hc    167    bbb    H10   4829 0.06265900   1.008000   ; qtot 0.203054
 4830         c3    167    bbb     C6   4830 0.11363000  12.010000   ; qtot 0.316684
 4831         hc    167    bbb    H11   4831 0.06265900   1.008000   ; qtot 0.379343
 4832         hc    167    bbb    H12   4832 0.06265900   1.008000   ; qtot 0.442002
 4833         c3    167    bbb     C7   4833 0.05858200  12.010000   ; qtot 0.500584
 4834         h1    167    bbb    H13   4834 0.06123400   1.008000   ; qtot 0.561818
 4835         h1    167    bbb    H14   4835 0.06123400   1.008000   ; qtot 0.623052
 4836         c3    167    bbb     C8   4836 -0.72423400  12.010000   ; qtot -0.101182
 4837         h1    167    bbb    H15   4837 0.25637600   1.008000   ; qtot 0.155194
 4838         h1    167    bbb    H16   4838 0.25637600   1.008000   ; qtot 0.411570
 4839         c3    167    bbb     C9   4839 -0.72423400  12.010000   ; qtot -0.312664
 4840         h1    167    bbb    H17   4840 0.25637600   1.008000   ; qtot -0.056288
 4841         h1    167    bbb    H18   4841 0.25637600   1.008000   ; qtot 0.200088
 4842         os    167    bbb     O1   4842 -0.20025300  16.000000   ; qtot -0.000165
; residue  168 bbb rtp bbb q -0.0
 4843         n3    168    bbb     N1   4843 -0.59685800  14.010000   ; qtot -0.597023
 4844         c3    168    bbb     C1   4844 0.10137000  12.010000   ; qtot -0.495653
 4845         h1    168    bbb     H1   4845 0.04411300   1.008000   ; qtot -0.451540
 4846         h1    168    bbb     H2   4846 0.04411300   1.008000   ; qtot -0.407427
 4847         c3    168    bbb     C2   4847 0.10137000  12.010000   ; qtot -0.306057
 4848         h1    168    bbb     H3   4848 0.04411300   1.008000   ; qtot -0.261944
 4849         h1    168    bbb     H4   4849 0.04411300   1.008000   ; qtot -0.217831
 4850         c3    168    bbb     C3   4850 -0.00195300  12.010000   ; qtot -0.219784
 4851         h1    168    bbb     H5   4851 0.05064400   1.008000   ; qtot -0.169140
 4852         h1    168    bbb     H6   4852 0.05064400   1.008000   ; qtot -0.118496
 4853         c3    168    bbb     C4   4853 -0.01612100  12.010000   ; qtot -0.134617
 4854         hc    168    bbb     H7   4854 0.04936100   1.008000   ; qtot -0.085256
 4855         hc    168    bbb     H8   4855 0.04936100   1.008000   ; qtot -0.035895
 4856         c3    168    bbb     C5   4856 0.11363000  12.010000   ; qtot 0.077735
 4857         hc    168    bbb     H9   4857 0.06265900   1.008000   ; qtot 0.140394
 4858         hc    168    bbb    H10   4858 0.06265900   1.008000   ; qtot 0.203053
 4859         c3    168    bbb     C6   4859 0.11363000  12.010000   ; qtot 0.316683
 4860         hc    168    bbb    H11   4860 0.06265900   1.008000   ; qtot 0.379342
 4861         hc    168    bbb    H12   4861 0.06265900   1.008000   ; qtot 0.442001
 4862         c3    168    bbb     C7   4862 0.05858200  12.010000   ; qtot 0.500583
 4863         h1    168    bbb    H13   4863 0.06123400   1.008000   ; qtot 0.561817
 4864         h1    168    bbb    H14   4864 0.06123400   1.008000   ; qtot 0.623051
 4865         c3    168    bbb     C8   4865 -0.72423400  12.010000   ; qtot -0.101183
 4866         h1    168    bbb    H15   4866 0.25637600   1.008000   ; qtot 0.155193
 4867         h1    168    bbb    H16   4867 0.25637600   1.008000   ; qtot 0.411569
 4868         c3    168    bbb     C9   4868 -0.72423400  12.010000   ; qtot -0.312665
 4869         h1    168    bbb    H17   4869 0.25637600   1.008000   ; qtot -0.056289
 4870         h1    168    bbb    H18   4870 0.25637600   1.008000   ; qtot 0.200087
 4871         os    168    bbb     O1   4871 -0.20025300  16.000000   ; qtot -0.000166
; residue  169 bbb rtp bbb q -0.0
 4872         n3    169    bbb     N1   4872 -0.59685800  14.010000   ; qtot -0.597024
 4873         c3    169    bbb     C1   4873 0.10137000  12.010000   ; qtot -0.495654
 4874         h1    169    bbb     H1   4874 0.04411300   1.008000   ; qtot -0.451541
 4875         h1    169    bbb     H2   4875 0.04411300   1.008000   ; qtot -0.407428
 4876         c3    169    bbb     C2   4876 0.10137000  12.010000   ; qtot -0.306058
 4877         h1    169    bbb     H3   4877 0.04411300   1.008000   ; qtot -0.261945
 4878         h1    169    bbb     H4   4878 0.04411300   1.008000   ; qtot -0.217832
 4879         c3    169    bbb     C3   4879 -0.00195300  12.010000   ; qtot -0.219785
 4880         h1    169    bbb     H5   4880 0.05064400   1.008000   ; qtot -0.169141
 4881         h1    169    bbb     H6   4881 0.05064400   1.008000   ; qtot -0.118497
 4882         c3    169    bbb     C4   4882 -0.01612100  12.010000   ; qtot -0.134618
 4883         hc    169    bbb     H7   4883 0.04936100   1.008000   ; qtot -0.085257
 4884         hc    169    bbb     H8   4884 0.04936100   1.008000   ; qtot -0.035896
 4885         c3    169    bbb     C5   4885 0.11363000  12.010000   ; qtot 0.077734
 4886         hc    169    bbb     H9   4886 0.06265900   1.008000   ; qtot 0.140393
 4887         hc    169    bbb    H10   4887 0.06265900   1.008000   ; qtot 0.203052
 4888         c3    169    bbb     C6   4888 0.11363000  12.010000   ; qtot 0.316682
 4889         hc    169    bbb    H11   4889 0.06265900   1.008000   ; qtot 0.379341
 4890         hc    169    bbb    H12   4890 0.06265900   1.008000   ; qtot 0.442000
 4891         c3    169    bbb     C7   4891 0.05858200  12.010000   ; qtot 0.500582
 4892         h1    169    bbb    H13   4892 0.06123400   1.008000   ; qtot 0.561816
 4893         h1    169    bbb    H14   4893 0.06123400   1.008000   ; qtot 0.623050
 4894         c3    169    bbb     C8   4894 -0.72423400  12.010000   ; qtot -0.101184
 4895         h1    169    bbb    H15   4895 0.25637600   1.008000   ; qtot 0.155192
 4896         h1    169    bbb    H16   4896 0.25637600   1.008000   ; qtot 0.411568
 4897         c3    169    bbb     C9   4897 -0.72423400  12.010000   ; qtot -0.312666
 4898         h1    169    bbb    H17   4898 0.25637600   1.008000   ; qtot -0.056290
 4899         h1    169    bbb    H18   4899 0.25637600   1.008000   ; qtot 0.200086
 4900         os    169    bbb     O1   4900 -0.20025300  16.000000   ; qtot -0.000167
; residue  170 bbb rtp bbb q -0.0
 4901         n3    170    bbb     N1   4901 -0.59685800  14.010000   ; qtot -0.597025
 4902         c3    170    bbb     C1   4902 0.10137000  12.010000   ; qtot -0.495655
 4903         h1    170    bbb     H1   4903 0.04411300   1.008000   ; qtot -0.451542
 4904         h1    170    bbb     H2   4904 0.04411300   1.008000   ; qtot -0.407429
 4905         c3    170    bbb     C2   4905 0.10137000  12.010000   ; qtot -0.306059
 4906         h1    170    bbb     H3   4906 0.04411300   1.008000   ; qtot -0.261946
 4907         h1    170    bbb     H4   4907 0.04411300   1.008000   ; qtot -0.217833
 4908         c3    170    bbb     C3   4908 -0.00195300  12.010000   ; qtot -0.219786
 4909         h1    170    bbb     H5   4909 0.05064400   1.008000   ; qtot -0.169142
 4910         h1    170    bbb     H6   4910 0.05064400   1.008000   ; qtot -0.118498
 4911         c3    170    bbb     C4   4911 -0.01612100  12.010000   ; qtot -0.134619
 4912         hc    170    bbb     H7   4912 0.04936100   1.008000   ; qtot -0.085258
 4913         hc    170    bbb     H8   4913 0.04936100   1.008000   ; qtot -0.035897
 4914         c3    170    bbb     C5   4914 0.11363000  12.010000   ; qtot 0.077733
 4915         hc    170    bbb     H9   4915 0.06265900   1.008000   ; qtot 0.140392
 4916         hc    170    bbb    H10   4916 0.06265900   1.008000   ; qtot 0.203051
 4917         c3    170    bbb     C6   4917 0.11363000  12.010000   ; qtot 0.316681
 4918         hc    170    bbb    H11   4918 0.06265900   1.008000   ; qtot 0.379340
 4919         hc    170    bbb    H12   4919 0.06265900   1.008000   ; qtot 0.441999
 4920         c3    170    bbb     C7   4920 0.05858200  12.010000   ; qtot 0.500581
 4921         h1    170    bbb    H13   4921 0.06123400   1.008000   ; qtot 0.561815
 4922         h1    170    bbb    H14   4922 0.06123400   1.008000   ; qtot 0.623049
 4923         c3    170    bbb     C8   4923 -0.72423400  12.010000   ; qtot -0.101185
 4924         h1    170    bbb    H15   4924 0.25637600   1.008000   ; qtot 0.155191
 4925         h1    170    bbb    H16   4925 0.25637600   1.008000   ; qtot 0.411567
 4926         c3    170    bbb     C9   4926 -0.72423400  12.010000   ; qtot -0.312667
 4927         h1    170    bbb    H17   4927 0.25637600   1.008000   ; qtot -0.056291
 4928         h1    170    bbb    H18   4928 0.25637600   1.008000   ; qtot 0.200085
 4929         os    170    bbb     O1   4929 -0.20025300  16.000000   ; qtot -0.000168
; residue  171 bbb rtp bbb q -0.0
 4930         n3    171    bbb     N1   4930 -0.59685800  14.010000   ; qtot -0.597026
 4931         c3    171    bbb     C1   4931 0.10137000  12.010000   ; qtot -0.495656
 4932         h1    171    bbb     H1   4932 0.04411300   1.008000   ; qtot -0.451543
 4933         h1    171    bbb     H2   4933 0.04411300   1.008000   ; qtot -0.407430
 4934         c3    171    bbb     C2   4934 0.10137000  12.010000   ; qtot -0.306060
 4935         h1    171    bbb     H3   4935 0.04411300   1.008000   ; qtot -0.261947
 4936         h1    171    bbb     H4   4936 0.04411300   1.008000   ; qtot -0.217834
 4937         c3    171    bbb     C3   4937 -0.00195300  12.010000   ; qtot -0.219787
 4938         h1    171    bbb     H5   4938 0.05064400   1.008000   ; qtot -0.169143
 4939         h1    171    bbb     H6   4939 0.05064400   1.008000   ; qtot -0.118499
 4940         c3    171    bbb     C4   4940 -0.01612100  12.010000   ; qtot -0.134620
 4941         hc    171    bbb     H7   4941 0.04936100   1.008000   ; qtot -0.085259
 4942         hc    171    bbb     H8   4942 0.04936100   1.008000   ; qtot -0.035898
 4943         c3    171    bbb     C5   4943 0.11363000  12.010000   ; qtot 0.077732
 4944         hc    171    bbb     H9   4944 0.06265900   1.008000   ; qtot 0.140391
 4945         hc    171    bbb    H10   4945 0.06265900   1.008000   ; qtot 0.203050
 4946         c3    171    bbb     C6   4946 0.11363000  12.010000   ; qtot 0.316680
 4947         hc    171    bbb    H11   4947 0.06265900   1.008000   ; qtot 0.379339
 4948         hc    171    bbb    H12   4948 0.06265900   1.008000   ; qtot 0.441998
 4949         c3    171    bbb     C7   4949 0.05858200  12.010000   ; qtot 0.500580
 4950         h1    171    bbb    H13   4950 0.06123400   1.008000   ; qtot 0.561814
 4951         h1    171    bbb    H14   4951 0.06123400   1.008000   ; qtot 0.623048
 4952         c3    171    bbb     C8   4952 -0.72423400  12.010000   ; qtot -0.101186
 4953         h1    171    bbb    H15   4953 0.25637600   1.008000   ; qtot 0.155190
 4954         h1    171    bbb    H16   4954 0.25637600   1.008000   ; qtot 0.411566
 4955         c3    171    bbb     C9   4955 -0.72423400  12.010000   ; qtot -0.312668
 4956         h1    171    bbb    H17   4956 0.25637600   1.008000   ; qtot -0.056292
 4957         h1    171    bbb    H18   4957 0.25637600   1.008000   ; qtot 0.200084
 4958         os    171    bbb     O1   4958 -0.20025300  16.000000   ; qtot -0.000169
; residue  172 bbb rtp bbb q -0.0
 4959         n3    172    bbb     N1   4959 -0.59685800  14.010000   ; qtot -0.597027
 4960         c3    172    bbb     C1   4960 0.10137000  12.010000   ; qtot -0.495657
 4961         h1    172    bbb     H1   4961 0.04411300   1.008000   ; qtot -0.451544
 4962         h1    172    bbb     H2   4962 0.04411300   1.008000   ; qtot -0.407431
 4963         c3    172    bbb     C2   4963 0.10137000  12.010000   ; qtot -0.306061
 4964         h1    172    bbb     H3   4964 0.04411300   1.008000   ; qtot -0.261948
 4965         h1    172    bbb     H4   4965 0.04411300   1.008000   ; qtot -0.217835
 4966         c3    172    bbb     C3   4966 -0.00195300  12.010000   ; qtot -0.219788
 4967         h1    172    bbb     H5   4967 0.05064400   1.008000   ; qtot -0.169144
 4968         h1    172    bbb     H6   4968 0.05064400   1.008000   ; qtot -0.118500
 4969         c3    172    bbb     C4   4969 -0.01612100  12.010000   ; qtot -0.134621
 4970         hc    172    bbb     H7   4970 0.04936100   1.008000   ; qtot -0.085260
 4971         hc    172    bbb     H8   4971 0.04936100   1.008000   ; qtot -0.035899
 4972         c3    172    bbb     C5   4972 0.11363000  12.010000   ; qtot 0.077731
 4973         hc    172    bbb     H9   4973 0.06265900   1.008000   ; qtot 0.140390
 4974         hc    172    bbb    H10   4974 0.06265900   1.008000   ; qtot 0.203049
 4975         c3    172    bbb     C6   4975 0.11363000  12.010000   ; qtot 0.316679
 4976         hc    172    bbb    H11   4976 0.06265900   1.008000   ; qtot 0.379338
 4977         hc    172    bbb    H12   4977 0.06265900   1.008000   ; qtot 0.441997
 4978         c3    172    bbb     C7   4978 0.05858200  12.010000   ; qtot 0.500579
 4979         h1    172    bbb    H13   4979 0.06123400   1.008000   ; qtot 0.561813
 4980         h1    172    bbb    H14   4980 0.06123400   1.008000   ; qtot 0.623047
 4981         c3    172    bbb     C8   4981 -0.72423400  12.010000   ; qtot -0.101187
 4982         h1    172    bbb    H15   4982 0.25637600   1.008000   ; qtot 0.155189
 4983         h1    172    bbb    H16   4983 0.25637600   1.008000   ; qtot 0.411565
 4984         c3    172    bbb     C9   4984 -0.72423400  12.010000   ; qtot -0.312669
 4985         h1    172    bbb    H17   4985 0.25637600   1.008000   ; qtot -0.056293
 4986         h1    172    bbb    H18   4986 0.25637600   1.008000   ; qtot 0.200083
 4987         os    172    bbb     O1   4987 -0.20025300  16.000000   ; qtot -0.000170
; residue  173 bbb rtp bbb q -0.0
 4988         n3    173    bbb     N1   4988 -0.59685800  14.010000   ; qtot -0.597028
 4989         c3    173    bbb     C1   4989 0.10137000  12.010000   ; qtot -0.495658
 4990         h1    173    bbb     H1   4990 0.04411300   1.008000   ; qtot -0.451545
 4991         h1    173    bbb     H2   4991 0.04411300   1.008000   ; qtot -0.407432
 4992         c3    173    bbb     C2   4992 0.10137000  12.010000   ; qtot -0.306062
 4993         h1    173    bbb     H3   4993 0.04411300   1.008000   ; qtot -0.261949
 4994         h1    173    bbb     H4   4994 0.04411300   1.008000   ; qtot -0.217836
 4995         c3    173    bbb     C3   4995 -0.00195300  12.010000   ; qtot -0.219789
 4996         h1    173    bbb     H5   4996 0.05064400   1.008000   ; qtot -0.169145
 4997         h1    173    bbb     H6   4997 0.05064400   1.008000   ; qtot -0.118501
 4998         c3    173    bbb     C4   4998 -0.01612100  12.010000   ; qtot -0.134622
 4999         hc    173    bbb     H7   4999 0.04936100   1.008000   ; qtot -0.085261
 5000         hc    173    bbb     H8   5000 0.04936100   1.008000   ; qtot -0.035900
 5001         c3    173    bbb     C5   5001 0.11363000  12.010000   ; qtot 0.077730
 5002         hc    173    bbb     H9   5002 0.06265900   1.008000   ; qtot 0.140389
 5003         hc    173    bbb    H10   5003 0.06265900   1.008000   ; qtot 0.203048
 5004         c3    173    bbb     C6   5004 0.11363000  12.010000   ; qtot 0.316678
 5005         hc    173    bbb    H11   5005 0.06265900   1.008000   ; qtot 0.379337
 5006         hc    173    bbb    H12   5006 0.06265900   1.008000   ; qtot 0.441996
 5007         c3    173    bbb     C7   5007 0.05858200  12.010000   ; qtot 0.500578
 5008         h1    173    bbb    H13   5008 0.06123400   1.008000   ; qtot 0.561812
 5009         h1    173    bbb    H14   5009 0.06123400   1.008000   ; qtot 0.623046
 5010         c3    173    bbb     C8   5010 -0.72423400  12.010000   ; qtot -0.101188
 5011         h1    173    bbb    H15   5011 0.25637600   1.008000   ; qtot 0.155188
 5012         h1    173    bbb    H16   5012 0.25637600   1.008000   ; qtot 0.411564
 5013         c3    173    bbb     C9   5013 -0.72423400  12.010000   ; qtot -0.312670
 5014         h1    173    bbb    H17   5014 0.25637600   1.008000   ; qtot -0.056294
 5015         h1    173    bbb    H18   5015 0.25637600   1.008000   ; qtot 0.200082
 5016         os    173    bbb     O1   5016 -0.20025300  16.000000   ; qtot -0.000171
; residue  174 bbb rtp bbb q -0.0
 5017         n3    174    bbb     N1   5017 -0.59685800  14.010000   ; qtot -0.597029
 5018         c3    174    bbb     C1   5018 0.10137000  12.010000   ; qtot -0.495659
 5019         h1    174    bbb     H1   5019 0.04411300   1.008000   ; qtot -0.451546
 5020         h1    174    bbb     H2   5020 0.04411300   1.008000   ; qtot -0.407433
 5021         c3    174    bbb     C2   5021 0.10137000  12.010000   ; qtot -0.306063
 5022         h1    174    bbb     H3   5022 0.04411300   1.008000   ; qtot -0.261950
 5023         h1    174    bbb     H4   5023 0.04411300   1.008000   ; qtot -0.217837
 5024         c3    174    bbb     C3   5024 -0.00195300  12.010000   ; qtot -0.219790
 5025         h1    174    bbb     H5   5025 0.05064400   1.008000   ; qtot -0.169146
 5026         h1    174    bbb     H6   5026 0.05064400   1.008000   ; qtot -0.118502
 5027         c3    174    bbb     C4   5027 -0.01612100  12.010000   ; qtot -0.134623
 5028         hc    174    bbb     H7   5028 0.04936100   1.008000   ; qtot -0.085262
 5029         hc    174    bbb     H8   5029 0.04936100   1.008000   ; qtot -0.035901
 5030         c3    174    bbb     C5   5030 0.11363000  12.010000   ; qtot 0.077729
 5031         hc    174    bbb     H9   5031 0.06265900   1.008000   ; qtot 0.140388
 5032         hc    174    bbb    H10   5032 0.06265900   1.008000   ; qtot 0.203047
 5033         c3    174    bbb     C6   5033 0.11363000  12.010000   ; qtot 0.316677
 5034         hc    174    bbb    H11   5034 0.06265900   1.008000   ; qtot 0.379336
 5035         hc    174    bbb    H12   5035 0.06265900   1.008000   ; qtot 0.441995
 5036         c3    174    bbb     C7   5036 0.05858200  12.010000   ; qtot 0.500577
 5037         h1    174    bbb    H13   5037 0.06123400   1.008000   ; qtot 0.561811
 5038         h1    174    bbb    H14   5038 0.06123400   1.008000   ; qtot 0.623045
 5039         c3    174    bbb     C8   5039 -0.72423400  12.010000   ; qtot -0.101189
 5040         h1    174    bbb    H15   5040 0.25637600   1.008000   ; qtot 0.155187
 5041         h1    174    bbb    H16   5041 0.25637600   1.008000   ; qtot 0.411563
 5042         c3    174    bbb     C9   5042 -0.72423400  12.010000   ; qtot -0.312671
 5043         h1    174    bbb    H17   5043 0.25637600   1.008000   ; qtot -0.056295
 5044         h1    174    bbb    H18   5044 0.25637600   1.008000   ; qtot 0.200081
 5045         os    174    bbb     O1   5045 -0.20025300  16.000000   ; qtot -0.000172
; residue  175 bbb rtp bbb q -0.0
 5046         n3    175    bbb     N1   5046 -0.59685800  14.010000   ; qtot -0.597030
 5047         c3    175    bbb     C1   5047 0.10137000  12.010000   ; qtot -0.495660
 5048         h1    175    bbb     H1   5048 0.04411300   1.008000   ; qtot -0.451547
 5049         h1    175    bbb     H2   5049 0.04411300   1.008000   ; qtot -0.407434
 5050         c3    175    bbb     C2   5050 0.10137000  12.010000   ; qtot -0.306064
 5051         h1    175    bbb     H3   5051 0.04411300   1.008000   ; qtot -0.261951
 5052         h1    175    bbb     H4   5052 0.04411300   1.008000   ; qtot -0.217838
 5053         c3    175    bbb     C3   5053 -0.00195300  12.010000   ; qtot -0.219791
 5054         h1    175    bbb     H5   5054 0.05064400   1.008000   ; qtot -0.169147
 5055         h1    175    bbb     H6   5055 0.05064400   1.008000   ; qtot -0.118503
 5056         c3    175    bbb     C4   5056 -0.01612100  12.010000   ; qtot -0.134624
 5057         hc    175    bbb     H7   5057 0.04936100   1.008000   ; qtot -0.085263
 5058         hc    175    bbb     H8   5058 0.04936100   1.008000   ; qtot -0.035902
 5059         c3    175    bbb     C5   5059 0.11363000  12.010000   ; qtot 0.077728
 5060         hc    175    bbb     H9   5060 0.06265900   1.008000   ; qtot 0.140387
 5061         hc    175    bbb    H10   5061 0.06265900   1.008000   ; qtot 0.203046
 5062         c3    175    bbb     C6   5062 0.11363000  12.010000   ; qtot 0.316676
 5063         hc    175    bbb    H11   5063 0.06265900   1.008000   ; qtot 0.379335
 5064         hc    175    bbb    H12   5064 0.06265900   1.008000   ; qtot 0.441994
 5065         c3    175    bbb     C7   5065 0.05858200  12.010000   ; qtot 0.500576
 5066         h1    175    bbb    H13   5066 0.06123400   1.008000   ; qtot 0.561810
 5067         h1    175    bbb    H14   5067 0.06123400   1.008000   ; qtot 0.623044
 5068         c3    175    bbb     C8   5068 -0.72423400  12.010000   ; qtot -0.101190
 5069         h1    175    bbb    H15   5069 0.25637600   1.008000   ; qtot 0.155186
 5070         h1    175    bbb    H16   5070 0.25637600   1.008000   ; qtot 0.411562
 5071         c3    175    bbb     C9   5071 -0.72423400  12.010000   ; qtot -0.312672
 5072         h1    175    bbb    H17   5072 0.25637600   1.008000   ; qtot -0.056296
 5073         h1    175    bbb    H18   5073 0.25637600   1.008000   ; qtot 0.200080
 5074         os    175    bbb     O1   5074 -0.20025300  16.000000   ; qtot -0.000173
; residue  176 bbb rtp bbb q -0.0
 5075         n3    176    bbb     N1   5075 -0.59685800  14.010000   ; qtot -0.597031
 5076         c3    176    bbb     C1   5076 0.10137000  12.010000   ; qtot -0.495661
 5077         h1    176    bbb     H1   5077 0.04411300   1.008000   ; qtot -0.451548
 5078         h1    176    bbb     H2   5078 0.04411300   1.008000   ; qtot -0.407435
 5079         c3    176    bbb     C2   5079 0.10137000  12.010000   ; qtot -0.306065
 5080         h1    176    bbb     H3   5080 0.04411300   1.008000   ; qtot -0.261952
 5081         h1    176    bbb     H4   5081 0.04411300   1.008000   ; qtot -0.217839
 5082         c3    176    bbb     C3   5082 -0.00195300  12.010000   ; qtot -0.219792
 5083         h1    176    bbb     H5   5083 0.05064400   1.008000   ; qtot -0.169148
 5084         h1    176    bbb     H6   5084 0.05064400   1.008000   ; qtot -0.118504
 5085         c3    176    bbb     C4   5085 -0.01612100  12.010000   ; qtot -0.134625
 5086         hc    176    bbb     H7   5086 0.04936100   1.008000   ; qtot -0.085264
 5087         hc    176    bbb     H8   5087 0.04936100   1.008000   ; qtot -0.035903
 5088         c3    176    bbb     C5   5088 0.11363000  12.010000   ; qtot 0.077727
 5089         hc    176    bbb     H9   5089 0.06265900   1.008000   ; qtot 0.140386
 5090         hc    176    bbb    H10   5090 0.06265900   1.008000   ; qtot 0.203045
 5091         c3    176    bbb     C6   5091 0.11363000  12.010000   ; qtot 0.316675
 5092         hc    176    bbb    H11   5092 0.06265900   1.008000   ; qtot 0.379334
 5093         hc    176    bbb    H12   5093 0.06265900   1.008000   ; qtot 0.441993
 5094         c3    176    bbb     C7   5094 0.05858200  12.010000   ; qtot 0.500575
 5095         h1    176    bbb    H13   5095 0.06123400   1.008000   ; qtot 0.561809
 5096         h1    176    bbb    H14   5096 0.06123400   1.008000   ; qtot 0.623043
 5097         c3    176    bbb     C8   5097 -0.72423400  12.010000   ; qtot -0.101191
 5098         h1    176    bbb    H15   5098 0.25637600   1.008000   ; qtot 0.155185
 5099         h1    176    bbb    H16   5099 0.25637600   1.008000   ; qtot 0.411561
 5100         c3    176    bbb     C9   5100 -0.72423400  12.010000   ; qtot -0.312673
 5101         h1    176    bbb    H17   5101 0.25637600   1.008000   ; qtot -0.056297
 5102         h1    176    bbb    H18   5102 0.25637600   1.008000   ; qtot 0.200079
 5103         os    176    bbb     O1   5103 -0.20025300  16.000000   ; qtot -0.000174
; residue  177 bbb rtp bbb q -0.0
 5104         n3    177    bbb     N1   5104 -0.59685800  14.010000   ; qtot -0.597032
 5105         c3    177    bbb     C1   5105 0.10137000  12.010000   ; qtot -0.495662
 5106         h1    177    bbb     H1   5106 0.04411300   1.008000   ; qtot -0.451549
 5107         h1    177    bbb     H2   5107 0.04411300   1.008000   ; qtot -0.407436
 5108         c3    177    bbb     C2   5108 0.10137000  12.010000   ; qtot -0.306066
 5109         h1    177    bbb     H3   5109 0.04411300   1.008000   ; qtot -0.261953
 5110         h1    177    bbb     H4   5110 0.04411300   1.008000   ; qtot -0.217840
 5111         c3    177    bbb     C3   5111 -0.00195300  12.010000   ; qtot -0.219793
 5112         h1    177    bbb     H5   5112 0.05064400   1.008000   ; qtot -0.169149
 5113         h1    177    bbb     H6   5113 0.05064400   1.008000   ; qtot -0.118505
 5114         c3    177    bbb     C4   5114 -0.01612100  12.010000   ; qtot -0.134626
 5115         hc    177    bbb     H7   5115 0.04936100   1.008000   ; qtot -0.085265
 5116         hc    177    bbb     H8   5116 0.04936100   1.008000   ; qtot -0.035904
 5117         c3    177    bbb     C5   5117 0.11363000  12.010000   ; qtot 0.077726
 5118         hc    177    bbb     H9   5118 0.06265900   1.008000   ; qtot 0.140385
 5119         hc    177    bbb    H10   5119 0.06265900   1.008000   ; qtot 0.203044
 5120         c3    177    bbb     C6   5120 0.11363000  12.010000   ; qtot 0.316674
 5121         hc    177    bbb    H11   5121 0.06265900   1.008000   ; qtot 0.379333
 5122         hc    177    bbb    H12   5122 0.06265900   1.008000   ; qtot 0.441992
 5123         c3    177    bbb     C7   5123 0.05858200  12.010000   ; qtot 0.500574
 5124         h1    177    bbb    H13   5124 0.06123400   1.008000   ; qtot 0.561808
 5125         h1    177    bbb    H14   5125 0.06123400   1.008000   ; qtot 0.623042
 5126         c3    177    bbb     C8   5126 -0.72423400  12.010000   ; qtot -0.101192
 5127         h1    177    bbb    H15   5127 0.25637600   1.008000   ; qtot 0.155184
 5128         h1    177    bbb    H16   5128 0.25637600   1.008000   ; qtot 0.411560
 5129         c3    177    bbb     C9   5129 -0.72423400  12.010000   ; qtot -0.312674
 5130         h1    177    bbb    H17   5130 0.25637600   1.008000   ; qtot -0.056298
 5131         h1    177    bbb    H18   5131 0.25637600   1.008000   ; qtot 0.200078
 5132         os    177    bbb     O1   5132 -0.20025300  16.000000   ; qtot -0.000175
; residue  178 bbb rtp bbb q -0.0
 5133         n3    178    bbb     N1   5133 -0.59685800  14.010000   ; qtot -0.597033
 5134         c3    178    bbb     C1   5134 0.10137000  12.010000   ; qtot -0.495663
 5135         h1    178    bbb     H1   5135 0.04411300   1.008000   ; qtot -0.451550
 5136         h1    178    bbb     H2   5136 0.04411300   1.008000   ; qtot -0.407437
 5137         c3    178    bbb     C2   5137 0.10137000  12.010000   ; qtot -0.306067
 5138         h1    178    bbb     H3   5138 0.04411300   1.008000   ; qtot -0.261954
 5139         h1    178    bbb     H4   5139 0.04411300   1.008000   ; qtot -0.217841
 5140         c3    178    bbb     C3   5140 -0.00195300  12.010000   ; qtot -0.219794
 5141         h1    178    bbb     H5   5141 0.05064400   1.008000   ; qtot -0.169150
 5142         h1    178    bbb     H6   5142 0.05064400   1.008000   ; qtot -0.118506
 5143         c3    178    bbb     C4   5143 -0.01612100  12.010000   ; qtot -0.134627
 5144         hc    178    bbb     H7   5144 0.04936100   1.008000   ; qtot -0.085266
 5145         hc    178    bbb     H8   5145 0.04936100   1.008000   ; qtot -0.035905
 5146         c3    178    bbb     C5   5146 0.11363000  12.010000   ; qtot 0.077725
 5147         hc    178    bbb     H9   5147 0.06265900   1.008000   ; qtot 0.140384
 5148         hc    178    bbb    H10   5148 0.06265900   1.008000   ; qtot 0.203043
 5149         c3    178    bbb     C6   5149 0.11363000  12.010000   ; qtot 0.316673
 5150         hc    178    bbb    H11   5150 0.06265900   1.008000   ; qtot 0.379332
 5151         hc    178    bbb    H12   5151 0.06265900   1.008000   ; qtot 0.441991
 5152         c3    178    bbb     C7   5152 0.05858200  12.010000   ; qtot 0.500573
 5153         h1    178    bbb    H13   5153 0.06123400   1.008000   ; qtot 0.561807
 5154         h1    178    bbb    H14   5154 0.06123400   1.008000   ; qtot 0.623041
 5155         c3    178    bbb     C8   5155 -0.72423400  12.010000   ; qtot -0.101193
 5156         h1    178    bbb    H15   5156 0.25637600   1.008000   ; qtot 0.155183
 5157         h1    178    bbb    H16   5157 0.25637600   1.008000   ; qtot 0.411559
 5158         c3    178    bbb     C9   5158 -0.72423400  12.010000   ; qtot -0.312675
 5159         h1    178    bbb    H17   5159 0.25637600   1.008000   ; qtot -0.056299
 5160         h1    178    bbb    H18   5160 0.25637600   1.008000   ; qtot 0.200077
 5161         os    178    bbb     O1   5161 -0.20025300  16.000000   ; qtot -0.000176
; residue  179 bbb rtp bbb q -0.0
 5162         n3    179    bbb     N1   5162 -0.59685800  14.010000   ; qtot -0.597034
 5163         c3    179    bbb     C1   5163 0.10137000  12.010000   ; qtot -0.495664
 5164         h1    179    bbb     H1   5164 0.04411300   1.008000   ; qtot -0.451551
 5165         h1    179    bbb     H2   5165 0.04411300   1.008000   ; qtot -0.407438
 5166         c3    179    bbb     C2   5166 0.10137000  12.010000   ; qtot -0.306068
 5167         h1    179    bbb     H3   5167 0.04411300   1.008000   ; qtot -0.261955
 5168         h1    179    bbb     H4   5168 0.04411300   1.008000   ; qtot -0.217842
 5169         c3    179    bbb     C3   5169 -0.00195300  12.010000   ; qtot -0.219795
 5170         h1    179    bbb     H5   5170 0.05064400   1.008000   ; qtot -0.169151
 5171         h1    179    bbb     H6   5171 0.05064400   1.008000   ; qtot -0.118507
 5172         c3    179    bbb     C4   5172 -0.01612100  12.010000   ; qtot -0.134628
 5173         hc    179    bbb     H7   5173 0.04936100   1.008000   ; qtot -0.085267
 5174         hc    179    bbb     H8   5174 0.04936100   1.008000   ; qtot -0.035906
 5175         c3    179    bbb     C5   5175 0.11363000  12.010000   ; qtot 0.077724
 5176         hc    179    bbb     H9   5176 0.06265900   1.008000   ; qtot 0.140383
 5177         hc    179    bbb    H10   5177 0.06265900   1.008000   ; qtot 0.203042
 5178         c3    179    bbb     C6   5178 0.11363000  12.010000   ; qtot 0.316672
 5179         hc    179    bbb    H11   5179 0.06265900   1.008000   ; qtot 0.379331
 5180         hc    179    bbb    H12   5180 0.06265900   1.008000   ; qtot 0.441990
 5181         c3    179    bbb     C7   5181 0.05858200  12.010000   ; qtot 0.500572
 5182         h1    179    bbb    H13   5182 0.06123400   1.008000   ; qtot 0.561806
 5183         h1    179    bbb    H14   5183 0.06123400   1.008000   ; qtot 0.623040
 5184         c3    179    bbb     C8   5184 -0.72423400  12.010000   ; qtot -0.101194
 5185         h1    179    bbb    H15   5185 0.25637600   1.008000   ; qtot 0.155182
 5186         h1    179    bbb    H16   5186 0.25637600   1.008000   ; qtot 0.411558
 5187         c3    179    bbb     C9   5187 -0.72423400  12.010000   ; qtot -0.312676
 5188         h1    179    bbb    H17   5188 0.25637600   1.008000   ; qtot -0.056300
 5189         h1    179    bbb    H18   5189 0.25637600   1.008000   ; qtot 0.200076
 5190         os    179    bbb     O1   5190 -0.20025300  16.000000   ; qtot -0.000177
; residue  180 bbb rtp bbb q -0.0
 5191         n3    180    bbb     N1   5191 -0.59685800  14.010000   ; qtot -0.597035
 5192         c3    180    bbb     C1   5192 0.10137000  12.010000   ; qtot -0.495665
 5193         h1    180    bbb     H1   5193 0.04411300   1.008000   ; qtot -0.451552
 5194         h1    180    bbb     H2   5194 0.04411300   1.008000   ; qtot -0.407439
 5195         c3    180    bbb     C2   5195 0.10137000  12.010000   ; qtot -0.306069
 5196         h1    180    bbb     H3   5196 0.04411300   1.008000   ; qtot -0.261956
 5197         h1    180    bbb     H4   5197 0.04411300   1.008000   ; qtot -0.217843
 5198         c3    180    bbb     C3   5198 -0.00195300  12.010000   ; qtot -0.219796
 5199         h1    180    bbb     H5   5199 0.05064400   1.008000   ; qtot -0.169152
 5200         h1    180    bbb     H6   5200 0.05064400   1.008000   ; qtot -0.118508
 5201         c3    180    bbb     C4   5201 -0.01612100  12.010000   ; qtot -0.134629
 5202         hc    180    bbb     H7   5202 0.04936100   1.008000   ; qtot -0.085268
 5203         hc    180    bbb     H8   5203 0.04936100   1.008000   ; qtot -0.035907
 5204         c3    180    bbb     C5   5204 0.11363000  12.010000   ; qtot 0.077723
 5205         hc    180    bbb     H9   5205 0.06265900   1.008000   ; qtot 0.140382
 5206         hc    180    bbb    H10   5206 0.06265900   1.008000   ; qtot 0.203041
 5207         c3    180    bbb     C6   5207 0.11363000  12.010000   ; qtot 0.316671
 5208         hc    180    bbb    H11   5208 0.06265900   1.008000   ; qtot 0.379330
 5209         hc    180    bbb    H12   5209 0.06265900   1.008000   ; qtot 0.441989
 5210         c3    180    bbb     C7   5210 0.05858200  12.010000   ; qtot 0.500571
 5211         h1    180    bbb    H13   5211 0.06123400   1.008000   ; qtot 0.561805
 5212         h1    180    bbb    H14   5212 0.06123400   1.008000   ; qtot 0.623039
 5213         c3    180    bbb     C8   5213 -0.72423400  12.010000   ; qtot -0.101195
 5214         h1    180    bbb    H15   5214 0.25637600   1.008000   ; qtot 0.155181
 5215         h1    180    bbb    H16   5215 0.25637600   1.008000   ; qtot 0.411557
 5216         c3    180    bbb     C9   5216 -0.72423400  12.010000   ; qtot -0.312677
 5217         h1    180    bbb    H17   5217 0.25637600   1.008000   ; qtot -0.056301
 5218         h1    180    bbb    H18   5218 0.25637600   1.008000   ; qtot 0.200075
 5219         os    180    bbb     O1   5219 -0.20025300  16.000000   ; qtot -0.000178
; residue  181 bbb rtp bbb q -0.0
 5220         n3    181    bbb     N1   5220 -0.59685800  14.010000   ; qtot -0.597036
 5221         c3    181    bbb     C1   5221 0.10137000  12.010000   ; qtot -0.495666
 5222         h1    181    bbb     H1   5222 0.04411300   1.008000   ; qtot -0.451553
 5223         h1    181    bbb     H2   5223 0.04411300   1.008000   ; qtot -0.407440
 5224         c3    181    bbb     C2   5224 0.10137000  12.010000   ; qtot -0.306070
 5225         h1    181    bbb     H3   5225 0.04411300   1.008000   ; qtot -0.261957
 5226         h1    181    bbb     H4   5226 0.04411300   1.008000   ; qtot -0.217844
 5227         c3    181    bbb     C3   5227 -0.00195300  12.010000   ; qtot -0.219797
 5228         h1    181    bbb     H5   5228 0.05064400   1.008000   ; qtot -0.169153
 5229         h1    181    bbb     H6   5229 0.05064400   1.008000   ; qtot -0.118509
 5230         c3    181    bbb     C4   5230 -0.01612100  12.010000   ; qtot -0.134630
 5231         hc    181    bbb     H7   5231 0.04936100   1.008000   ; qtot -0.085269
 5232         hc    181    bbb     H8   5232 0.04936100   1.008000   ; qtot -0.035908
 5233         c3    181    bbb     C5   5233 0.11363000  12.010000   ; qtot 0.077722
 5234         hc    181    bbb     H9   5234 0.06265900   1.008000   ; qtot 0.140381
 5235         hc    181    bbb    H10   5235 0.06265900   1.008000   ; qtot 0.203040
 5236         c3    181    bbb     C6   5236 0.11363000  12.010000   ; qtot 0.316670
 5237         hc    181    bbb    H11   5237 0.06265900   1.008000   ; qtot 0.379329
 5238         hc    181    bbb    H12   5238 0.06265900   1.008000   ; qtot 0.441988
 5239         c3    181    bbb     C7   5239 0.05858200  12.010000   ; qtot 0.500570
 5240         h1    181    bbb    H13   5240 0.06123400   1.008000   ; qtot 0.561804
 5241         h1    181    bbb    H14   5241 0.06123400   1.008000   ; qtot 0.623038
 5242         c3    181    bbb     C8   5242 -0.72423400  12.010000   ; qtot -0.101196
 5243         h1    181    bbb    H15   5243 0.25637600   1.008000   ; qtot 0.155180
 5244         h1    181    bbb    H16   5244 0.25637600   1.008000   ; qtot 0.411556
 5245         c3    181    bbb     C9   5245 -0.72423400  12.010000   ; qtot -0.312678
 5246         h1    181    bbb    H17   5246 0.25637600   1.008000   ; qtot -0.056302
 5247         h1    181    bbb    H18   5247 0.25637600   1.008000   ; qtot 0.200074
 5248         os    181    bbb     O1   5248 -0.20025300  16.000000   ; qtot -0.000179
; residue  182 bbb rtp bbb q -0.0
 5249         n3    182    bbb     N1   5249 -0.59685800  14.010000   ; qtot -0.597037
 5250         c3    182    bbb     C1   5250 0.10137000  12.010000   ; qtot -0.495667
 5251         h1    182    bbb     H1   5251 0.04411300   1.008000   ; qtot -0.451554
 5252         h1    182    bbb     H2   5252 0.04411300   1.008000   ; qtot -0.407441
 5253         c3    182    bbb     C2   5253 0.10137000  12.010000   ; qtot -0.306071
 5254         h1    182    bbb     H3   5254 0.04411300   1.008000   ; qtot -0.261958
 5255         h1    182    bbb     H4   5255 0.04411300   1.008000   ; qtot -0.217845
 5256         c3    182    bbb     C3   5256 -0.00195300  12.010000   ; qtot -0.219798
 5257         h1    182    bbb     H5   5257 0.05064400   1.008000   ; qtot -0.169154
 5258         h1    182    bbb     H6   5258 0.05064400   1.008000   ; qtot -0.118510
 5259         c3    182    bbb     C4   5259 -0.01612100  12.010000   ; qtot -0.134631
 5260         hc    182    bbb     H7   5260 0.04936100   1.008000   ; qtot -0.085270
 5261         hc    182    bbb     H8   5261 0.04936100   1.008000   ; qtot -0.035909
 5262         c3    182    bbb     C5   5262 0.11363000  12.010000   ; qtot 0.077721
 5263         hc    182    bbb     H9   5263 0.06265900   1.008000   ; qtot 0.140380
 5264         hc    182    bbb    H10   5264 0.06265900   1.008000   ; qtot 0.203039
 5265         c3    182    bbb     C6   5265 0.11363000  12.010000   ; qtot 0.316669
 5266         hc    182    bbb    H11   5266 0.06265900   1.008000   ; qtot 0.379328
 5267         hc    182    bbb    H12   5267 0.06265900   1.008000   ; qtot 0.441987
 5268         c3    182    bbb     C7   5268 0.05858200  12.010000   ; qtot 0.500569
 5269         h1    182    bbb    H13   5269 0.06123400   1.008000   ; qtot 0.561803
 5270         h1    182    bbb    H14   5270 0.06123400   1.008000   ; qtot 0.623037
 5271         c3    182    bbb     C8   5271 -0.72423400  12.010000   ; qtot -0.101197
 5272         h1    182    bbb    H15   5272 0.25637600   1.008000   ; qtot 0.155179
 5273         h1    182    bbb    H16   5273 0.25637600   1.008000   ; qtot 0.411555
 5274         c3    182    bbb     C9   5274 -0.72423400  12.010000   ; qtot -0.312679
 5275         h1    182    bbb    H17   5275 0.25637600   1.008000   ; qtot -0.056303
 5276         h1    182    bbb    H18   5276 0.25637600   1.008000   ; qtot 0.200073
 5277         os    182    bbb     O1   5277 -0.20025300  16.000000   ; qtot -0.000180
; residue  183 bbb rtp bbb q -0.0
 5278         n3    183    bbb     N1   5278 -0.59685800  14.010000   ; qtot -0.597038
 5279         c3    183    bbb     C1   5279 0.10137000  12.010000   ; qtot -0.495668
 5280         h1    183    bbb     H1   5280 0.04411300   1.008000   ; qtot -0.451555
 5281         h1    183    bbb     H2   5281 0.04411300   1.008000   ; qtot -0.407442
 5282         c3    183    bbb     C2   5282 0.10137000  12.010000   ; qtot -0.306072
 5283         h1    183    bbb     H3   5283 0.04411300   1.008000   ; qtot -0.261959
 5284         h1    183    bbb     H4   5284 0.04411300   1.008000   ; qtot -0.217846
 5285         c3    183    bbb     C3   5285 -0.00195300  12.010000   ; qtot -0.219799
 5286         h1    183    bbb     H5   5286 0.05064400   1.008000   ; qtot -0.169155
 5287         h1    183    bbb     H6   5287 0.05064400   1.008000   ; qtot -0.118511
 5288         c3    183    bbb     C4   5288 -0.01612100  12.010000   ; qtot -0.134632
 5289         hc    183    bbb     H7   5289 0.04936100   1.008000   ; qtot -0.085271
 5290         hc    183    bbb     H8   5290 0.04936100   1.008000   ; qtot -0.035910
 5291         c3    183    bbb     C5   5291 0.11363000  12.010000   ; qtot 0.077720
 5292         hc    183    bbb     H9   5292 0.06265900   1.008000   ; qtot 0.140379
 5293         hc    183    bbb    H10   5293 0.06265900   1.008000   ; qtot 0.203038
 5294         c3    183    bbb     C6   5294 0.11363000  12.010000   ; qtot 0.316668
 5295         hc    183    bbb    H11   5295 0.06265900   1.008000   ; qtot 0.379327
 5296         hc    183    bbb    H12   5296 0.06265900   1.008000   ; qtot 0.441986
 5297         c3    183    bbb     C7   5297 0.05858200  12.010000   ; qtot 0.500568
 5298         h1    183    bbb    H13   5298 0.06123400   1.008000   ; qtot 0.561802
 5299         h1    183    bbb    H14   5299 0.06123400   1.008000   ; qtot 0.623036
 5300         c3    183    bbb     C8   5300 -0.72423400  12.010000   ; qtot -0.101198
 5301         h1    183    bbb    H15   5301 0.25637600   1.008000   ; qtot 0.155178
 5302         h1    183    bbb    H16   5302 0.25637600   1.008000   ; qtot 0.411554
 5303         c3    183    bbb     C9   5303 -0.72423400  12.010000   ; qtot -0.312680
 5304         h1    183    bbb    H17   5304 0.25637600   1.008000   ; qtot -0.056304
 5305         h1    183    bbb    H18   5305 0.25637600   1.008000   ; qtot 0.200072
 5306         os    183    bbb     O1   5306 -0.20025300  16.000000   ; qtot -0.000181
; residue  184 bbb rtp bbb q -0.0
 5307         n3    184    bbb     N1   5307 -0.59685800  14.010000   ; qtot -0.597039
 5308         c3    184    bbb     C1   5308 0.10137000  12.010000   ; qtot -0.495669
 5309         h1    184    bbb     H1   5309 0.04411300   1.008000   ; qtot -0.451556
 5310         h1    184    bbb     H2   5310 0.04411300   1.008000   ; qtot -0.407443
 5311         c3    184    bbb     C2   5311 0.10137000  12.010000   ; qtot -0.306073
 5312         h1    184    bbb     H3   5312 0.04411300   1.008000   ; qtot -0.261960
 5313         h1    184    bbb     H4   5313 0.04411300   1.008000   ; qtot -0.217847
 5314         c3    184    bbb     C3   5314 -0.00195300  12.010000   ; qtot -0.219800
 5315         h1    184    bbb     H5   5315 0.05064400   1.008000   ; qtot -0.169156
 5316         h1    184    bbb     H6   5316 0.05064400   1.008000   ; qtot -0.118512
 5317         c3    184    bbb     C4   5317 -0.01612100  12.010000   ; qtot -0.134633
 5318         hc    184    bbb     H7   5318 0.04936100   1.008000   ; qtot -0.085272
 5319         hc    184    bbb     H8   5319 0.04936100   1.008000   ; qtot -0.035911
 5320         c3    184    bbb     C5   5320 0.11363000  12.010000   ; qtot 0.077719
 5321         hc    184    bbb     H9   5321 0.06265900   1.008000   ; qtot 0.140378
 5322         hc    184    bbb    H10   5322 0.06265900   1.008000   ; qtot 0.203037
 5323         c3    184    bbb     C6   5323 0.11363000  12.010000   ; qtot 0.316667
 5324         hc    184    bbb    H11   5324 0.06265900   1.008000   ; qtot 0.379326
 5325         hc    184    bbb    H12   5325 0.06265900   1.008000   ; qtot 0.441985
 5326         c3    184    bbb     C7   5326 0.05858200  12.010000   ; qtot 0.500567
 5327         h1    184    bbb    H13   5327 0.06123400   1.008000   ; qtot 0.561801
 5328         h1    184    bbb    H14   5328 0.06123400   1.008000   ; qtot 0.623035
 5329         c3    184    bbb     C8   5329 -0.72423400  12.010000   ; qtot -0.101199
 5330         h1    184    bbb    H15   5330 0.25637600   1.008000   ; qtot 0.155177
 5331         h1    184    bbb    H16   5331 0.25637600   1.008000   ; qtot 0.411553
 5332         c3    184    bbb     C9   5332 -0.72423400  12.010000   ; qtot -0.312681
 5333         h1    184    bbb    H17   5333 0.25637600   1.008000   ; qtot -0.056305
 5334         h1    184    bbb    H18   5334 0.25637600   1.008000   ; qtot 0.200071
 5335         os    184    bbb     O1   5335 -0.20025300  16.000000   ; qtot -0.000182
; residue  185 bbb rtp bbb q -0.0
 5336         n3    185    bbb     N1   5336 -0.59685800  14.010000   ; qtot -0.597040
 5337         c3    185    bbb     C1   5337 0.10137000  12.010000   ; qtot -0.495670
 5338         h1    185    bbb     H1   5338 0.04411300   1.008000   ; qtot -0.451557
 5339         h1    185    bbb     H2   5339 0.04411300   1.008000   ; qtot -0.407444
 5340         c3    185    bbb     C2   5340 0.10137000  12.010000   ; qtot -0.306074
 5341         h1    185    bbb     H3   5341 0.04411300   1.008000   ; qtot -0.261961
 5342         h1    185    bbb     H4   5342 0.04411300   1.008000   ; qtot -0.217848
 5343         c3    185    bbb     C3   5343 -0.00195300  12.010000   ; qtot -0.219801
 5344         h1    185    bbb     H5   5344 0.05064400   1.008000   ; qtot -0.169157
 5345         h1    185    bbb     H6   5345 0.05064400   1.008000   ; qtot -0.118513
 5346         c3    185    bbb     C4   5346 -0.01612100  12.010000   ; qtot -0.134634
 5347         hc    185    bbb     H7   5347 0.04936100   1.008000   ; qtot -0.085273
 5348         hc    185    bbb     H8   5348 0.04936100   1.008000   ; qtot -0.035912
 5349         c3    185    bbb     C5   5349 0.11363000  12.010000   ; qtot 0.077718
 5350         hc    185    bbb     H9   5350 0.06265900   1.008000   ; qtot 0.140377
 5351         hc    185    bbb    H10   5351 0.06265900   1.008000   ; qtot 0.203036
 5352         c3    185    bbb     C6   5352 0.11363000  12.010000   ; qtot 0.316666
 5353         hc    185    bbb    H11   5353 0.06265900   1.008000   ; qtot 0.379325
 5354         hc    185    bbb    H12   5354 0.06265900   1.008000   ; qtot 0.441984
 5355         c3    185    bbb     C7   5355 0.05858200  12.010000   ; qtot 0.500566
 5356         h1    185    bbb    H13   5356 0.06123400   1.008000   ; qtot 0.561800
 5357         h1    185    bbb    H14   5357 0.06123400   1.008000   ; qtot 0.623034
 5358         c3    185    bbb     C8   5358 -0.72423400  12.010000   ; qtot -0.101200
 5359         h1    185    bbb    H15   5359 0.25637600   1.008000   ; qtot 0.155176
 5360         h1    185    bbb    H16   5360 0.25637600   1.008000   ; qtot 0.411552
 5361         c3    185    bbb     C9   5361 -0.72423400  12.010000   ; qtot -0.312682
 5362         h1    185    bbb    H17   5362 0.25637600   1.008000   ; qtot -0.056306
 5363         h1    185    bbb    H18   5363 0.25637600   1.008000   ; qtot 0.200070
 5364         os    185    bbb     O1   5364 -0.20025300  16.000000   ; qtot -0.000183
; residue  186 bbb rtp bbb q -0.0
 5365         n3    186    bbb     N1   5365 -0.59685800  14.010000   ; qtot -0.597041
 5366         c3    186    bbb     C1   5366 0.10137000  12.010000   ; qtot -0.495671
 5367         h1    186    bbb     H1   5367 0.04411300   1.008000   ; qtot -0.451558
 5368         h1    186    bbb     H2   5368 0.04411300   1.008000   ; qtot -0.407445
 5369         c3    186    bbb     C2   5369 0.10137000  12.010000   ; qtot -0.306075
 5370         h1    186    bbb     H3   5370 0.04411300   1.008000   ; qtot -0.261962
 5371         h1    186    bbb     H4   5371 0.04411300   1.008000   ; qtot -0.217849
 5372         c3    186    bbb     C3   5372 -0.00195300  12.010000   ; qtot -0.219802
 5373         h1    186    bbb     H5   5373 0.05064400   1.008000   ; qtot -0.169158
 5374         h1    186    bbb     H6   5374 0.05064400   1.008000   ; qtot -0.118514
 5375         c3    186    bbb     C4   5375 -0.01612100  12.010000   ; qtot -0.134635
 5376         hc    186    bbb     H7   5376 0.04936100   1.008000   ; qtot -0.085274
 5377         hc    186    bbb     H8   5377 0.04936100   1.008000   ; qtot -0.035913
 5378         c3    186    bbb     C5   5378 0.11363000  12.010000   ; qtot 0.077717
 5379         hc    186    bbb     H9   5379 0.06265900   1.008000   ; qtot 0.140376
 5380         hc    186    bbb    H10   5380 0.06265900   1.008000   ; qtot 0.203035
 5381         c3    186    bbb     C6   5381 0.11363000  12.010000   ; qtot 0.316665
 5382         hc    186    bbb    H11   5382 0.06265900   1.008000   ; qtot 0.379324
 5383         hc    186    bbb    H12   5383 0.06265900   1.008000   ; qtot 0.441983
 5384         c3    186    bbb     C7   5384 0.05858200  12.010000   ; qtot 0.500565
 5385         h1    186    bbb    H13   5385 0.06123400   1.008000   ; qtot 0.561799
 5386         h1    186    bbb    H14   5386 0.06123400   1.008000   ; qtot 0.623033
 5387         c3    186    bbb     C8   5387 -0.72423400  12.010000   ; qtot -0.101201
 5388         h1    186    bbb    H15   5388 0.25637600   1.008000   ; qtot 0.155175
 5389         h1    186    bbb    H16   5389 0.25637600   1.008000   ; qtot 0.411551
 5390         c3    186    bbb     C9   5390 -0.72423400  12.010000   ; qtot -0.312683
 5391         h1    186    bbb    H17   5391 0.25637600   1.008000   ; qtot -0.056307
 5392         h1    186    bbb    H18   5392 0.25637600   1.008000   ; qtot 0.200069
 5393         os    186    bbb     O1   5393 -0.20025300  16.000000   ; qtot -0.000184
; residue  187 bbb rtp bbb q -0.0
 5394         n3    187    bbb     N1   5394 -0.59685800  14.010000   ; qtot -0.597042
 5395         c3    187    bbb     C1   5395 0.10137000  12.010000   ; qtot -0.495672
 5396         h1    187    bbb     H1   5396 0.04411300   1.008000   ; qtot -0.451559
 5397         h1    187    bbb     H2   5397 0.04411300   1.008000   ; qtot -0.407446
 5398         c3    187    bbb     C2   5398 0.10137000  12.010000   ; qtot -0.306076
 5399         h1    187    bbb     H3   5399 0.04411300   1.008000   ; qtot -0.261963
 5400         h1    187    bbb     H4   5400 0.04411300   1.008000   ; qtot -0.217850
 5401         c3    187    bbb     C3   5401 -0.00195300  12.010000   ; qtot -0.219803
 5402         h1    187    bbb     H5   5402 0.05064400   1.008000   ; qtot -0.169159
 5403         h1    187    bbb     H6   5403 0.05064400   1.008000   ; qtot -0.118515
 5404         c3    187    bbb     C4   5404 -0.01612100  12.010000   ; qtot -0.134636
 5405         hc    187    bbb     H7   5405 0.04936100   1.008000   ; qtot -0.085275
 5406         hc    187    bbb     H8   5406 0.04936100   1.008000   ; qtot -0.035914
 5407         c3    187    bbb     C5   5407 0.11363000  12.010000   ; qtot 0.077716
 5408         hc    187    bbb     H9   5408 0.06265900   1.008000   ; qtot 0.140375
 5409         hc    187    bbb    H10   5409 0.06265900   1.008000   ; qtot 0.203034
 5410         c3    187    bbb     C6   5410 0.11363000  12.010000   ; qtot 0.316664
 5411         hc    187    bbb    H11   5411 0.06265900   1.008000   ; qtot 0.379323
 5412         hc    187    bbb    H12   5412 0.06265900   1.008000   ; qtot 0.441982
 5413         c3    187    bbb     C7   5413 0.05858200  12.010000   ; qtot 0.500564
 5414         h1    187    bbb    H13   5414 0.06123400   1.008000   ; qtot 0.561798
 5415         h1    187    bbb    H14   5415 0.06123400   1.008000   ; qtot 0.623032
 5416         c3    187    bbb     C8   5416 -0.72423400  12.010000   ; qtot -0.101202
 5417         h1    187    bbb    H15   5417 0.25637600   1.008000   ; qtot 0.155174
 5418         h1    187    bbb    H16   5418 0.25637600   1.008000   ; qtot 0.411550
 5419         c3    187    bbb     C9   5419 -0.72423400  12.010000   ; qtot -0.312684
 5420         h1    187    bbb    H17   5420 0.25637600   1.008000   ; qtot -0.056308
 5421         h1    187    bbb    H18   5421 0.25637600   1.008000   ; qtot 0.200068
 5422         os    187    bbb     O1   5422 -0.20025300  16.000000   ; qtot -0.000185
; residue  188 bbb rtp bbb q -0.0
 5423         n3    188    bbb     N1   5423 -0.59685800  14.010000   ; qtot -0.597043
 5424         c3    188    bbb     C1   5424 0.10137000  12.010000   ; qtot -0.495673
 5425         h1    188    bbb     H1   5425 0.04411300   1.008000   ; qtot -0.451560
 5426         h1    188    bbb     H2   5426 0.04411300   1.008000   ; qtot -0.407447
 5427         c3    188    bbb     C2   5427 0.10137000  12.010000   ; qtot -0.306077
 5428         h1    188    bbb     H3   5428 0.04411300   1.008000   ; qtot -0.261964
 5429         h1    188    bbb     H4   5429 0.04411300   1.008000   ; qtot -0.217851
 5430         c3    188    bbb     C3   5430 -0.00195300  12.010000   ; qtot -0.219804
 5431         h1    188    bbb     H5   5431 0.05064400   1.008000   ; qtot -0.169160
 5432         h1    188    bbb     H6   5432 0.05064400   1.008000   ; qtot -0.118516
 5433         c3    188    bbb     C4   5433 -0.01612100  12.010000   ; qtot -0.134637
 5434         hc    188    bbb     H7   5434 0.04936100   1.008000   ; qtot -0.085276
 5435         hc    188    bbb     H8   5435 0.04936100   1.008000   ; qtot -0.035915
 5436         c3    188    bbb     C5   5436 0.11363000  12.010000   ; qtot 0.077715
 5437         hc    188    bbb     H9   5437 0.06265900   1.008000   ; qtot 0.140374
 5438         hc    188    bbb    H10   5438 0.06265900   1.008000   ; qtot 0.203033
 5439         c3    188    bbb     C6   5439 0.11363000  12.010000   ; qtot 0.316663
 5440         hc    188    bbb    H11   5440 0.06265900   1.008000   ; qtot 0.379322
 5441         hc    188    bbb    H12   5441 0.06265900   1.008000   ; qtot 0.441981
 5442         c3    188    bbb     C7   5442 0.05858200  12.010000   ; qtot 0.500563
 5443         h1    188    bbb    H13   5443 0.06123400   1.008000   ; qtot 0.561797
 5444         h1    188    bbb    H14   5444 0.06123400   1.008000   ; qtot 0.623031
 5445         c3    188    bbb     C8   5445 -0.72423400  12.010000   ; qtot -0.101203
 5446         h1    188    bbb    H15   5446 0.25637600   1.008000   ; qtot 0.155173
 5447         h1    188    bbb    H16   5447 0.25637600   1.008000   ; qtot 0.411549
 5448         c3    188    bbb     C9   5448 -0.72423400  12.010000   ; qtot -0.312685
 5449         h1    188    bbb    H17   5449 0.25637600   1.008000   ; qtot -0.056309
 5450         h1    188    bbb    H18   5450 0.25637600   1.008000   ; qtot 0.200067
 5451         os    188    bbb     O1   5451 -0.20025300  16.000000   ; qtot -0.000186
; residue  189 bbb rtp bbb q -0.0
 5452         n3    189    bbb     N1   5452 -0.59685800  14.010000   ; qtot -0.597044
 5453         c3    189    bbb     C1   5453 0.10137000  12.010000   ; qtot -0.495674
 5454         h1    189    bbb     H1   5454 0.04411300   1.008000   ; qtot -0.451561
 5455         h1    189    bbb     H2   5455 0.04411300   1.008000   ; qtot -0.407448
 5456         c3    189    bbb     C2   5456 0.10137000  12.010000   ; qtot -0.306078
 5457         h1    189    bbb     H3   5457 0.04411300   1.008000   ; qtot -0.261965
 5458         h1    189    bbb     H4   5458 0.04411300   1.008000   ; qtot -0.217852
 5459         c3    189    bbb     C3   5459 -0.00195300  12.010000   ; qtot -0.219805
 5460         h1    189    bbb     H5   5460 0.05064400   1.008000   ; qtot -0.169161
 5461         h1    189    bbb     H6   5461 0.05064400   1.008000   ; qtot -0.118517
 5462         c3    189    bbb     C4   5462 -0.01612100  12.010000   ; qtot -0.134638
 5463         hc    189    bbb     H7   5463 0.04936100   1.008000   ; qtot -0.085277
 5464         hc    189    bbb     H8   5464 0.04936100   1.008000   ; qtot -0.035916
 5465         c3    189    bbb     C5   5465 0.11363000  12.010000   ; qtot 0.077714
 5466         hc    189    bbb     H9   5466 0.06265900   1.008000   ; qtot 0.140373
 5467         hc    189    bbb    H10   5467 0.06265900   1.008000   ; qtot 0.203032
 5468         c3    189    bbb     C6   5468 0.11363000  12.010000   ; qtot 0.316662
 5469         hc    189    bbb    H11   5469 0.06265900   1.008000   ; qtot 0.379321
 5470         hc    189    bbb    H12   5470 0.06265900   1.008000   ; qtot 0.441980
 5471         c3    189    bbb     C7   5471 0.05858200  12.010000   ; qtot 0.500562
 5472         h1    189    bbb    H13   5472 0.06123400   1.008000   ; qtot 0.561796
 5473         h1    189    bbb    H14   5473 0.06123400   1.008000   ; qtot 0.623030
 5474         c3    189    bbb     C8   5474 -0.72423400  12.010000   ; qtot -0.101204
 5475         h1    189    bbb    H15   5475 0.25637600   1.008000   ; qtot 0.155172
 5476         h1    189    bbb    H16   5476 0.25637600   1.008000   ; qtot 0.411548
 5477         c3    189    bbb     C9   5477 -0.72423400  12.010000   ; qtot -0.312686
 5478         h1    189    bbb    H17   5478 0.25637600   1.008000   ; qtot -0.056310
 5479         h1    189    bbb    H18   5479 0.25637600   1.008000   ; qtot 0.200066
 5480         os    189    bbb     O1   5480 -0.20025300  16.000000   ; qtot -0.000187
; residue  190 bbb rtp bbb q -0.0
 5481         n3    190    bbb     N1   5481 -0.59685800  14.010000   ; qtot -0.597045
 5482         c3    190    bbb     C1   5482 0.10137000  12.010000   ; qtot -0.495675
 5483         h1    190    bbb     H1   5483 0.04411300   1.008000   ; qtot -0.451562
 5484         h1    190    bbb     H2   5484 0.04411300   1.008000   ; qtot -0.407449
 5485         c3    190    bbb     C2   5485 0.10137000  12.010000   ; qtot -0.306079
 5486         h1    190    bbb     H3   5486 0.04411300   1.008000   ; qtot -0.261966
 5487         h1    190    bbb     H4   5487 0.04411300   1.008000   ; qtot -0.217853
 5488         c3    190    bbb     C3   5488 -0.00195300  12.010000   ; qtot -0.219806
 5489         h1    190    bbb     H5   5489 0.05064400   1.008000   ; qtot -0.169162
 5490         h1    190    bbb     H6   5490 0.05064400   1.008000   ; qtot -0.118518
 5491         c3    190    bbb     C4   5491 -0.01612100  12.010000   ; qtot -0.134639
 5492         hc    190    bbb     H7   5492 0.04936100   1.008000   ; qtot -0.085278
 5493         hc    190    bbb     H8   5493 0.04936100   1.008000   ; qtot -0.035917
 5494         c3    190    bbb     C5   5494 0.11363000  12.010000   ; qtot 0.077713
 5495         hc    190    bbb     H9   5495 0.06265900   1.008000   ; qtot 0.140372
 5496         hc    190    bbb    H10   5496 0.06265900   1.008000   ; qtot 0.203031
 5497         c3    190    bbb     C6   5497 0.11363000  12.010000   ; qtot 0.316661
 5498         hc    190    bbb    H11   5498 0.06265900   1.008000   ; qtot 0.379320
 5499         hc    190    bbb    H12   5499 0.06265900   1.008000   ; qtot 0.441979
 5500         c3    190    bbb     C7   5500 0.05858200  12.010000   ; qtot 0.500561
 5501         h1    190    bbb    H13   5501 0.06123400   1.008000   ; qtot 0.561795
 5502         h1    190    bbb    H14   5502 0.06123400   1.008000   ; qtot 0.623029
 5503         c3    190    bbb     C8   5503 -0.72423400  12.010000   ; qtot -0.101205
 5504         h1    190    bbb    H15   5504 0.25637600   1.008000   ; qtot 0.155171
 5505         h1    190    bbb    H16   5505 0.25637600   1.008000   ; qtot 0.411547
 5506         c3    190    bbb     C9   5506 -0.72423400  12.010000   ; qtot -0.312687
 5507         h1    190    bbb    H17   5507 0.25637600   1.008000   ; qtot -0.056311
 5508         h1    190    bbb    H18   5508 0.25637600   1.008000   ; qtot 0.200065
 5509         os    190    bbb     O1   5509 -0.20025300  16.000000   ; qtot -0.000188
; residue  191 ccc rtp ccc q -2.0
 5510         c3    191    ccc     C3   5510 -0.04070000  12.010000   ; qtot -0.040888
 5511         h1    191    ccc     H5   5511 0.04610000   1.008000   ; qtot 0.005212
 5512         h1    191    ccc     H6   5512 0.04610000   1.008000   ; qtot 0.051312
 5513         c3    191    ccc     C2   5513 -0.02540000  12.010000   ; qtot 0.025912
 5514         hc    191    ccc     H3   5514 0.00850000   1.008000   ; qtot 0.034412
 5515         hc    191    ccc     H4   5515 0.00850000   1.008000   ; qtot 0.042912
 5516         c3    191    ccc     C1   5516 0.60210000  12.010000   ; qtot 0.645012
 5517         h1    191    ccc     H1   5517 -0.09250000   1.008000   ; qtot 0.552512
 5518         h1    191    ccc     H2   5518 -0.09250000   1.008000   ; qtot 0.460012
 5519         n3    191    ccc     N1   5519 -0.59700000  14.010000   ; qtot -0.136988
 5520         c3    191    ccc     C4   5520 0.32800000  12.010000   ; qtot 0.191012
 5521         h1    191    ccc     H7   5521 -0.07120000   1.008000   ; qtot 0.119812
 5522         h1    191    ccc     H8   5522 -0.07120000   1.008000   ; qtot 0.048612
 5523         c3    191    ccc     C5   5523 -0.39330000  12.010000   ; qtot -0.344688
 5524         hc    191    ccc     H9   5524 0.08130000   1.008000   ; qtot -0.263388
 5525         hc    191    ccc    H10   5525 0.08130000   1.008000   ; qtot -0.182088
 5526          c    191    ccc     C6   5526 1.08970000  12.010000   ; qtot 0.907612
 5527          o    191    ccc     O2   5527 -0.96050000  16.000000   ; qtot -0.052888
 5528          o    191    ccc     O3   5528 -0.96050000  16.000000   ; qtot -1.013388
 5529         c3    191    ccc     C7   5529 0.32800000  12.010000   ; qtot -0.685388
 5530         h1    191    ccc    H11   5530 -0.07120000   1.008000   ; qtot -0.756588
 5531         h1    191    ccc    H12   5531 -0.07120000   1.008000   ; qtot -0.827788
 5532         c3    191    ccc     C8   5532 -0.39330000  12.010000   ; qtot -1.221088
 5533         hc    191    ccc    H13   5533 0.08130000   1.008000   ; qtot -1.139788
 5534         hc    191    ccc    H14   5534 0.08130000   1.008000   ; qtot -1.058488
 5535          c    191    ccc     C9   5535 1.08970000  12.010000   ; qtot 0.031212
 5536          o    191    ccc     O4   5536 -0.96050000  16.000000   ; qtot -0.929288
 5537          o    191    ccc     O5   5537 -0.96050000  16.000000   ; qtot -1.889788
 5538         os    191    ccc     O1   5538 -0.11060000  16.000000   ; qtot -2.000388
; residue  192 ccc rtp ccc q -2.0
 5539         c3    192    ccc     C3   5539 -0.04070000  12.010000   ; qtot -2.041088
 5540         h1    192    ccc     H5   5540 0.04610000   1.008000   ; qtot -1.994988
 5541         h1    192    ccc     H6   5541 0.04610000   1.008000   ; qtot -1.948888
 5542         c3    192    ccc     C2   5542 -0.02540000  12.010000   ; qtot -1.974288
 5543         hc    192    ccc     H3   5543 0.00850000   1.008000   ; qtot -1.965788
 5544         hc    192    ccc     H4   5544 0.00850000   1.008000   ; qtot -1.957288
 5545         c3    192    ccc     C1   5545 0.60210000  12.010000   ; qtot -1.355188
 5546         h1    192    ccc     H1   5546 -0.09250000   1.008000   ; qtot -1.447688
 5547         h1    192    ccc     H2   5547 -0.09250000   1.008000   ; qtot -1.540188
 5548         n3    192    ccc     N1   5548 -0.59700000  14.010000   ; qtot -2.137188
 5549         c3    192    ccc     C4   5549 0.32800000  12.010000   ; qtot -1.809188
 5550         h1    192    ccc     H7   5550 -0.07120000   1.008000   ; qtot -1.880388
 5551         h1    192    ccc     H8   5551 -0.07120000   1.008000   ; qtot -1.951588
 5552         c3    192    ccc     C5   5552 -0.39330000  12.010000   ; qtot -2.344888
 5553         hc    192    ccc     H9   5553 0.08130000   1.008000   ; qtot -2.263588
 5554         hc    192    ccc    H10   5554 0.08130000   1.008000   ; qtot -2.182288
 5555          c    192    ccc     C6   5555 1.08970000  12.010000   ; qtot -1.092588
 5556          o    192    ccc     O2   5556 -0.96050000  16.000000   ; qtot -2.053088
 5557          o    192    ccc     O3   5557 -0.96050000  16.000000   ; qtot -3.013588
 5558         c3    192    ccc     C7   5558 0.32800000  12.010000   ; qtot -2.685588
 5559         h1    192    ccc    H11   5559 -0.07120000   1.008000   ; qtot -2.756788
 5560         h1    192    ccc    H12   5560 -0.07120000   1.008000   ; qtot -2.827988
 5561         c3    192    ccc     C8   5561 -0.39330000  12.010000   ; qtot -3.221288
 5562         hc    192    ccc    H13   5562 0.08130000   1.008000   ; qtot -3.139988
 5563         hc    192    ccc    H14   5563 0.08130000   1.008000   ; qtot -3.058688
 5564          c    192    ccc     C9   5564 1.08970000  12.010000   ; qtot -1.968988
 5565          o    192    ccc     O4   5565 -0.96050000  16.000000   ; qtot -2.929488
 5566          o    192    ccc     O5   5566 -0.96050000  16.000000   ; qtot -3.889988
 5567         os    192    ccc     O1   5567 -0.11060000  16.000000   ; qtot -4.000588
; residue  193 ccc rtp ccc q -2.0
 5568         c3    193    ccc     C3   5568 -0.04070000  12.010000   ; qtot -4.041288
 5569         h1    193    ccc     H5   5569 0.04610000   1.008000   ; qtot -3.995188
 5570         h1    193    ccc     H6   5570 0.04610000   1.008000   ; qtot -3.949088
 5571         c3    193    ccc     C2   5571 -0.02540000  12.010000   ; qtot -3.974488
 5572         hc    193    ccc     H3   5572 0.00850000   1.008000   ; qtot -3.965988
 5573         hc    193    ccc     H4   5573 0.00850000   1.008000   ; qtot -3.957488
 5574         c3    193    ccc     C1   5574 0.60210000  12.010000   ; qtot -3.355388
 5575         h1    193    ccc     H1   5575 -0.09250000   1.008000   ; qtot -3.447888
 5576         h1    193    ccc     H2   5576 -0.09250000   1.008000   ; qtot -3.540388
 5577         n3    193    ccc     N1   5577 -0.59700000  14.010000   ; qtot -4.137388
 5578         c3    193    ccc     C4   5578 0.32800000  12.010000   ; qtot -3.809388
 5579         h1    193    ccc     H7   5579 -0.07120000   1.008000   ; qtot -3.880588
 5580         h1    193    ccc     H8   5580 -0.07120000   1.008000   ; qtot -3.951788
 5581         c3    193    ccc     C5   5581 -0.39330000  12.010000   ; qtot -4.345088
 5582         hc    193    ccc     H9   5582 0.08130000   1.008000   ; qtot -4.263788
 5583         hc    193    ccc    H10   5583 0.08130000   1.008000   ; qtot -4.182488
 5584          c    193    ccc     C6   5584 1.08970000  12.010000   ; qtot -3.092788
 5585          o    193    ccc     O2   5585 -0.96050000  16.000000   ; qtot -4.053288
 5586          o    193    ccc     O3   5586 -0.96050000  16.000000   ; qtot -5.013788
 5587         c3    193    ccc     C7   5587 0.32800000  12.010000   ; qtot -4.685788
 5588         h1    193    ccc    H11   5588 -0.07120000   1.008000   ; qtot -4.756988
 5589         h1    193    ccc    H12   5589 -0.07120000   1.008000   ; qtot -4.828188
 5590         c3    193    ccc     C8   5590 -0.39330000  12.010000   ; qtot -5.221488
 5591         hc    193    ccc    H13   5591 0.08130000   1.008000   ; qtot -5.140188
 5592         hc    193    ccc    H14   5592 0.08130000   1.008000   ; qtot -5.058888
 5593          c    193    ccc     C9   5593 1.08970000  12.010000   ; qtot -3.969188
 5594          o    193    ccc     O4   5594 -0.96050000  16.000000   ; qtot -4.929688
 5595          o    193    ccc     O5   5595 -0.96050000  16.000000   ; qtot -5.890188
 5596         os    193    ccc     O1   5596 -0.11060000  16.000000   ; qtot -6.000788
; residue  194 ccc rtp ccc q -2.0
 5597         c3    194    ccc     C3   5597 -0.04070000  12.010000   ; qtot -6.041488
 5598         h1    194    ccc     H5   5598 0.04610000   1.008000   ; qtot -5.995388
 5599         h1    194    ccc     H6   5599 0.04610000   1.008000   ; qtot -5.949288
 5600         c3    194    ccc     C2   5600 -0.02540000  12.010000   ; qtot -5.974688
 5601         hc    194    ccc     H3   5601 0.00850000   1.008000   ; qtot -5.966188
 5602         hc    194    ccc     H4   5602 0.00850000   1.008000   ; qtot -5.957688
 5603         c3    194    ccc     C1   5603 0.60210000  12.010000   ; qtot -5.355588
 5604         h1    194    ccc     H1   5604 -0.09250000   1.008000   ; qtot -5.448088
 5605         h1    194    ccc     H2   5605 -0.09250000   1.008000   ; qtot -5.540588
 5606         n3    194    ccc     N1   5606 -0.59700000  14.010000   ; qtot -6.137588
 5607         c3    194    ccc     C4   5607 0.32800000  12.010000   ; qtot -5.809588
 5608         h1    194    ccc     H7   5608 -0.07120000   1.008000   ; qtot -5.880788
 5609         h1    194    ccc     H8   5609 -0.07120000   1.008000   ; qtot -5.951988
 5610         c3    194    ccc     C5   5610 -0.39330000  12.010000   ; qtot -6.345288
 5611         hc    194    ccc     H9   5611 0.08130000   1.008000   ; qtot -6.263988
 5612         hc    194    ccc    H10   5612 0.08130000   1.008000   ; qtot -6.182688
 5613          c    194    ccc     C6   5613 1.08970000  12.010000   ; qtot -5.092988
 5614          o    194    ccc     O2   5614 -0.96050000  16.000000   ; qtot -6.053488
 5615          o    194    ccc     O3   5615 -0.96050000  16.000000   ; qtot -7.013988
 5616         c3    194    ccc     C7   5616 0.32800000  12.010000   ; qtot -6.685988
 5617         h1    194    ccc    H11   5617 -0.07120000   1.008000   ; qtot -6.757188
 5618         h1    194    ccc    H12   5618 -0.07120000   1.008000   ; qtot -6.828388
 5619         c3    194    ccc     C8   5619 -0.39330000  12.010000   ; qtot -7.221688
 5620         hc    194    ccc    H13   5620 0.08130000   1.008000   ; qtot -7.140388
 5621         hc    194    ccc    H14   5621 0.08130000   1.008000   ; qtot -7.059088
 5622          c    194    ccc     C9   5622 1.08970000  12.010000   ; qtot -5.969388
 5623          o    194    ccc     O4   5623 -0.96050000  16.000000   ; qtot -6.929888
 5624          o    194    ccc     O5   5624 -0.96050000  16.000000   ; qtot -7.890388
 5625         os    194    ccc     O1   5625 -0.11060000  16.000000   ; qtot -8.000988
; residue  195 ccc rtp ccc q -2.0
 5626         c3    195    ccc     C3   5626 -0.04070000  12.010000   ; qtot -8.041688
 5627         h1    195    ccc     H5   5627 0.04610000   1.008000   ; qtot -7.995588
 5628         h1    195    ccc     H6   5628 0.04610000   1.008000   ; qtot -7.949488
 5629         c3    195    ccc     C2   5629 -0.02540000  12.010000   ; qtot -7.974888
 5630         hc    195    ccc     H3   5630 0.00850000   1.008000   ; qtot -7.966388
 5631         hc    195    ccc     H4   5631 0.00850000   1.008000   ; qtot -7.957888
 5632         c3    195    ccc     C1   5632 0.60210000  12.010000   ; qtot -7.355788
 5633         h1    195    ccc     H1   5633 -0.09250000   1.008000   ; qtot -7.448288
 5634         h1    195    ccc     H2   5634 -0.09250000   1.008000   ; qtot -7.540788
 5635         n3    195    ccc     N1   5635 -0.59700000  14.010000   ; qtot -8.137788
 5636         c3    195    ccc     C4   5636 0.32800000  12.010000   ; qtot -7.809788
 5637         h1    195    ccc     H7   5637 -0.07120000   1.008000   ; qtot -7.880988
 5638         h1    195    ccc     H8   5638 -0.07120000   1.008000   ; qtot -7.952188
 5639         c3    195    ccc     C5   5639 -0.39330000  12.010000   ; qtot -8.345488
 5640         hc    195    ccc     H9   5640 0.08130000   1.008000   ; qtot -8.264188
 5641         hc    195    ccc    H10   5641 0.08130000   1.008000   ; qtot -8.182888
 5642          c    195    ccc     C6   5642 1.08970000  12.010000   ; qtot -7.093188
 5643          o    195    ccc     O2   5643 -0.96050000  16.000000   ; qtot -8.053688
 5644          o    195    ccc     O3   5644 -0.96050000  16.000000   ; qtot -9.014188
 5645         c3    195    ccc     C7   5645 0.32800000  12.010000   ; qtot -8.686188
 5646         h1    195    ccc    H11   5646 -0.07120000   1.008000   ; qtot -8.757388
 5647         h1    195    ccc    H12   5647 -0.07120000   1.008000   ; qtot -8.828588
 5648         c3    195    ccc     C8   5648 -0.39330000  12.010000   ; qtot -9.221888
 5649         hc    195    ccc    H13   5649 0.08130000   1.008000   ; qtot -9.140588
 5650         hc    195    ccc    H14   5650 0.08130000   1.008000   ; qtot -9.059288
 5651          c    195    ccc     C9   5651 1.08970000  12.010000   ; qtot -7.969588
 5652          o    195    ccc     O4   5652 -0.96050000  16.000000   ; qtot -8.930088
 5653          o    195    ccc     O5   5653 -0.96050000  16.000000   ; qtot -9.890588
 5654         os    195    ccc     O1   5654 -0.11060000  16.000000   ; qtot -10.001188
; residue  196 ccc rtp ccc q -2.0
 5655         c3    196    ccc     C3   5655 -0.04070000  12.010000   ; qtot -10.041888
 5656         h1    196    ccc     H5   5656 0.04610000   1.008000   ; qtot -9.995788
 5657         h1    196    ccc     H6   5657 0.04610000   1.008000   ; qtot -9.949688
 5658         c3    196    ccc     C2   5658 -0.02540000  12.010000   ; qtot -9.975088
 5659         hc    196    ccc     H3   5659 0.00850000   1.008000   ; qtot -9.966588
 5660         hc    196    ccc     H4   5660 0.00850000   1.008000   ; qtot -9.958088
 5661         c3    196    ccc     C1   5661 0.60210000  12.010000   ; qtot -9.355988
 5662         h1    196    ccc     H1   5662 -0.09250000   1.008000   ; qtot -9.448488
 5663         h1    196    ccc     H2   5663 -0.09250000   1.008000   ; qtot -9.540988
 5664         n3    196    ccc     N1   5664 -0.59700000  14.010000   ; qtot -10.137988
 5665         c3    196    ccc     C4   5665 0.32800000  12.010000   ; qtot -9.809988
 5666         h1    196    ccc     H7   5666 -0.07120000   1.008000   ; qtot -9.881188
 5667         h1    196    ccc     H8   5667 -0.07120000   1.008000   ; qtot -9.952388
 5668         c3    196    ccc     C5   5668 -0.39330000  12.010000   ; qtot -10.345688
 5669         hc    196    ccc     H9   5669 0.08130000   1.008000   ; qtot -10.264388
 5670         hc    196    ccc    H10   5670 0.08130000   1.008000   ; qtot -10.183088
 5671          c    196    ccc     C6   5671 1.08970000  12.010000   ; qtot -9.093388
 5672          o    196    ccc     O2   5672 -0.96050000  16.000000   ; qtot -10.053888
 5673          o    196    ccc     O3   5673 -0.96050000  16.000000   ; qtot -11.014388
 5674         c3    196    ccc     C7   5674 0.32800000  12.010000   ; qtot -10.686388
 5675         h1    196    ccc    H11   5675 -0.07120000   1.008000   ; qtot -10.757588
 5676         h1    196    ccc    H12   5676 -0.07120000   1.008000   ; qtot -10.828788
 5677         c3    196    ccc     C8   5677 -0.39330000  12.010000   ; qtot -11.222088
 5678         hc    196    ccc    H13   5678 0.08130000   1.008000   ; qtot -11.140788
 5679         hc    196    ccc    H14   5679 0.08130000   1.008000   ; qtot -11.059488
 5680          c    196    ccc     C9   5680 1.08970000  12.010000   ; qtot -9.969788
 5681          o    196    ccc     O4   5681 -0.96050000  16.000000   ; qtot -10.930288
 5682          o    196    ccc     O5   5682 -0.96050000  16.000000   ; qtot -11.890788
 5683         os    196    ccc     O1   5683 -0.11060000  16.000000   ; qtot -12.001388
; residue  197 ccc rtp ccc q -2.0
 5684         c3    197    ccc     C3   5684 -0.04070000  12.010000   ; qtot -12.042088
 5685         h1    197    ccc     H5   5685 0.04610000   1.008000   ; qtot -11.995988
 5686         h1    197    ccc     H6   5686 0.04610000   1.008000   ; qtot -11.949888
 5687         c3    197    ccc     C2   5687 -0.02540000  12.010000   ; qtot -11.975288
 5688         hc    197    ccc     H3   5688 0.00850000   1.008000   ; qtot -11.966788
 5689         hc    197    ccc     H4   5689 0.00850000   1.008000   ; qtot -11.958288
 5690         c3    197    ccc     C1   5690 0.60210000  12.010000   ; qtot -11.356188
 5691         h1    197    ccc     H1   5691 -0.09250000   1.008000   ; qtot -11.448688
 5692         h1    197    ccc     H2   5692 -0.09250000   1.008000   ; qtot -11.541188
 5693         n3    197    ccc     N1   5693 -0.59700000  14.010000   ; qtot -12.138188
 5694         c3    197    ccc     C4   5694 0.32800000  12.010000   ; qtot -11.810188
 5695         h1    197    ccc     H7   5695 -0.07120000   1.008000   ; qtot -11.881388
 5696         h1    197    ccc     H8   5696 -0.07120000   1.008000   ; qtot -11.952588
 5697         c3    197    ccc     C5   5697 -0.39330000  12.010000   ; qtot -12.345888
 5698         hc    197    ccc     H9   5698 0.08130000   1.008000   ; qtot -12.264588
 5699         hc    197    ccc    H10   5699 0.08130000   1.008000   ; qtot -12.183288
 5700          c    197    ccc     C6   5700 1.08970000  12.010000   ; qtot -11.093588
 5701          o    197    ccc     O2   5701 -0.96050000  16.000000   ; qtot -12.054088
 5702          o    197    ccc     O3   5702 -0.96050000  16.000000   ; qtot -13.014588
 5703         c3    197    ccc     C7   5703 0.32800000  12.010000   ; qtot -12.686588
 5704         h1    197    ccc    H11   5704 -0.07120000   1.008000   ; qtot -12.757788
 5705         h1    197    ccc    H12   5705 -0.07120000   1.008000   ; qtot -12.828988
 5706         c3    197    ccc     C8   5706 -0.39330000  12.010000   ; qtot -13.222288
 5707         hc    197    ccc    H13   5707 0.08130000   1.008000   ; qtot -13.140988
 5708         hc    197    ccc    H14   5708 0.08130000   1.008000   ; qtot -13.059688
 5709          c    197    ccc     C9   5709 1.08970000  12.010000   ; qtot -11.969988
 5710          o    197    ccc     O4   5710 -0.96050000  16.000000   ; qtot -12.930488
 5711          o    197    ccc     O5   5711 -0.96050000  16.000000   ; qtot -13.890988
 5712         os    197    ccc     O1   5712 -0.11060000  16.000000   ; qtot -14.001588
; residue  198 ccc rtp ccc q -2.0
 5713         c3    198    ccc     C3   5713 -0.04070000  12.010000   ; qtot -14.042288
 5714         h1    198    ccc     H5   5714 0.04610000   1.008000   ; qtot -13.996188
 5715         h1    198    ccc     H6   5715 0.04610000   1.008000   ; qtot -13.950088
 5716         c3    198    ccc     C2   5716 -0.02540000  12.010000   ; qtot -13.975488
 5717         hc    198    ccc     H3   5717 0.00850000   1.008000   ; qtot -13.966988
 5718         hc    198    ccc     H4   5718 0.00850000   1.008000   ; qtot -13.958488
 5719         c3    198    ccc     C1   5719 0.60210000  12.010000   ; qtot -13.356388
 5720         h1    198    ccc     H1   5720 -0.09250000   1.008000   ; qtot -13.448888
 5721         h1    198    ccc     H2   5721 -0.09250000   1.008000   ; qtot -13.541388
 5722         n3    198    ccc     N1   5722 -0.59700000  14.010000   ; qtot -14.138388
 5723         c3    198    ccc     C4   5723 0.32800000  12.010000   ; qtot -13.810388
 5724         h1    198    ccc     H7   5724 -0.07120000   1.008000   ; qtot -13.881588
 5725         h1    198    ccc     H8   5725 -0.07120000   1.008000   ; qtot -13.952788
 5726         c3    198    ccc     C5   5726 -0.39330000  12.010000   ; qtot -14.346088
 5727         hc    198    ccc     H9   5727 0.08130000   1.008000   ; qtot -14.264788
 5728         hc    198    ccc    H10   5728 0.08130000   1.008000   ; qtot -14.183488
 5729          c    198    ccc     C6   5729 1.08970000  12.010000   ; qtot -13.093788
 5730          o    198    ccc     O2   5730 -0.96050000  16.000000   ; qtot -14.054288
 5731          o    198    ccc     O3   5731 -0.96050000  16.000000   ; qtot -15.014788
 5732         c3    198    ccc     C7   5732 0.32800000  12.010000   ; qtot -14.686788
 5733         h1    198    ccc    H11   5733 -0.07120000   1.008000   ; qtot -14.757988
 5734         h1    198    ccc    H12   5734 -0.07120000   1.008000   ; qtot -14.829188
 5735         c3    198    ccc     C8   5735 -0.39330000  12.010000   ; qtot -15.222488
 5736         hc    198    ccc    H13   5736 0.08130000   1.008000   ; qtot -15.141188
 5737         hc    198    ccc    H14   5737 0.08130000   1.008000   ; qtot -15.059888
 5738          c    198    ccc     C9   5738 1.08970000  12.010000   ; qtot -13.970188
 5739          o    198    ccc     O4   5739 -0.96050000  16.000000   ; qtot -14.930688
 5740          o    198    ccc     O5   5740 -0.96050000  16.000000   ; qtot -15.891188
 5741         os    198    ccc     O1   5741 -0.11060000  16.000000   ; qtot -16.001788
; residue  199 ccc rtp ccc q -2.0
 5742         c3    199    ccc     C3   5742 -0.04070000  12.010000   ; qtot -16.042488
 5743         h1    199    ccc     H5   5743 0.04610000   1.008000   ; qtot -15.996388
 5744         h1    199    ccc     H6   5744 0.04610000   1.008000   ; qtot -15.950288
 5745         c3    199    ccc     C2   5745 -0.02540000  12.010000   ; qtot -15.975688
 5746         hc    199    ccc     H3   5746 0.00850000   1.008000   ; qtot -15.967188
 5747         hc    199    ccc     H4   5747 0.00850000   1.008000   ; qtot -15.958688
 5748         c3    199    ccc     C1   5748 0.60210000  12.010000   ; qtot -15.356588
 5749         h1    199    ccc     H1   5749 -0.09250000   1.008000   ; qtot -15.449088
 5750         h1    199    ccc     H2   5750 -0.09250000   1.008000   ; qtot -15.541588
 5751         n3    199    ccc     N1   5751 -0.59700000  14.010000   ; qtot -16.138588
 5752         c3    199    ccc     C4   5752 0.32800000  12.010000   ; qtot -15.810588
 5753         h1    199    ccc     H7   5753 -0.07120000   1.008000   ; qtot -15.881788
 5754         h1    199    ccc     H8   5754 -0.07120000   1.008000   ; qtot -15.952988
 5755         c3    199    ccc     C5   5755 -0.39330000  12.010000   ; qtot -16.346288
 5756         hc    199    ccc     H9   5756 0.08130000   1.008000   ; qtot -16.264988
 5757         hc    199    ccc    H10   5757 0.08130000   1.008000   ; qtot -16.183688
 5758          c    199    ccc     C6   5758 1.08970000  12.010000   ; qtot -15.093988
 5759          o    199    ccc     O2   5759 -0.96050000  16.000000   ; qtot -16.054488
 5760          o    199    ccc     O3   5760 -0.96050000  16.000000   ; qtot -17.014988
 5761         c3    199    ccc     C7   5761 0.32800000  12.010000   ; qtot -16.686988
 5762         h1    199    ccc    H11   5762 -0.07120000   1.008000   ; qtot -16.758188
 5763         h1    199    ccc    H12   5763 -0.07120000   1.008000   ; qtot -16.829388
 5764         c3    199    ccc     C8   5764 -0.39330000  12.010000   ; qtot -17.222688
 5765         hc    199    ccc    H13   5765 0.08130000   1.008000   ; qtot -17.141388
 5766         hc    199    ccc    H14   5766 0.08130000   1.008000   ; qtot -17.060088
 5767          c    199    ccc     C9   5767 1.08970000  12.010000   ; qtot -15.970388
 5768          o    199    ccc     O4   5768 -0.96050000  16.000000   ; qtot -16.930888
 5769          o    199    ccc     O5   5769 -0.96050000  16.000000   ; qtot -17.891388
 5770         os    199    ccc     O1   5770 -0.11060000  16.000000   ; qtot -18.001988
; residue  200 ccc rtp ccc q -2.0
 5771         c3    200    ccc     C3   5771 -0.04070000  12.010000   ; qtot -18.042688
 5772         h1    200    ccc     H5   5772 0.04610000   1.008000   ; qtot -17.996588
 5773         h1    200    ccc     H6   5773 0.04610000   1.008000   ; qtot -17.950488
 5774         c3    200    ccc     C2   5774 -0.02540000  12.010000   ; qtot -17.975888
 5775         hc    200    ccc     H3   5775 0.00850000   1.008000   ; qtot -17.967388
 5776         hc    200    ccc     H4   5776 0.00850000   1.008000   ; qtot -17.958888
 5777         c3    200    ccc     C1   5777 0.60210000  12.010000   ; qtot -17.356788
 5778         h1    200    ccc     H1   5778 -0.09250000   1.008000   ; qtot -17.449288
 5779         h1    200    ccc     H2   5779 -0.09250000   1.008000   ; qtot -17.541788
 5780         n3    200    ccc     N1   5780 -0.59700000  14.010000   ; qtot -18.138788
 5781         c3    200    ccc     C4   5781 0.32800000  12.010000   ; qtot -17.810788
 5782         h1    200    ccc     H7   5782 -0.07120000   1.008000   ; qtot -17.881988
 5783         h1    200    ccc     H8   5783 -0.07120000   1.008000   ; qtot -17.953188
 5784         c3    200    ccc     C5   5784 -0.39330000  12.010000   ; qtot -18.346488
 5785         hc    200    ccc     H9   5785 0.08130000   1.008000   ; qtot -18.265188
 5786         hc    200    ccc    H10   5786 0.08130000   1.008000   ; qtot -18.183888
 5787          c    200    ccc     C6   5787 1.08970000  12.010000   ; qtot -17.094188
 5788          o    200    ccc     O2   5788 -0.96050000  16.000000   ; qtot -18.054688
 5789          o    200    ccc     O3   5789 -0.96050000  16.000000   ; qtot -19.015188
 5790         c3    200    ccc     C7   5790 0.32800000  12.010000   ; qtot -18.687188
 5791         h1    200    ccc    H11   5791 -0.07120000   1.008000   ; qtot -18.758388
 5792         h1    200    ccc    H12   5792 -0.07120000   1.008000   ; qtot -18.829588
 5793         c3    200    ccc     C8   5793 -0.39330000  12.010000   ; qtot -19.222888
 5794         hc    200    ccc    H13   5794 0.08130000   1.008000   ; qtot -19.141588
 5795         hc    200    ccc    H14   5795 0.08130000   1.008000   ; qtot -19.060288
 5796          c    200    ccc     C9   5796 1.08970000  12.010000   ; qtot -17.970588
 5797          o    200    ccc     O4   5797 -0.96050000  16.000000   ; qtot -18.931088
 5798          o    200    ccc     O5   5798 -0.96050000  16.000000   ; qtot -19.891588
 5799         os    200    ccc     O1   5799 -0.11060000  16.000000   ; qtot -20.002188
; residue  201 ccc rtp ccc q -2.0
 5800         c3    201    ccc     C3   5800 -0.04070000  12.010000   ; qtot -20.042888
 5801         h1    201    ccc     H5   5801 0.04610000   1.008000   ; qtot -19.996788
 5802         h1    201    ccc     H6   5802 0.04610000   1.008000   ; qtot -19.950688
 5803         c3    201    ccc     C2   5803 -0.02540000  12.010000   ; qtot -19.976088
 5804         hc    201    ccc     H3   5804 0.00850000   1.008000   ; qtot -19.967588
 5805         hc    201    ccc     H4   5805 0.00850000   1.008000   ; qtot -19.959088
 5806         c3    201    ccc     C1   5806 0.60210000  12.010000   ; qtot -19.356988
 5807         h1    201    ccc     H1   5807 -0.09250000   1.008000   ; qtot -19.449488
 5808         h1    201    ccc     H2   5808 -0.09250000   1.008000   ; qtot -19.541988
 5809         n3    201    ccc     N1   5809 -0.59700000  14.010000   ; qtot -20.138988
 5810         c3    201    ccc     C4   5810 0.32800000  12.010000   ; qtot -19.810988
 5811         h1    201    ccc     H7   5811 -0.07120000   1.008000   ; qtot -19.882188
 5812         h1    201    ccc     H8   5812 -0.07120000   1.008000   ; qtot -19.953388
 5813         c3    201    ccc     C5   5813 -0.39330000  12.010000   ; qtot -20.346688
 5814         hc    201    ccc     H9   5814 0.08130000   1.008000   ; qtot -20.265388
 5815         hc    201    ccc    H10   5815 0.08130000   1.008000   ; qtot -20.184088
 5816          c    201    ccc     C6   5816 1.08970000  12.010000   ; qtot -19.094388
 5817          o    201    ccc     O2   5817 -0.96050000  16.000000   ; qtot -20.054888
 5818          o    201    ccc     O3   5818 -0.96050000  16.000000   ; qtot -21.015388
 5819         c3    201    ccc     C7   5819 0.32800000  12.010000   ; qtot -20.687388
 5820         h1    201    ccc    H11   5820 -0.07120000   1.008000   ; qtot -20.758588
 5821         h1    201    ccc    H12   5821 -0.07120000   1.008000   ; qtot -20.829788
 5822         c3    201    ccc     C8   5822 -0.39330000  12.010000   ; qtot -21.223088
 5823         hc    201    ccc    H13   5823 0.08130000   1.008000   ; qtot -21.141788
 5824         hc    201    ccc    H14   5824 0.08130000   1.008000   ; qtot -21.060488
 5825          c    201    ccc     C9   5825 1.08970000  12.010000   ; qtot -19.970788
 5826          o    201    ccc     O4   5826 -0.96050000  16.000000   ; qtot -20.931288
 5827          o    201    ccc     O5   5827 -0.96050000  16.000000   ; qtot -21.891788
 5828         os    201    ccc     O1   5828 -0.11060000  16.000000   ; qtot -22.002388
; residue  202 ccc rtp ccc q -2.0
 5829         c3    202    ccc     C3   5829 -0.04070000  12.010000   ; qtot -22.043088
 5830         h1    202    ccc     H5   5830 0.04610000   1.008000   ; qtot -21.996988
 5831         h1    202    ccc     H6   5831 0.04610000   1.008000   ; qtot -21.950888
 5832         c3    202    ccc     C2   5832 -0.02540000  12.010000   ; qtot -21.976288
 5833         hc    202    ccc     H3   5833 0.00850000   1.008000   ; qtot -21.967788
 5834         hc    202    ccc     H4   5834 0.00850000   1.008000   ; qtot -21.959288
 5835         c3    202    ccc     C1   5835 0.60210000  12.010000   ; qtot -21.357188
 5836         h1    202    ccc     H1   5836 -0.09250000   1.008000   ; qtot -21.449688
 5837         h1    202    ccc     H2   5837 -0.09250000   1.008000   ; qtot -21.542188
 5838         n3    202    ccc     N1   5838 -0.59700000  14.010000   ; qtot -22.139188
 5839         c3    202    ccc     C4   5839 0.32800000  12.010000   ; qtot -21.811188
 5840         h1    202    ccc     H7   5840 -0.07120000   1.008000   ; qtot -21.882388
 5841         h1    202    ccc     H8   5841 -0.07120000   1.008000   ; qtot -21.953588
 5842         c3    202    ccc     C5   5842 -0.39330000  12.010000   ; qtot -22.346888
 5843         hc    202    ccc     H9   5843 0.08130000   1.008000   ; qtot -22.265588
 5844         hc    202    ccc    H10   5844 0.08130000   1.008000   ; qtot -22.184288
 5845          c    202    ccc     C6   5845 1.08970000  12.010000   ; qtot -21.094588
 5846          o    202    ccc     O2   5846 -0.96050000  16.000000   ; qtot -22.055088
 5847          o    202    ccc     O3   5847 -0.96050000  16.000000   ; qtot -23.015588
 5848         c3    202    ccc     C7   5848 0.32800000  12.010000   ; qtot -22.687588
 5849         h1    202    ccc    H11   5849 -0.07120000   1.008000   ; qtot -22.758788
 5850         h1    202    ccc    H12   5850 -0.07120000   1.008000   ; qtot -22.829988
 5851         c3    202    ccc     C8   5851 -0.39330000  12.010000   ; qtot -23.223288
 5852         hc    202    ccc    H13   5852 0.08130000   1.008000   ; qtot -23.141988
 5853         hc    202    ccc    H14   5853 0.08130000   1.008000   ; qtot -23.060688
 5854          c    202    ccc     C9   5854 1.08970000  12.010000   ; qtot -21.970988
 5855          o    202    ccc     O4   5855 -0.96050000  16.000000   ; qtot -22.931488
 5856          o    202    ccc     O5   5856 -0.96050000  16.000000   ; qtot -23.891988
 5857         os    202    ccc     O1   5857 -0.11060000  16.000000   ; qtot -24.002588
; residue  203 ccc rtp ccc q -2.0
 5858         c3    203    ccc     C3   5858 -0.04070000  12.010000   ; qtot -24.043288
 5859         h1    203    ccc     H5   5859 0.04610000   1.008000   ; qtot -23.997188
 5860         h1    203    ccc     H6   5860 0.04610000   1.008000   ; qtot -23.951088
 5861         c3    203    ccc     C2   5861 -0.02540000  12.010000   ; qtot -23.976488
 5862         hc    203    ccc     H3   5862 0.00850000   1.008000   ; qtot -23.967988
 5863         hc    203    ccc     H4   5863 0.00850000   1.008000   ; qtot -23.959488
 5864         c3    203    ccc     C1   5864 0.60210000  12.010000   ; qtot -23.357388
 5865         h1    203    ccc     H1   5865 -0.09250000   1.008000   ; qtot -23.449888
 5866         h1    203    ccc     H2   5866 -0.09250000   1.008000   ; qtot -23.542388
 5867         n3    203    ccc     N1   5867 -0.59700000  14.010000   ; qtot -24.139388
 5868         c3    203    ccc     C4   5868 0.32800000  12.010000   ; qtot -23.811388
 5869         h1    203    ccc     H7   5869 -0.07120000   1.008000   ; qtot -23.882588
 5870         h1    203    ccc     H8   5870 -0.07120000   1.008000   ; qtot -23.953788
 5871         c3    203    ccc     C5   5871 -0.39330000  12.010000   ; qtot -24.347088
 5872         hc    203    ccc     H9   5872 0.08130000   1.008000   ; qtot -24.265788
 5873         hc    203    ccc    H10   5873 0.08130000   1.008000   ; qtot -24.184488
 5874          c    203    ccc     C6   5874 1.08970000  12.010000   ; qtot -23.094788
 5875          o    203    ccc     O2   5875 -0.96050000  16.000000   ; qtot -24.055288
 5876          o    203    ccc     O3   5876 -0.96050000  16.000000   ; qtot -25.015788
 5877         c3    203    ccc     C7   5877 0.32800000  12.010000   ; qtot -24.687788
 5878         h1    203    ccc    H11   5878 -0.07120000   1.008000   ; qtot -24.758988
 5879         h1    203    ccc    H12   5879 -0.07120000   1.008000   ; qtot -24.830188
 5880         c3    203    ccc     C8   5880 -0.39330000  12.010000   ; qtot -25.223488
 5881         hc    203    ccc    H13   5881 0.08130000   1.008000   ; qtot -25.142188
 5882         hc    203    ccc    H14   5882 0.08130000   1.008000   ; qtot -25.060888
 5883          c    203    ccc     C9   5883 1.08970000  12.010000   ; qtot -23.971188
 5884          o    203    ccc     O4   5884 -0.96050000  16.000000   ; qtot -24.931688
 5885          o    203    ccc     O5   5885 -0.96050000  16.000000   ; qtot -25.892188
 5886         os    203    ccc     O1   5886 -0.11060000  16.000000   ; qtot -26.002788
; residue  204 ccc rtp ccc q -2.0
 5887         c3    204    ccc     C3   5887 -0.04070000  12.010000   ; qtot -26.043488
 5888         h1    204    ccc     H5   5888 0.04610000   1.008000   ; qtot -25.997388
 5889         h1    204    ccc     H6   5889 0.04610000   1.008000   ; qtot -25.951288
 5890         c3    204    ccc     C2   5890 -0.02540000  12.010000   ; qtot -25.976688
 5891         hc    204    ccc     H3   5891 0.00850000   1.008000   ; qtot -25.968188
 5892         hc    204    ccc     H4   5892 0.00850000   1.008000   ; qtot -25.959688
 5893         c3    204    ccc     C1   5893 0.60210000  12.010000   ; qtot -25.357588
 5894         h1    204    ccc     H1   5894 -0.09250000   1.008000   ; qtot -25.450088
 5895         h1    204    ccc     H2   5895 -0.09250000   1.008000   ; qtot -25.542588
 5896         n3    204    ccc     N1   5896 -0.59700000  14.010000   ; qtot -26.139588
 5897         c3    204    ccc     C4   5897 0.32800000  12.010000   ; qtot -25.811588
 5898         h1    204    ccc     H7   5898 -0.07120000   1.008000   ; qtot -25.882788
 5899         h1    204    ccc     H8   5899 -0.07120000   1.008000   ; qtot -25.953988
 5900         c3    204    ccc     C5   5900 -0.39330000  12.010000   ; qtot -26.347288
 5901         hc    204    ccc     H9   5901 0.08130000   1.008000   ; qtot -26.265988
 5902         hc    204    ccc    H10   5902 0.08130000   1.008000   ; qtot -26.184688
 5903          c    204    ccc     C6   5903 1.08970000  12.010000   ; qtot -25.094988
 5904          o    204    ccc     O2   5904 -0.96050000  16.000000   ; qtot -26.055488
 5905          o    204    ccc     O3   5905 -0.96050000  16.000000   ; qtot -27.015988
 5906         c3    204    ccc     C7   5906 0.32800000  12.010000   ; qtot -26.687988
 5907         h1    204    ccc    H11   5907 -0.07120000   1.008000   ; qtot -26.759188
 5908         h1    204    ccc    H12   5908 -0.07120000   1.008000   ; qtot -26.830388
 5909         c3    204    ccc     C8   5909 -0.39330000  12.010000   ; qtot -27.223688
 5910         hc    204    ccc    H13   5910 0.08130000   1.008000   ; qtot -27.142388
 5911         hc    204    ccc    H14   5911 0.08130000   1.008000   ; qtot -27.061088
 5912          c    204    ccc     C9   5912 1.08970000  12.010000   ; qtot -25.971388
 5913          o    204    ccc     O4   5913 -0.96050000  16.000000   ; qtot -26.931888
 5914          o    204    ccc     O5   5914 -0.96050000  16.000000   ; qtot -27.892388
 5915         os    204    ccc     O1   5915 -0.11060000  16.000000   ; qtot -28.002988
; residue  205 ccc rtp ccc q -2.0
 5916         c3    205    ccc     C3   5916 -0.04070000  12.010000   ; qtot -28.043688
 5917         h1    205    ccc     H5   5917 0.04610000   1.008000   ; qtot -27.997588
 5918         h1    205    ccc     H6   5918 0.04610000   1.008000   ; qtot -27.951488
 5919         c3    205    ccc     C2   5919 -0.02540000  12.010000   ; qtot -27.976888
 5920         hc    205    ccc     H3   5920 0.00850000   1.008000   ; qtot -27.968388
 5921         hc    205    ccc     H4   5921 0.00850000   1.008000   ; qtot -27.959888
 5922         c3    205    ccc     C1   5922 0.60210000  12.010000   ; qtot -27.357788
 5923         h1    205    ccc     H1   5923 -0.09250000   1.008000   ; qtot -27.450288
 5924         h1    205    ccc     H2   5924 -0.09250000   1.008000   ; qtot -27.542788
 5925         n3    205    ccc     N1   5925 -0.59700000  14.010000   ; qtot -28.139788
 5926         c3    205    ccc     C4   5926 0.32800000  12.010000   ; qtot -27.811788
 5927         h1    205    ccc     H7   5927 -0.07120000   1.008000   ; qtot -27.882988
 5928         h1    205    ccc     H8   5928 -0.07120000   1.008000   ; qtot -27.954188
 5929         c3    205    ccc     C5   5929 -0.39330000  12.010000   ; qtot -28.347488
 5930         hc    205    ccc     H9   5930 0.08130000   1.008000   ; qtot -28.266188
 5931         hc    205    ccc    H10   5931 0.08130000   1.008000   ; qtot -28.184888
 5932          c    205    ccc     C6   5932 1.08970000  12.010000   ; qtot -27.095188
 5933          o    205    ccc     O2   5933 -0.96050000  16.000000   ; qtot -28.055688
 5934          o    205    ccc     O3   5934 -0.96050000  16.000000   ; qtot -29.016188
 5935         c3    205    ccc     C7   5935 0.32800000  12.010000   ; qtot -28.688188
 5936         h1    205    ccc    H11   5936 -0.07120000   1.008000   ; qtot -28.759388
 5937         h1    205    ccc    H12   5937 -0.07120000   1.008000   ; qtot -28.830588
 5938         c3    205    ccc     C8   5938 -0.39330000  12.010000   ; qtot -29.223888
 5939         hc    205    ccc    H13   5939 0.08130000   1.008000   ; qtot -29.142588
 5940         hc    205    ccc    H14   5940 0.08130000   1.008000   ; qtot -29.061288
 5941          c    205    ccc     C9   5941 1.08970000  12.010000   ; qtot -27.971588
 5942          o    205    ccc     O4   5942 -0.96050000  16.000000   ; qtot -28.932088
 5943          o    205    ccc     O5   5943 -0.96050000  16.000000   ; qtot -29.892588
 5944         os    205    ccc     O1   5944 -0.11060000  16.000000   ; qtot -30.003188
; residue  206 ccc rtp ccc q -2.0
 5945         c3    206    ccc     C3   5945 -0.04070000  12.010000   ; qtot -30.043888
 5946         h1    206    ccc     H5   5946 0.04610000   1.008000   ; qtot -29.997788
 5947         h1    206    ccc     H6   5947 0.04610000   1.008000   ; qtot -29.951688
 5948         c3    206    ccc     C2   5948 -0.02540000  12.010000   ; qtot -29.977088
 5949         hc    206    ccc     H3   5949 0.00850000   1.008000   ; qtot -29.968588
 5950         hc    206    ccc     H4   5950 0.00850000   1.008000   ; qtot -29.960088
 5951         c3    206    ccc     C1   5951 0.60210000  12.010000   ; qtot -29.357988
 5952         h1    206    ccc     H1   5952 -0.09250000   1.008000   ; qtot -29.450488
 5953         h1    206    ccc     H2   5953 -0.09250000   1.008000   ; qtot -29.542988
 5954         n3    206    ccc     N1   5954 -0.59700000  14.010000   ; qtot -30.139988
 5955         c3    206    ccc     C4   5955 0.32800000  12.010000   ; qtot -29.811988
 5956         h1    206    ccc     H7   5956 -0.07120000   1.008000   ; qtot -29.883188
 5957         h1    206    ccc     H8   5957 -0.07120000   1.008000   ; qtot -29.954388
 5958         c3    206    ccc     C5   5958 -0.39330000  12.010000   ; qtot -30.347688
 5959         hc    206    ccc     H9   5959 0.08130000   1.008000   ; qtot -30.266388
 5960         hc    206    ccc    H10   5960 0.08130000   1.008000   ; qtot -30.185088
 5961          c    206    ccc     C6   5961 1.08970000  12.010000   ; qtot -29.095388
 5962          o    206    ccc     O2   5962 -0.96050000  16.000000   ; qtot -30.055888
 5963          o    206    ccc     O3   5963 -0.96050000  16.000000   ; qtot -31.016388
 5964         c3    206    ccc     C7   5964 0.32800000  12.010000   ; qtot -30.688388
 5965         h1    206    ccc    H11   5965 -0.07120000   1.008000   ; qtot -30.759588
 5966         h1    206    ccc    H12   5966 -0.07120000   1.008000   ; qtot -30.830788
 5967         c3    206    ccc     C8   5967 -0.39330000  12.010000   ; qtot -31.224088
 5968         hc    206    ccc    H13   5968 0.08130000   1.008000   ; qtot -31.142788
 5969         hc    206    ccc    H14   5969 0.08130000   1.008000   ; qtot -31.061488
 5970          c    206    ccc     C9   5970 1.08970000  12.010000   ; qtot -29.971788
 5971          o    206    ccc     O4   5971 -0.96050000  16.000000   ; qtot -30.932288
 5972          o    206    ccc     O5   5972 -0.96050000  16.000000   ; qtot -31.892788
 5973         os    206    ccc     O1   5973 -0.11060000  16.000000   ; qtot -32.003388
; residue  207 ccc rtp ccc q -2.0
 5974         c3    207    ccc     C3   5974 -0.04070000  12.010000   ; qtot -32.044088
 5975         h1    207    ccc     H5   5975 0.04610000   1.008000   ; qtot -31.997988
 5976         h1    207    ccc     H6   5976 0.04610000   1.008000   ; qtot -31.951888
 5977         c3    207    ccc     C2   5977 -0.02540000  12.010000   ; qtot -31.977288
 5978         hc    207    ccc     H3   5978 0.00850000   1.008000   ; qtot -31.968788
 5979         hc    207    ccc     H4   5979 0.00850000   1.008000   ; qtot -31.960288
 5980         c3    207    ccc     C1   5980 0.60210000  12.010000   ; qtot -31.358188
 5981         h1    207    ccc     H1   5981 -0.09250000   1.008000   ; qtot -31.450688
 5982         h1    207    ccc     H2   5982 -0.09250000   1.008000   ; qtot -31.543188
 5983         n3    207    ccc     N1   5983 -0.59700000  14.010000   ; qtot -32.140188
 5984         c3    207    ccc     C4   5984 0.32800000  12.010000   ; qtot -31.812188
 5985         h1    207    ccc     H7   5985 -0.07120000   1.008000   ; qtot -31.883388
 5986         h1    207    ccc     H8   5986 -0.07120000   1.008000   ; qtot -31.954588
 5987         c3    207    ccc     C5   5987 -0.39330000  12.010000   ; qtot -32.347888
 5988         hc    207    ccc     H9   5988 0.08130000   1.008000   ; qtot -32.266588
 5989         hc    207    ccc    H10   5989 0.08130000   1.008000   ; qtot -32.185288
 5990          c    207    ccc     C6   5990 1.08970000  12.010000   ; qtot -31.095588
 5991          o    207    ccc     O2   5991 -0.96050000  16.000000   ; qtot -32.056088
 5992          o    207    ccc     O3   5992 -0.96050000  16.000000   ; qtot -33.016588
 5993         c3    207    ccc     C7   5993 0.32800000  12.010000   ; qtot -32.688588
 5994         h1    207    ccc    H11   5994 -0.07120000   1.008000   ; qtot -32.759788
 5995         h1    207    ccc    H12   5995 -0.07120000   1.008000   ; qtot -32.830988
 5996         c3    207    ccc     C8   5996 -0.39330000  12.010000   ; qtot -33.224288
 5997         hc    207    ccc    H13   5997 0.08130000   1.008000   ; qtot -33.142988
 5998         hc    207    ccc    H14   5998 0.08130000   1.008000   ; qtot -33.061688
 5999          c    207    ccc     C9   5999 1.08970000  12.010000   ; qtot -31.971988
 6000          o    207    ccc     O4   6000 -0.96050000  16.000000   ; qtot -32.932488
 6001          o    207    ccc     O5   6001 -0.96050000  16.000000   ; qtot -33.892988
 6002         os    207    ccc     O1   6002 -0.11060000  16.000000   ; qtot -34.003588
; residue  208 ccc rtp ccc q -2.0
 6003         c3    208    ccc     C3   6003 -0.04070000  12.010000   ; qtot -34.044288
 6004         h1    208    ccc     H5   6004 0.04610000   1.008000   ; qtot -33.998188
 6005         h1    208    ccc     H6   6005 0.04610000   1.008000   ; qtot -33.952088
 6006         c3    208    ccc     C2   6006 -0.02540000  12.010000   ; qtot -33.977488
 6007         hc    208    ccc     H3   6007 0.00850000   1.008000   ; qtot -33.968988
 6008         hc    208    ccc     H4   6008 0.00850000   1.008000   ; qtot -33.960488
 6009         c3    208    ccc     C1   6009 0.60210000  12.010000   ; qtot -33.358388
 6010         h1    208    ccc     H1   6010 -0.09250000   1.008000   ; qtot -33.450888
 6011         h1    208    ccc     H2   6011 -0.09250000   1.008000   ; qtot -33.543388
 6012         n3    208    ccc     N1   6012 -0.59700000  14.010000   ; qtot -34.140388
 6013         c3    208    ccc     C4   6013 0.32800000  12.010000   ; qtot -33.812388
 6014         h1    208    ccc     H7   6014 -0.07120000   1.008000   ; qtot -33.883588
 6015         h1    208    ccc     H8   6015 -0.07120000   1.008000   ; qtot -33.954788
 6016         c3    208    ccc     C5   6016 -0.39330000  12.010000   ; qtot -34.348088
 6017         hc    208    ccc     H9   6017 0.08130000   1.008000   ; qtot -34.266788
 6018         hc    208    ccc    H10   6018 0.08130000   1.008000   ; qtot -34.185488
 6019          c    208    ccc     C6   6019 1.08970000  12.010000   ; qtot -33.095788
 6020          o    208    ccc     O2   6020 -0.96050000  16.000000   ; qtot -34.056288
 6021          o    208    ccc     O3   6021 -0.96050000  16.000000   ; qtot -35.016788
 6022         c3    208    ccc     C7   6022 0.32800000  12.010000   ; qtot -34.688788
 6023         h1    208    ccc    H11   6023 -0.07120000   1.008000   ; qtot -34.759988
 6024         h1    208    ccc    H12   6024 -0.07120000   1.008000   ; qtot -34.831188
 6025         c3    208    ccc     C8   6025 -0.39330000  12.010000   ; qtot -35.224488
 6026         hc    208    ccc    H13   6026 0.08130000   1.008000   ; qtot -35.143188
 6027         hc    208    ccc    H14   6027 0.08130000   1.008000   ; qtot -35.061888
 6028          c    208    ccc     C9   6028 1.08970000  12.010000   ; qtot -33.972188
 6029          o    208    ccc     O4   6029 -0.96050000  16.000000   ; qtot -34.932688
 6030          o    208    ccc     O5   6030 -0.96050000  16.000000   ; qtot -35.893188
 6031         os    208    ccc     O1   6031 -0.11060000  16.000000   ; qtot -36.003788
; residue  209 ccc rtp ccc q -2.0
 6032         c3    209    ccc     C3   6032 -0.04070000  12.010000   ; qtot -36.044488
 6033         h1    209    ccc     H5   6033 0.04610000   1.008000   ; qtot -35.998388
 6034         h1    209    ccc     H6   6034 0.04610000   1.008000   ; qtot -35.952288
 6035         c3    209    ccc     C2   6035 -0.02540000  12.010000   ; qtot -35.977688
 6036         hc    209    ccc     H3   6036 0.00850000   1.008000   ; qtot -35.969188
 6037         hc    209    ccc     H4   6037 0.00850000   1.008000   ; qtot -35.960688
 6038         c3    209    ccc     C1   6038 0.60210000  12.010000   ; qtot -35.358588
 6039         h1    209    ccc     H1   6039 -0.09250000   1.008000   ; qtot -35.451088
 6040         h1    209    ccc     H2   6040 -0.09250000   1.008000   ; qtot -35.543588
 6041         n3    209    ccc     N1   6041 -0.59700000  14.010000   ; qtot -36.140588
 6042         c3    209    ccc     C4   6042 0.32800000  12.010000   ; qtot -35.812588
 6043         h1    209    ccc     H7   6043 -0.07120000   1.008000   ; qtot -35.883788
 6044         h1    209    ccc     H8   6044 -0.07120000   1.008000   ; qtot -35.954988
 6045         c3    209    ccc     C5   6045 -0.39330000  12.010000   ; qtot -36.348288
 6046         hc    209    ccc     H9   6046 0.08130000   1.008000   ; qtot -36.266988
 6047         hc    209    ccc    H10   6047 0.08130000   1.008000   ; qtot -36.185688
 6048          c    209    ccc     C6   6048 1.08970000  12.010000   ; qtot -35.095988
 6049          o    209    ccc     O2   6049 -0.96050000  16.000000   ; qtot -36.056488
 6050          o    209    ccc     O3   6050 -0.96050000  16.000000   ; qtot -37.016988
 6051         c3    209    ccc     C7   6051 0.32800000  12.010000   ; qtot -36.688988
 6052         h1    209    ccc    H11   6052 -0.07120000   1.008000   ; qtot -36.760188
 6053         h1    209    ccc    H12   6053 -0.07120000   1.008000   ; qtot -36.831388
 6054         c3    209    ccc     C8   6054 -0.39330000  12.010000   ; qtot -37.224688
 6055         hc    209    ccc    H13   6055 0.08130000   1.008000   ; qtot -37.143388
 6056         hc    209    ccc    H14   6056 0.08130000   1.008000   ; qtot -37.062088
 6057          c    209    ccc     C9   6057 1.08970000  12.010000   ; qtot -35.972388
 6058          o    209    ccc     O4   6058 -0.96050000  16.000000   ; qtot -36.932888
 6059          o    209    ccc     O5   6059 -0.96050000  16.000000   ; qtot -37.893388
 6060         os    209    ccc     O1   6060 -0.11060000  16.000000   ; qtot -38.003988
; residue  210 ccc rtp ccc q -2.0
 6061         c3    210    ccc     C3   6061 -0.04070000  12.010000   ; qtot -38.044688
 6062         h1    210    ccc     H5   6062 0.04610000   1.008000   ; qtot -37.998588
 6063         h1    210    ccc     H6   6063 0.04610000   1.008000   ; qtot -37.952488
 6064         c3    210    ccc     C2   6064 -0.02540000  12.010000   ; qtot -37.977888
 6065         hc    210    ccc     H3   6065 0.00850000   1.008000   ; qtot -37.969388
 6066         hc    210    ccc     H4   6066 0.00850000   1.008000   ; qtot -37.960888
 6067         c3    210    ccc     C1   6067 0.60210000  12.010000   ; qtot -37.358788
 6068         h1    210    ccc     H1   6068 -0.09250000   1.008000   ; qtot -37.451288
 6069         h1    210    ccc     H2   6069 -0.09250000   1.008000   ; qtot -37.543788
 6070         n3    210    ccc     N1   6070 -0.59700000  14.010000   ; qtot -38.140788
 6071         c3    210    ccc     C4   6071 0.32800000  12.010000   ; qtot -37.812788
 6072         h1    210    ccc     H7   6072 -0.07120000   1.008000   ; qtot -37.883988
 6073         h1    210    ccc     H8   6073 -0.07120000   1.008000   ; qtot -37.955188
 6074         c3    210    ccc     C5   6074 -0.39330000  12.010000   ; qtot -38.348488
 6075         hc    210    ccc     H9   6075 0.08130000   1.008000   ; qtot -38.267188
 6076         hc    210    ccc    H10   6076 0.08130000   1.008000   ; qtot -38.185888
 6077          c    210    ccc     C6   6077 1.08970000  12.010000   ; qtot -37.096188
 6078          o    210    ccc     O2   6078 -0.96050000  16.000000   ; qtot -38.056688
 6079          o    210    ccc     O3   6079 -0.96050000  16.000000   ; qtot -39.017188
 6080         c3    210    ccc     C7   6080 0.32800000  12.010000   ; qtot -38.689188
 6081         h1    210    ccc    H11   6081 -0.07120000   1.008000   ; qtot -38.760388
 6082         h1    210    ccc    H12   6082 -0.07120000   1.008000   ; qtot -38.831588
 6083         c3    210    ccc     C8   6083 -0.39330000  12.010000   ; qtot -39.224888
 6084         hc    210    ccc    H13   6084 0.08130000   1.008000   ; qtot -39.143588
 6085         hc    210    ccc    H14   6085 0.08130000   1.008000   ; qtot -39.062288
 6086          c    210    ccc     C9   6086 1.08970000  12.010000   ; qtot -37.972588
 6087          o    210    ccc     O4   6087 -0.96050000  16.000000   ; qtot -38.933088
 6088          o    210    ccc     O5   6088 -0.96050000  16.000000   ; qtot -39.893589
 6089         os    210    ccc     O1   6089 -0.11060000  16.000000   ; qtot -40.004189
; residue  211 ccc rtp ccc q -2.0
 6090         c3    211    ccc     C3   6090 -0.04070000  12.010000   ; qtot -40.044889
 6091         h1    211    ccc     H5   6091 0.04610000   1.008000   ; qtot -39.998789
 6092         h1    211    ccc     H6   6092 0.04610000   1.008000   ; qtot -39.952689
 6093         c3    211    ccc     C2   6093 -0.02540000  12.010000   ; qtot -39.978089
 6094         hc    211    ccc     H3   6094 0.00850000   1.008000   ; qtot -39.969589
 6095         hc    211    ccc     H4   6095 0.00850000   1.008000   ; qtot -39.961089
 6096         c3    211    ccc     C1   6096 0.60210000  12.010000   ; qtot -39.358989
 6097         h1    211    ccc     H1   6097 -0.09250000   1.008000   ; qtot -39.451489
 6098         h1    211    ccc     H2   6098 -0.09250000   1.008000   ; qtot -39.543989
 6099         n3    211    ccc     N1   6099 -0.59700000  14.010000   ; qtot -40.140989
 6100         c3    211    ccc     C4   6100 0.32800000  12.010000   ; qtot -39.812989
 6101         h1    211    ccc     H7   6101 -0.07120000   1.008000   ; qtot -39.884189
 6102         h1    211    ccc     H8   6102 -0.07120000   1.008000   ; qtot -39.955389
 6103         c3    211    ccc     C5   6103 -0.39330000  12.010000   ; qtot -40.348689
 6104         hc    211    ccc     H9   6104 0.08130000   1.008000   ; qtot -40.267389
 6105         hc    211    ccc    H10   6105 0.08130000   1.008000   ; qtot -40.186089
 6106          c    211    ccc     C6   6106 1.08970000  12.010000   ; qtot -39.096389
 6107          o    211    ccc     O2   6107 -0.96050000  16.000000   ; qtot -40.056889
 6108          o    211    ccc     O3   6108 -0.96050000  16.000000   ; qtot -41.017389
 6109         c3    211    ccc     C7   6109 0.32800000  12.010000   ; qtot -40.689389
 6110         h1    211    ccc    H11   6110 -0.07120000   1.008000   ; qtot -40.760589
 6111         h1    211    ccc    H12   6111 -0.07120000   1.008000   ; qtot -40.831789
 6112         c3    211    ccc     C8   6112 -0.39330000  12.010000   ; qtot -41.225089
 6113         hc    211    ccc    H13   6113 0.08130000   1.008000   ; qtot -41.143789
 6114         hc    211    ccc    H14   6114 0.08130000   1.008000   ; qtot -41.062489
 6115          c    211    ccc     C9   6115 1.08970000  12.010000   ; qtot -39.972789
 6116          o    211    ccc     O4   6116 -0.96050000  16.000000   ; qtot -40.933289
 6117          o    211    ccc     O5   6117 -0.96050000  16.000000   ; qtot -41.893789
 6118         os    211    ccc     O1   6118 -0.11060000  16.000000   ; qtot -42.004389
; residue  212 ccc rtp ccc q -2.0
 6119         c3    212    ccc     C3   6119 -0.04070000  12.010000   ; qtot -42.045089
 6120         h1    212    ccc     H5   6120 0.04610000   1.008000   ; qtot -41.998989
 6121         h1    212    ccc     H6   6121 0.04610000   1.008000   ; qtot -41.952889
 6122         c3    212    ccc     C2   6122 -0.02540000  12.010000   ; qtot -41.978289
 6123         hc    212    ccc     H3   6123 0.00850000   1.008000   ; qtot -41.969789
 6124         hc    212    ccc     H4   6124 0.00850000   1.008000   ; qtot -41.961289
 6125         c3    212    ccc     C1   6125 0.60210000  12.010000   ; qtot -41.359189
 6126         h1    212    ccc     H1   6126 -0.09250000   1.008000   ; qtot -41.451689
 6127         h1    212    ccc     H2   6127 -0.09250000   1.008000   ; qtot -41.544189
 6128         n3    212    ccc     N1   6128 -0.59700000  14.010000   ; qtot -42.141189
 6129         c3    212    ccc     C4   6129 0.32800000  12.010000   ; qtot -41.813189
 6130         h1    212    ccc     H7   6130 -0.07120000   1.008000   ; qtot -41.884389
 6131         h1    212    ccc     H8   6131 -0.07120000   1.008000   ; qtot -41.955589
 6132         c3    212    ccc     C5   6132 -0.39330000  12.010000   ; qtot -42.348889
 6133         hc    212    ccc     H9   6133 0.08130000   1.008000   ; qtot -42.267589
 6134         hc    212    ccc    H10   6134 0.08130000   1.008000   ; qtot -42.186289
 6135          c    212    ccc     C6   6135 1.08970000  12.010000   ; qtot -41.096589
 6136          o    212    ccc     O2   6136 -0.96050000  16.000000   ; qtot -42.057089
 6137          o    212    ccc     O3   6137 -0.96050000  16.000000   ; qtot -43.017589
 6138         c3    212    ccc     C7   6138 0.32800000  12.010000   ; qtot -42.689589
 6139         h1    212    ccc    H11   6139 -0.07120000   1.008000   ; qtot -42.760789
 6140         h1    212    ccc    H12   6140 -0.07120000   1.008000   ; qtot -42.831989
 6141         c3    212    ccc     C8   6141 -0.39330000  12.010000   ; qtot -43.225289
 6142         hc    212    ccc    H13   6142 0.08130000   1.008000   ; qtot -43.143989
 6143         hc    212    ccc    H14   6143 0.08130000   1.008000   ; qtot -43.062689
 6144          c    212    ccc     C9   6144 1.08970000  12.010000   ; qtot -41.972989
 6145          o    212    ccc     O4   6145 -0.96050000  16.000000   ; qtot -42.933489
 6146          o    212    ccc     O5   6146 -0.96050000  16.000000   ; qtot -43.893989
 6147         os    212    ccc     O1   6147 -0.11060000  16.000000   ; qtot -44.004589
; residue  213 ccc rtp ccc q -2.0
 6148         c3    213    ccc     C3   6148 -0.04070000  12.010000   ; qtot -44.045289
 6149         h1    213    ccc     H5   6149 0.04610000   1.008000   ; qtot -43.999189
 6150         h1    213    ccc     H6   6150 0.04610000   1.008000   ; qtot -43.953089
 6151         c3    213    ccc     C2   6151 -0.02540000  12.010000   ; qtot -43.978489
 6152         hc    213    ccc     H3   6152 0.00850000   1.008000   ; qtot -43.969989
 6153         hc    213    ccc     H4   6153 0.00850000   1.008000   ; qtot -43.961489
 6154         c3    213    ccc     C1   6154 0.60210000  12.010000   ; qtot -43.359389
 6155         h1    213    ccc     H1   6155 -0.09250000   1.008000   ; qtot -43.451889
 6156         h1    213    ccc     H2   6156 -0.09250000   1.008000   ; qtot -43.544389
 6157         n3    213    ccc     N1   6157 -0.59700000  14.010000   ; qtot -44.141389
 6158         c3    213    ccc     C4   6158 0.32800000  12.010000   ; qtot -43.813389
 6159         h1    213    ccc     H7   6159 -0.07120000   1.008000   ; qtot -43.884589
 6160         h1    213    ccc     H8   6160 -0.07120000   1.008000   ; qtot -43.955789
 6161         c3    213    ccc     C5   6161 -0.39330000  12.010000   ; qtot -44.349089
 6162         hc    213    ccc     H9   6162 0.08130000   1.008000   ; qtot -44.267789
 6163         hc    213    ccc    H10   6163 0.08130000   1.008000   ; qtot -44.186489
 6164          c    213    ccc     C6   6164 1.08970000  12.010000   ; qtot -43.096789
 6165          o    213    ccc     O2   6165 -0.96050000  16.000000   ; qtot -44.057289
 6166          o    213    ccc     O3   6166 -0.96050000  16.000000   ; qtot -45.017789
 6167         c3    213    ccc     C7   6167 0.32800000  12.010000   ; qtot -44.689789
 6168         h1    213    ccc    H11   6168 -0.07120000   1.008000   ; qtot -44.760989
 6169         h1    213    ccc    H12   6169 -0.07120000   1.008000   ; qtot -44.832189
 6170         c3    213    ccc     C8   6170 -0.39330000  12.010000   ; qtot -45.225489
 6171         hc    213    ccc    H13   6171 0.08130000   1.008000   ; qtot -45.144189
 6172         hc    213    ccc    H14   6172 0.08130000   1.008000   ; qtot -45.062889
 6173          c    213    ccc     C9   6173 1.08970000  12.010000   ; qtot -43.973189
 6174          o    213    ccc     O4   6174 -0.96050000  16.000000   ; qtot -44.933689
 6175          o    213    ccc     O5   6175 -0.96050000  16.000000   ; qtot -45.894189
 6176         os    213    ccc     O1   6176 -0.11060000  16.000000   ; qtot -46.004789
; residue  214 ccc rtp ccc q -2.0
 6177         c3    214    ccc     C3   6177 -0.04070000  12.010000   ; qtot -46.045489
 6178         h1    214    ccc     H5   6178 0.04610000   1.008000   ; qtot -45.999389
 6179         h1    214    ccc     H6   6179 0.04610000   1.008000   ; qtot -45.953289
 6180         c3    214    ccc     C2   6180 -0.02540000  12.010000   ; qtot -45.978689
 6181         hc    214    ccc     H3   6181 0.00850000   1.008000   ; qtot -45.970189
 6182         hc    214    ccc     H4   6182 0.00850000   1.008000   ; qtot -45.961689
 6183         c3    214    ccc     C1   6183 0.60210000  12.010000   ; qtot -45.359589
 6184         h1    214    ccc     H1   6184 -0.09250000   1.008000   ; qtot -45.452089
 6185         h1    214    ccc     H2   6185 -0.09250000   1.008000   ; qtot -45.544589
 6186         n3    214    ccc     N1   6186 -0.59700000  14.010000   ; qtot -46.141589
 6187         c3    214    ccc     C4   6187 0.32800000  12.010000   ; qtot -45.813589
 6188         h1    214    ccc     H7   6188 -0.07120000   1.008000   ; qtot -45.884789
 6189         h1    214    ccc     H8   6189 -0.07120000   1.008000   ; qtot -45.955989
 6190         c3    214    ccc     C5   6190 -0.39330000  12.010000   ; qtot -46.349289
 6191         hc    214    ccc     H9   6191 0.08130000   1.008000   ; qtot -46.267989
 6192         hc    214    ccc    H10   6192 0.08130000   1.008000   ; qtot -46.186689
 6193          c    214    ccc     C6   6193 1.08970000  12.010000   ; qtot -45.096989
 6194          o    214    ccc     O2   6194 -0.96050000  16.000000   ; qtot -46.057489
 6195          o    214    ccc     O3   6195 -0.96050000  16.000000   ; qtot -47.017989
 6196         c3    214    ccc     C7   6196 0.32800000  12.010000   ; qtot -46.689989
 6197         h1    214    ccc    H11   6197 -0.07120000   1.008000   ; qtot -46.761189
 6198         h1    214    ccc    H12   6198 -0.07120000   1.008000   ; qtot -46.832389
 6199         c3    214    ccc     C8   6199 -0.39330000  12.010000   ; qtot -47.225689
 6200         hc    214    ccc    H13   6200 0.08130000   1.008000   ; qtot -47.144389
 6201         hc    214    ccc    H14   6201 0.08130000   1.008000   ; qtot -47.063089
 6202          c    214    ccc     C9   6202 1.08970000  12.010000   ; qtot -45.973389
 6203          o    214    ccc     O4   6203 -0.96050000  16.000000   ; qtot -46.933889
 6204          o    214    ccc     O5   6204 -0.96050000  16.000000   ; qtot -47.894389
 6205         os    214    ccc     O1   6205 -0.11060000  16.000000   ; qtot -48.004989
; residue  215 ccc rtp ccc q -2.0
 6206         c3    215    ccc     C3   6206 -0.04070000  12.010000   ; qtot -48.045689
 6207         h1    215    ccc     H5   6207 0.04610000   1.008000   ; qtot -47.999589
 6208         h1    215    ccc     H6   6208 0.04610000   1.008000   ; qtot -47.953489
 6209         c3    215    ccc     C2   6209 -0.02540000  12.010000   ; qtot -47.978889
 6210         hc    215    ccc     H3   6210 0.00850000   1.008000   ; qtot -47.970389
 6211         hc    215    ccc     H4   6211 0.00850000   1.008000   ; qtot -47.961889
 6212         c3    215    ccc     C1   6212 0.60210000  12.010000   ; qtot -47.359789
 6213         h1    215    ccc     H1   6213 -0.09250000   1.008000   ; qtot -47.452289
 6214         h1    215    ccc     H2   6214 -0.09250000   1.008000   ; qtot -47.544789
 6215         n3    215    ccc     N1   6215 -0.59700000  14.010000   ; qtot -48.141789
 6216         c3    215    ccc     C4   6216 0.32800000  12.010000   ; qtot -47.813789
 6217         h1    215    ccc     H7   6217 -0.07120000   1.008000   ; qtot -47.884989
 6218         h1    215    ccc     H8   6218 -0.07120000   1.008000   ; qtot -47.956189
 6219         c3    215    ccc     C5   6219 -0.39330000  12.010000   ; qtot -48.349489
 6220         hc    215    ccc     H9   6220 0.08130000   1.008000   ; qtot -48.268189
 6221         hc    215    ccc    H10   6221 0.08130000   1.008000   ; qtot -48.186889
 6222          c    215    ccc     C6   6222 1.08970000  12.010000   ; qtot -47.097189
 6223          o    215    ccc     O2   6223 -0.96050000  16.000000   ; qtot -48.057689
 6224          o    215    ccc     O3   6224 -0.96050000  16.000000   ; qtot -49.018189
 6225         c3    215    ccc     C7   6225 0.32800000  12.010000   ; qtot -48.690189
 6226         h1    215    ccc    H11   6226 -0.07120000   1.008000   ; qtot -48.761389
 6227         h1    215    ccc    H12   6227 -0.07120000   1.008000   ; qtot -48.832589
 6228         c3    215    ccc     C8   6228 -0.39330000  12.010000   ; qtot -49.225889
 6229         hc    215    ccc    H13   6229 0.08130000   1.008000   ; qtot -49.144589
 6230         hc    215    ccc    H14   6230 0.08130000   1.008000   ; qtot -49.063289
 6231          c    215    ccc     C9   6231 1.08970000  12.010000   ; qtot -47.973589
 6232          o    215    ccc     O4   6232 -0.96050000  16.000000   ; qtot -48.934089
 6233          o    215    ccc     O5   6233 -0.96050000  16.000000   ; qtot -49.894589
 6234         os    215    ccc     O1   6234 -0.11060000  16.000000   ; qtot -50.005189
; residue  216 ccc rtp ccc q -2.0
 6235         c3    216    ccc     C3   6235 -0.04070000  12.010000   ; qtot -50.045889
 6236         h1    216    ccc     H5   6236 0.04610000   1.008000   ; qtot -49.999789
 6237         h1    216    ccc     H6   6237 0.04610000   1.008000   ; qtot -49.953689
 6238         c3    216    ccc     C2   6238 -0.02540000  12.010000   ; qtot -49.979089
 6239         hc    216    ccc     H3   6239 0.00850000   1.008000   ; qtot -49.970589
 6240         hc    216    ccc     H4   6240 0.00850000   1.008000   ; qtot -49.962089
 6241         c3    216    ccc     C1   6241 0.60210000  12.010000   ; qtot -49.359989
 6242         h1    216    ccc     H1   6242 -0.09250000   1.008000   ; qtot -49.452489
 6243         h1    216    ccc     H2   6243 -0.09250000   1.008000   ; qtot -49.544989
 6244         n3    216    ccc     N1   6244 -0.59700000  14.010000   ; qtot -50.141989
 6245         c3    216    ccc     C4   6245 0.32800000  12.010000   ; qtot -49.813989
 6246         h1    216    ccc     H7   6246 -0.07120000   1.008000   ; qtot -49.885189
 6247         h1    216    ccc     H8   6247 -0.07120000   1.008000   ; qtot -49.956389
 6248         c3    216    ccc     C5   6248 -0.39330000  12.010000   ; qtot -50.349689
 6249         hc    216    ccc     H9   6249 0.08130000   1.008000   ; qtot -50.268389
 6250         hc    216    ccc    H10   6250 0.08130000   1.008000   ; qtot -50.187089
 6251          c    216    ccc     C6   6251 1.08970000  12.010000   ; qtot -49.097389
 6252          o    216    ccc     O2   6252 -0.96050000  16.000000   ; qtot -50.057889
 6253          o    216    ccc     O3   6253 -0.96050000  16.000000   ; qtot -51.018389
 6254         c3    216    ccc     C7   6254 0.32800000  12.010000   ; qtot -50.690389
 6255         h1    216    ccc    H11   6255 -0.07120000   1.008000   ; qtot -50.761589
 6256         h1    216    ccc    H12   6256 -0.07120000   1.008000   ; qtot -50.832789
 6257         c3    216    ccc     C8   6257 -0.39330000  12.010000   ; qtot -51.226089
 6258         hc    216    ccc    H13   6258 0.08130000   1.008000   ; qtot -51.144789
 6259         hc    216    ccc    H14   6259 0.08130000   1.008000   ; qtot -51.063489
 6260          c    216    ccc     C9   6260 1.08970000  12.010000   ; qtot -49.973789
 6261          o    216    ccc     O4   6261 -0.96050000  16.000000   ; qtot -50.934289
 6262          o    216    ccc     O5   6262 -0.96050000  16.000000   ; qtot -51.894789
 6263         os    216    ccc     O1   6263 -0.11060000  16.000000   ; qtot -52.005389
; residue  217 ccc rtp ccc q -2.0
 6264         c3    217    ccc     C3   6264 -0.04070000  12.010000   ; qtot -52.046089
 6265         h1    217    ccc     H5   6265 0.04610000   1.008000   ; qtot -51.999989
 6266         h1    217    ccc     H6   6266 0.04610000   1.008000   ; qtot -51.953889
 6267         c3    217    ccc     C2   6267 -0.02540000  12.010000   ; qtot -51.979289
 6268         hc    217    ccc     H3   6268 0.00850000   1.008000   ; qtot -51.970789
 6269         hc    217    ccc     H4   6269 0.00850000   1.008000   ; qtot -51.962289
 6270         c3    217    ccc     C1   6270 0.60210000  12.010000   ; qtot -51.360189
 6271         h1    217    ccc     H1   6271 -0.09250000   1.008000   ; qtot -51.452689
 6272         h1    217    ccc     H2   6272 -0.09250000   1.008000   ; qtot -51.545189
 6273         n3    217    ccc     N1   6273 -0.59700000  14.010000   ; qtot -52.142189
 6274         c3    217    ccc     C4   6274 0.32800000  12.010000   ; qtot -51.814189
 6275         h1    217    ccc     H7   6275 -0.07120000   1.008000   ; qtot -51.885389
 6276         h1    217    ccc     H8   6276 -0.07120000   1.008000   ; qtot -51.956589
 6277         c3    217    ccc     C5   6277 -0.39330000  12.010000   ; qtot -52.349889
 6278         hc    217    ccc     H9   6278 0.08130000   1.008000   ; qtot -52.268589
 6279         hc    217    ccc    H10   6279 0.08130000   1.008000   ; qtot -52.187289
 6280          c    217    ccc     C6   6280 1.08970000  12.010000   ; qtot -51.097589
 6281          o    217    ccc     O2   6281 -0.96050000  16.000000   ; qtot -52.058089
 6282          o    217    ccc     O3   6282 -0.96050000  16.000000   ; qtot -53.018589
 6283         c3    217    ccc     C7   6283 0.32800000  12.010000   ; qtot -52.690589
 6284         h1    217    ccc    H11   6284 -0.07120000   1.008000   ; qtot -52.761789
 6285         h1    217    ccc    H12   6285 -0.07120000   1.008000   ; qtot -52.832989
 6286         c3    217    ccc     C8   6286 -0.39330000  12.010000   ; qtot -53.226289
 6287         hc    217    ccc    H13   6287 0.08130000   1.008000   ; qtot -53.144989
 6288         hc    217    ccc    H14   6288 0.08130000   1.008000   ; qtot -53.063689
 6289          c    217    ccc     C9   6289 1.08970000  12.010000   ; qtot -51.973989
 6290          o    217    ccc     O4   6290 -0.96050000  16.000000   ; qtot -52.934489
 6291          o    217    ccc     O5   6291 -0.96050000  16.000000   ; qtot -53.894989
 6292         os    217    ccc     O1   6292 -0.11060000  16.000000   ; qtot -54.005589
; residue  218 ccc rtp ccc q -2.0
 6293         c3    218    ccc     C3   6293 -0.04070000  12.010000   ; qtot -54.046289
 6294         h1    218    ccc     H5   6294 0.04610000   1.008000   ; qtot -54.000189
 6295         h1    218    ccc     H6   6295 0.04610000   1.008000   ; qtot -53.954089
 6296         c3    218    ccc     C2   6296 -0.02540000  12.010000   ; qtot -53.979489
 6297         hc    218    ccc     H3   6297 0.00850000   1.008000   ; qtot -53.970989
 6298         hc    218    ccc     H4   6298 0.00850000   1.008000   ; qtot -53.962489
 6299         c3    218    ccc     C1   6299 0.60210000  12.010000   ; qtot -53.360389
 6300         h1    218    ccc     H1   6300 -0.09250000   1.008000   ; qtot -53.452889
 6301         h1    218    ccc     H2   6301 -0.09250000   1.008000   ; qtot -53.545389
 6302         n3    218    ccc     N1   6302 -0.59700000  14.010000   ; qtot -54.142389
 6303         c3    218    ccc     C4   6303 0.32800000  12.010000   ; qtot -53.814389
 6304         h1    218    ccc     H7   6304 -0.07120000   1.008000   ; qtot -53.885589
 6305         h1    218    ccc     H8   6305 -0.07120000   1.008000   ; qtot -53.956789
 6306         c3    218    ccc     C5   6306 -0.39330000  12.010000   ; qtot -54.350089
 6307         hc    218    ccc     H9   6307 0.08130000   1.008000   ; qtot -54.268789
 6308         hc    218    ccc    H10   6308 0.08130000   1.008000   ; qtot -54.187489
 6309          c    218    ccc     C6   6309 1.08970000  12.010000   ; qtot -53.097789
 6310          o    218    ccc     O2   6310 -0.96050000  16.000000   ; qtot -54.058289
 6311          o    218    ccc     O3   6311 -0.96050000  16.000000   ; qtot -55.018789
 6312         c3    218    ccc     C7   6312 0.32800000  12.010000   ; qtot -54.690789
 6313         h1    218    ccc    H11   6313 -0.07120000   1.008000   ; qtot -54.761989
 6314         h1    218    ccc    H12   6314 -0.07120000   1.008000   ; qtot -54.833189
 6315         c3    218    ccc     C8   6315 -0.39330000  12.010000   ; qtot -55.226489
 6316         hc    218    ccc    H13   6316 0.08130000   1.008000   ; qtot -55.145189
 6317         hc    218    ccc    H14   6317 0.08130000   1.008000   ; qtot -55.063889
 6318          c    218    ccc     C9   6318 1.08970000  12.010000   ; qtot -53.974189
 6319          o    218    ccc     O4   6319 -0.96050000  16.000000   ; qtot -54.934689
 6320          o    218    ccc     O5   6320 -0.96050000  16.000000   ; qtot -55.895189
 6321         os    218    ccc     O1   6321 -0.11060000  16.000000   ; qtot -56.005789
; residue  219 ccc rtp ccc q -2.0
 6322         c3    219    ccc     C3   6322 -0.04070000  12.010000   ; qtot -56.046489
 6323         h1    219    ccc     H5   6323 0.04610000   1.008000   ; qtot -56.000389
 6324         h1    219    ccc     H6   6324 0.04610000   1.008000   ; qtot -55.954289
 6325         c3    219    ccc     C2   6325 -0.02540000  12.010000   ; qtot -55.979689
 6326         hc    219    ccc     H3   6326 0.00850000   1.008000   ; qtot -55.971189
 6327         hc    219    ccc     H4   6327 0.00850000   1.008000   ; qtot -55.962689
 6328         c3    219    ccc     C1   6328 0.60210000  12.010000   ; qtot -55.360589
 6329         h1    219    ccc     H1   6329 -0.09250000   1.008000   ; qtot -55.453089
 6330         h1    219    ccc     H2   6330 -0.09250000   1.008000   ; qtot -55.545589
 6331         n3    219    ccc     N1   6331 -0.59700000  14.010000   ; qtot -56.142589
 6332         c3    219    ccc     C4   6332 0.32800000  12.010000   ; qtot -55.814589
 6333         h1    219    ccc     H7   6333 -0.07120000   1.008000   ; qtot -55.885789
 6334         h1    219    ccc     H8   6334 -0.07120000   1.008000   ; qtot -55.956989
 6335         c3    219    ccc     C5   6335 -0.39330000  12.010000   ; qtot -56.350289
 6336         hc    219    ccc     H9   6336 0.08130000   1.008000   ; qtot -56.268989
 6337         hc    219    ccc    H10   6337 0.08130000   1.008000   ; qtot -56.187689
 6338          c    219    ccc     C6   6338 1.08970000  12.010000   ; qtot -55.097989
 6339          o    219    ccc     O2   6339 -0.96050000  16.000000   ; qtot -56.058489
 6340          o    219    ccc     O3   6340 -0.96050000  16.000000   ; qtot -57.018989
 6341         c3    219    ccc     C7   6341 0.32800000  12.010000   ; qtot -56.690989
 6342         h1    219    ccc    H11   6342 -0.07120000   1.008000   ; qtot -56.762189
 6343         h1    219    ccc    H12   6343 -0.07120000   1.008000   ; qtot -56.833389
 6344         c3    219    ccc     C8   6344 -0.39330000  12.010000   ; qtot -57.226689
 6345         hc    219    ccc    H13   6345 0.08130000   1.008000   ; qtot -57.145389
 6346         hc    219    ccc    H14   6346 0.08130000   1.008000   ; qtot -57.064089
 6347          c    219    ccc     C9   6347 1.08970000  12.010000   ; qtot -55.974389
 6348          o    219    ccc     O4   6348 -0.96050000  16.000000   ; qtot -56.934889
 6349          o    219    ccc     O5   6349 -0.96050000  16.000000   ; qtot -57.895389
 6350         os    219    ccc     O1   6350 -0.11060000  16.000000   ; qtot -58.005989
; residue  220 ccc rtp ccc q -2.0
 6351         c3    220    ccc     C3   6351 -0.04070000  12.010000   ; qtot -58.046689
 6352         h1    220    ccc     H5   6352 0.04610000   1.008000   ; qtot -58.000589
 6353         h1    220    ccc     H6   6353 0.04610000   1.008000   ; qtot -57.954489
 6354         c3    220    ccc     C2   6354 -0.02540000  12.010000   ; qtot -57.979889
 6355         hc    220    ccc     H3   6355 0.00850000   1.008000   ; qtot -57.971389
 6356         hc    220    ccc     H4   6356 0.00850000   1.008000   ; qtot -57.962889
 6357         c3    220    ccc     C1   6357 0.60210000  12.010000   ; qtot -57.360789
 6358         h1    220    ccc     H1   6358 -0.09250000   1.008000   ; qtot -57.453289
 6359         h1    220    ccc     H2   6359 -0.09250000   1.008000   ; qtot -57.545789
 6360         n3    220    ccc     N1   6360 -0.59700000  14.010000   ; qtot -58.142789
 6361         c3    220    ccc     C4   6361 0.32800000  12.010000   ; qtot -57.814789
 6362         h1    220    ccc     H7   6362 -0.07120000   1.008000   ; qtot -57.885989
 6363         h1    220    ccc     H8   6363 -0.07120000   1.008000   ; qtot -57.957189
 6364         c3    220    ccc     C5   6364 -0.39330000  12.010000   ; qtot -58.350489
 6365         hc    220    ccc     H9   6365 0.08130000   1.008000   ; qtot -58.269189
 6366         hc    220    ccc    H10   6366 0.08130000   1.008000   ; qtot -58.187889
 6367          c    220    ccc     C6   6367 1.08970000  12.010000   ; qtot -57.098189
 6368          o    220    ccc     O2   6368 -0.96050000  16.000000   ; qtot -58.058689
 6369          o    220    ccc     O3   6369 -0.96050000  16.000000   ; qtot -59.019189
 6370         c3    220    ccc     C7   6370 0.32800000  12.010000   ; qtot -58.691189
 6371         h1    220    ccc    H11   6371 -0.07120000   1.008000   ; qtot -58.762389
 6372         h1    220    ccc    H12   6372 -0.07120000   1.008000   ; qtot -58.833589
 6373         c3    220    ccc     C8   6373 -0.39330000  12.010000   ; qtot -59.226889
 6374         hc    220    ccc    H13   6374 0.08130000   1.008000   ; qtot -59.145589
 6375         hc    220    ccc    H14   6375 0.08130000   1.008000   ; qtot -59.064289
 6376          c    220    ccc     C9   6376 1.08970000  12.010000   ; qtot -57.974589
 6377          o    220    ccc     O4   6377 -0.96050000  16.000000   ; qtot -58.935089
 6378          o    220    ccc     O5   6378 -0.96050000  16.000000   ; qtot -59.895589
 6379         os    220    ccc     O1   6379 -0.11060000  16.000000   ; qtot -60.006189
; residue  221 ccc rtp ccc q -2.0
 6380         c3    221    ccc     C3   6380 -0.04070000  12.010000   ; qtot -60.046889
 6381         h1    221    ccc     H5   6381 0.04610000   1.008000   ; qtot -60.000789
 6382         h1    221    ccc     H6   6382 0.04610000   1.008000   ; qtot -59.954689
 6383         c3    221    ccc     C2   6383 -0.02540000  12.010000   ; qtot -59.980089
 6384         hc    221    ccc     H3   6384 0.00850000   1.008000   ; qtot -59.971589
 6385         hc    221    ccc     H4   6385 0.00850000   1.008000   ; qtot -59.963089
 6386         c3    221    ccc     C1   6386 0.60210000  12.010000   ; qtot -59.360989
 6387         h1    221    ccc     H1   6387 -0.09250000   1.008000   ; qtot -59.453489
 6388         h1    221    ccc     H2   6388 -0.09250000   1.008000   ; qtot -59.545989
 6389         n3    221    ccc     N1   6389 -0.59700000  14.010000   ; qtot -60.142989
 6390         c3    221    ccc     C4   6390 0.32800000  12.010000   ; qtot -59.814989
 6391         h1    221    ccc     H7   6391 -0.07120000   1.008000   ; qtot -59.886189
 6392         h1    221    ccc     H8   6392 -0.07120000   1.008000   ; qtot -59.957389
 6393         c3    221    ccc     C5   6393 -0.39330000  12.010000   ; qtot -60.350689
 6394         hc    221    ccc     H9   6394 0.08130000   1.008000   ; qtot -60.269389
 6395         hc    221    ccc    H10   6395 0.08130000   1.008000   ; qtot -60.188089
 6396          c    221    ccc     C6   6396 1.08970000  12.010000   ; qtot -59.098389
 6397          o    221    ccc     O2   6397 -0.96050000  16.000000   ; qtot -60.058889
 6398          o    221    ccc     O3   6398 -0.96050000  16.000000   ; qtot -61.019389
 6399         c3    221    ccc     C7   6399 0.32800000  12.010000   ; qtot -60.691389
 6400         h1    221    ccc    H11   6400 -0.07120000   1.008000   ; qtot -60.762589
 6401         h1    221    ccc    H12   6401 -0.07120000   1.008000   ; qtot -60.833789
 6402         c3    221    ccc     C8   6402 -0.39330000  12.010000   ; qtot -61.227089
 6403         hc    221    ccc    H13   6403 0.08130000   1.008000   ; qtot -61.145789
 6404         hc    221    ccc    H14   6404 0.08130000   1.008000   ; qtot -61.064489
 6405          c    221    ccc     C9   6405 1.08970000  12.010000   ; qtot -59.974789
 6406          o    221    ccc     O4   6406 -0.96050000  16.000000   ; qtot -60.935289
 6407          o    221    ccc     O5   6407 -0.96050000  16.000000   ; qtot -61.895789
 6408         os    221    ccc     O1   6408 -0.11060000  16.000000   ; qtot -62.006389
; residue  222 ccc rtp ccc q -2.0
 6409         c3    222    ccc     C3   6409 -0.04070000  12.010000   ; qtot -62.047089
 6410         h1    222    ccc     H5   6410 0.04610000   1.008000   ; qtot -62.000989
 6411         h1    222    ccc     H6   6411 0.04610000   1.008000   ; qtot -61.954889
 6412         c3    222    ccc     C2   6412 -0.02540000  12.010000   ; qtot -61.980289
 6413         hc    222    ccc     H3   6413 0.00850000   1.008000   ; qtot -61.971789
 6414         hc    222    ccc     H4   6414 0.00850000   1.008000   ; qtot -61.963289
 6415         c3    222    ccc     C1   6415 0.60210000  12.010000   ; qtot -61.361189
 6416         h1    222    ccc     H1   6416 -0.09250000   1.008000   ; qtot -61.453689
 6417         h1    222    ccc     H2   6417 -0.09250000   1.008000   ; qtot -61.546189
 6418         n3    222    ccc     N1   6418 -0.59700000  14.010000   ; qtot -62.143189
 6419         c3    222    ccc     C4   6419 0.32800000  12.010000   ; qtot -61.815189
 6420         h1    222    ccc     H7   6420 -0.07120000   1.008000   ; qtot -61.886389
 6421         h1    222    ccc     H8   6421 -0.07120000   1.008000   ; qtot -61.957589
 6422         c3    222    ccc     C5   6422 -0.39330000  12.010000   ; qtot -62.350889
 6423         hc    222    ccc     H9   6423 0.08130000   1.008000   ; qtot -62.269589
 6424         hc    222    ccc    H10   6424 0.08130000   1.008000   ; qtot -62.188289
 6425          c    222    ccc     C6   6425 1.08970000  12.010000   ; qtot -61.098589
 6426          o    222    ccc     O2   6426 -0.96050000  16.000000   ; qtot -62.059089
 6427          o    222    ccc     O3   6427 -0.96050000  16.000000   ; qtot -63.019589
 6428         c3    222    ccc     C7   6428 0.32800000  12.010000   ; qtot -62.691589
 6429         h1    222    ccc    H11   6429 -0.07120000   1.008000   ; qtot -62.762789
 6430         h1    222    ccc    H12   6430 -0.07120000   1.008000   ; qtot -62.833989
 6431         c3    222    ccc     C8   6431 -0.39330000  12.010000   ; qtot -63.227289
 6432         hc    222    ccc    H13   6432 0.08130000   1.008000   ; qtot -63.145989
 6433         hc    222    ccc    H14   6433 0.08130000   1.008000   ; qtot -63.064689
 6434          c    222    ccc     C9   6434 1.08970000  12.010000   ; qtot -61.974989
 6435          o    222    ccc     O4   6435 -0.96050000  16.000000   ; qtot -62.935489
 6436          o    222    ccc     O5   6436 -0.96050000  16.000000   ; qtot -63.895989
 6437         os    222    ccc     O1   6437 -0.11060000  16.000000   ; qtot -64.006589
; residue  223 ccc rtp ccc q -2.0
 6438         c3    223    ccc     C3   6438 -0.04070000  12.010000   ; qtot -64.047289
 6439         h1    223    ccc     H5   6439 0.04610000   1.008000   ; qtot -64.001189
 6440         h1    223    ccc     H6   6440 0.04610000   1.008000   ; qtot -63.955089
 6441         c3    223    ccc     C2   6441 -0.02540000  12.010000   ; qtot -63.980489
 6442         hc    223    ccc     H3   6442 0.00850000   1.008000   ; qtot -63.971989
 6443         hc    223    ccc     H4   6443 0.00850000   1.008000   ; qtot -63.963489
 6444         c3    223    ccc     C1   6444 0.60210000  12.010000   ; qtot -63.361389
 6445         h1    223    ccc     H1   6445 -0.09250000   1.008000   ; qtot -63.453889
 6446         h1    223    ccc     H2   6446 -0.09250000   1.008000   ; qtot -63.546389
 6447         n3    223    ccc     N1   6447 -0.59700000  14.010000   ; qtot -64.143389
 6448         c3    223    ccc     C4   6448 0.32800000  12.010000   ; qtot -63.815389
 6449         h1    223    ccc     H7   6449 -0.07120000   1.008000   ; qtot -63.886589
 6450         h1    223    ccc     H8   6450 -0.07120000   1.008000   ; qtot -63.957789
 6451         c3    223    ccc     C5   6451 -0.39330000  12.010000   ; qtot -64.351089
 6452         hc    223    ccc     H9   6452 0.08130000   1.008000   ; qtot -64.269789
 6453         hc    223    ccc    H10   6453 0.08130000   1.008000   ; qtot -64.188489
 6454          c    223    ccc     C6   6454 1.08970000  12.010000   ; qtot -63.098789
 6455          o    223    ccc     O2   6455 -0.96050000  16.000000   ; qtot -64.059289
 6456          o    223    ccc     O3   6456 -0.96050000  16.000000   ; qtot -65.019789
 6457         c3    223    ccc     C7   6457 0.32800000  12.010000   ; qtot -64.691789
 6458         h1    223    ccc    H11   6458 -0.07120000   1.008000   ; qtot -64.762989
 6459         h1    223    ccc    H12   6459 -0.07120000   1.008000   ; qtot -64.834189
 6460         c3    223    ccc     C8   6460 -0.39330000  12.010000   ; qtot -65.227489
 6461         hc    223    ccc    H13   6461 0.08130000   1.008000   ; qtot -65.146189
 6462         hc    223    ccc    H14   6462 0.08130000   1.008000   ; qtot -65.064889
 6463          c    223    ccc     C9   6463 1.08970000  12.010000   ; qtot -63.975189
 6464          o    223    ccc     O4   6464 -0.96050000  16.000000   ; qtot -64.935689
 6465          o    223    ccc     O5   6465 -0.96050000  16.000000   ; qtot -65.896189
 6466         os    223    ccc     O1   6466 -0.11060000  16.000000   ; qtot -66.006789
; residue  224 ccc rtp ccc q -2.0
 6467         c3    224    ccc     C3   6467 -0.04070000  12.010000   ; qtot -66.047489
 6468         h1    224    ccc     H5   6468 0.04610000   1.008000   ; qtot -66.001389
 6469         h1    224    ccc     H6   6469 0.04610000   1.008000   ; qtot -65.955289
 6470         c3    224    ccc     C2   6470 -0.02540000  12.010000   ; qtot -65.980689
 6471         hc    224    ccc     H3   6471 0.00850000   1.008000   ; qtot -65.972189
 6472         hc    224    ccc     H4   6472 0.00850000   1.008000   ; qtot -65.963689
 6473         c3    224    ccc     C1   6473 0.60210000  12.010000   ; qtot -65.361589
 6474         h1    224    ccc     H1   6474 -0.09250000   1.008000   ; qtot -65.454089
 6475         h1    224    ccc     H2   6475 -0.09250000   1.008000   ; qtot -65.546589
 6476         n3    224    ccc     N1   6476 -0.59700000  14.010000   ; qtot -66.143589
 6477         c3    224    ccc     C4   6477 0.32800000  12.010000   ; qtot -65.815589
 6478         h1    224    ccc     H7   6478 -0.07120000   1.008000   ; qtot -65.886789
 6479         h1    224    ccc     H8   6479 -0.07120000   1.008000   ; qtot -65.957989
 6480         c3    224    ccc     C5   6480 -0.39330000  12.010000   ; qtot -66.351289
 6481         hc    224    ccc     H9   6481 0.08130000   1.008000   ; qtot -66.269989
 6482         hc    224    ccc    H10   6482 0.08130000   1.008000   ; qtot -66.188689
 6483          c    224    ccc     C6   6483 1.08970000  12.010000   ; qtot -65.098989
 6484          o    224    ccc     O2   6484 -0.96050000  16.000000   ; qtot -66.059489
 6485          o    224    ccc     O3   6485 -0.96050000  16.000000   ; qtot -67.019989
 6486         c3    224    ccc     C7   6486 0.32800000  12.010000   ; qtot -66.691989
 6487         h1    224    ccc    H11   6487 -0.07120000   1.008000   ; qtot -66.763189
 6488         h1    224    ccc    H12   6488 -0.07120000   1.008000   ; qtot -66.834389
 6489         c3    224    ccc     C8   6489 -0.39330000  12.010000   ; qtot -67.227689
 6490         hc    224    ccc    H13   6490 0.08130000   1.008000   ; qtot -67.146389
 6491         hc    224    ccc    H14   6491 0.08130000   1.008000   ; qtot -67.065089
 6492          c    224    ccc     C9   6492 1.08970000  12.010000   ; qtot -65.975389
 6493          o    224    ccc     O4   6493 -0.96050000  16.000000   ; qtot -66.935889
 6494          o    224    ccc     O5   6494 -0.96050000  16.000000   ; qtot -67.896389
 6495         os    224    ccc     O1   6495 -0.11060000  16.000000   ; qtot -68.006989
; residue  225 ccc rtp ccc q -2.0
 6496         c3    225    ccc     C3   6496 -0.04070000  12.010000   ; qtot -68.047689
 6497         h1    225    ccc     H5   6497 0.04610000   1.008000   ; qtot -68.001589
 6498         h1    225    ccc     H6   6498 0.04610000   1.008000   ; qtot -67.955489
 6499         c3    225    ccc     C2   6499 -0.02540000  12.010000   ; qtot -67.980889
 6500         hc    225    ccc     H3   6500 0.00850000   1.008000   ; qtot -67.972389
 6501         hc    225    ccc     H4   6501 0.00850000   1.008000   ; qtot -67.963889
 6502         c3    225    ccc     C1   6502 0.60210000  12.010000   ; qtot -67.361789
 6503         h1    225    ccc     H1   6503 -0.09250000   1.008000   ; qtot -67.454289
 6504         h1    225    ccc     H2   6504 -0.09250000   1.008000   ; qtot -67.546789
 6505         n3    225    ccc     N1   6505 -0.59700000  14.010000   ; qtot -68.143789
 6506         c3    225    ccc     C4   6506 0.32800000  12.010000   ; qtot -67.815789
 6507         h1    225    ccc     H7   6507 -0.07120000   1.008000   ; qtot -67.886989
 6508         h1    225    ccc     H8   6508 -0.07120000   1.008000   ; qtot -67.958189
 6509         c3    225    ccc     C5   6509 -0.39330000  12.010000   ; qtot -68.351489
 6510         hc    225    ccc     H9   6510 0.08130000   1.008000   ; qtot -68.270189
 6511         hc    225    ccc    H10   6511 0.08130000   1.008000   ; qtot -68.188889
 6512          c    225    ccc     C6   6512 1.08970000  12.010000   ; qtot -67.099189
 6513          o    225    ccc     O2   6513 -0.96050000  16.000000   ; qtot -68.059689
 6514          o    225    ccc     O3   6514 -0.96050000  16.000000   ; qtot -69.020189
 6515         c3    225    ccc     C7   6515 0.32800000  12.010000   ; qtot -68.692189
 6516         h1    225    ccc    H11   6516 -0.07120000   1.008000   ; qtot -68.763389
 6517         h1    225    ccc    H12   6517 -0.07120000   1.008000   ; qtot -68.834589
 6518         c3    225    ccc     C8   6518 -0.39330000  12.010000   ; qtot -69.227889
 6519         hc    225    ccc    H13   6519 0.08130000   1.008000   ; qtot -69.146589
 6520         hc    225    ccc    H14   6520 0.08130000   1.008000   ; qtot -69.065289
 6521          c    225    ccc     C9   6521 1.08970000  12.010000   ; qtot -67.975589
 6522          o    225    ccc     O4   6522 -0.96050000  16.000000   ; qtot -68.936089
 6523          o    225    ccc     O5   6523 -0.96050000  16.000000   ; qtot -69.896589
 6524         os    225    ccc     O1   6524 -0.11060000  16.000000   ; qtot -70.007189
; residue  226 ccc rtp ccc q -2.0
 6525         c3    226    ccc     C3   6525 -0.04070000  12.010000   ; qtot -70.047889
 6526         h1    226    ccc     H5   6526 0.04610000   1.008000   ; qtot -70.001789
 6527         h1    226    ccc     H6   6527 0.04610000   1.008000   ; qtot -69.955689
 6528         c3    226    ccc     C2   6528 -0.02540000  12.010000   ; qtot -69.981089
 6529         hc    226    ccc     H3   6529 0.00850000   1.008000   ; qtot -69.972589
 6530         hc    226    ccc     H4   6530 0.00850000   1.008000   ; qtot -69.964089
 6531         c3    226    ccc     C1   6531 0.60210000  12.010000   ; qtot -69.361989
 6532         h1    226    ccc     H1   6532 -0.09250000   1.008000   ; qtot -69.454489
 6533         h1    226    ccc     H2   6533 -0.09250000   1.008000   ; qtot -69.546989
 6534         n3    226    ccc     N1   6534 -0.59700000  14.010000   ; qtot -70.143989
 6535         c3    226    ccc     C4   6535 0.32800000  12.010000   ; qtot -69.815989
 6536         h1    226    ccc     H7   6536 -0.07120000   1.008000   ; qtot -69.887189
 6537         h1    226    ccc     H8   6537 -0.07120000   1.008000   ; qtot -69.958389
 6538         c3    226    ccc     C5   6538 -0.39330000  12.010000   ; qtot -70.351689
 6539         hc    226    ccc     H9   6539 0.08130000   1.008000   ; qtot -70.270389
 6540         hc    226    ccc    H10   6540 0.08130000   1.008000   ; qtot -70.189089
 6541          c    226    ccc     C6   6541 1.08970000  12.010000   ; qtot -69.099389
 6542          o    226    ccc     O2   6542 -0.96050000  16.000000   ; qtot -70.059889
 6543          o    226    ccc     O3   6543 -0.96050000  16.000000   ; qtot -71.020389
 6544         c3    226    ccc     C7   6544 0.32800000  12.010000   ; qtot -70.692389
 6545         h1    226    ccc    H11   6545 -0.07120000   1.008000   ; qtot -70.763589
 6546         h1    226    ccc    H12   6546 -0.07120000   1.008000   ; qtot -70.834789
 6547         c3    226    ccc     C8   6547 -0.39330000  12.010000   ; qtot -71.228089
 6548         hc    226    ccc    H13   6548 0.08130000   1.008000   ; qtot -71.146789
 6549         hc    226    ccc    H14   6549 0.08130000   1.008000   ; qtot -71.065489
 6550          c    226    ccc     C9   6550 1.08970000  12.010000   ; qtot -69.975789
 6551          o    226    ccc     O4   6551 -0.96050000  16.000000   ; qtot -70.936289
 6552          o    226    ccc     O5   6552 -0.96050000  16.000000   ; qtot -71.896789
 6553         os    226    ccc     O1   6553 -0.11060000  16.000000   ; qtot -72.007389
; residue  227 ccc rtp ccc q -2.0
 6554         c3    227    ccc     C3   6554 -0.04070000  12.010000   ; qtot -72.048089
 6555         h1    227    ccc     H5   6555 0.04610000   1.008000   ; qtot -72.001989
 6556         h1    227    ccc     H6   6556 0.04610000   1.008000   ; qtot -71.955889
 6557         c3    227    ccc     C2   6557 -0.02540000  12.010000   ; qtot -71.981289
 6558         hc    227    ccc     H3   6558 0.00850000   1.008000   ; qtot -71.972789
 6559         hc    227    ccc     H4   6559 0.00850000   1.008000   ; qtot -71.964289
 6560         c3    227    ccc     C1   6560 0.60210000  12.010000   ; qtot -71.362189
 6561         h1    227    ccc     H1   6561 -0.09250000   1.008000   ; qtot -71.454689
 6562         h1    227    ccc     H2   6562 -0.09250000   1.008000   ; qtot -71.547189
 6563         n3    227    ccc     N1   6563 -0.59700000  14.010000   ; qtot -72.144189
 6564         c3    227    ccc     C4   6564 0.32800000  12.010000   ; qtot -71.816189
 6565         h1    227    ccc     H7   6565 -0.07120000   1.008000   ; qtot -71.887389
 6566         h1    227    ccc     H8   6566 -0.07120000   1.008000   ; qtot -71.958589
 6567         c3    227    ccc     C5   6567 -0.39330000  12.010000   ; qtot -72.351889
 6568         hc    227    ccc     H9   6568 0.08130000   1.008000   ; qtot -72.270589
 6569         hc    227    ccc    H10   6569 0.08130000   1.008000   ; qtot -72.189289
 6570          c    227    ccc     C6   6570 1.08970000  12.010000   ; qtot -71.099589
 6571          o    227    ccc     O2   6571 -0.96050000  16.000000   ; qtot -72.060089
 6572          o    227    ccc     O3   6572 -0.96050000  16.000000   ; qtot -73.020589
 6573         c3    227    ccc     C7   6573 0.32800000  12.010000   ; qtot -72.692589
 6574         h1    227    ccc    H11   6574 -0.07120000   1.008000   ; qtot -72.763789
 6575         h1    227    ccc    H12   6575 -0.07120000   1.008000   ; qtot -72.834989
 6576         c3    227    ccc     C8   6576 -0.39330000  12.010000   ; qtot -73.228289
 6577         hc    227    ccc    H13   6577 0.08130000   1.008000   ; qtot -73.146989
 6578         hc    227    ccc    H14   6578 0.08130000   1.008000   ; qtot -73.065689
 6579          c    227    ccc     C9   6579 1.08970000  12.010000   ; qtot -71.975989
 6580          o    227    ccc     O4   6580 -0.96050000  16.000000   ; qtot -72.936489
 6581          o    227    ccc     O5   6581 -0.96050000  16.000000   ; qtot -73.896989
 6582         os    227    ccc     O1   6582 -0.11060000  16.000000   ; qtot -74.007589
; residue  228 ccc rtp ccc q -2.0
 6583         c3    228    ccc     C3   6583 -0.04070000  12.010000   ; qtot -74.048289
 6584         h1    228    ccc     H5   6584 0.04610000   1.008000   ; qtot -74.002189
 6585         h1    228    ccc     H6   6585 0.04610000   1.008000   ; qtot -73.956089
 6586         c3    228    ccc     C2   6586 -0.02540000  12.010000   ; qtot -73.981489
 6587         hc    228    ccc     H3   6587 0.00850000   1.008000   ; qtot -73.972989
 6588         hc    228    ccc     H4   6588 0.00850000   1.008000   ; qtot -73.964489
 6589         c3    228    ccc     C1   6589 0.60210000  12.010000   ; qtot -73.362389
 6590         h1    228    ccc     H1   6590 -0.09250000   1.008000   ; qtot -73.454889
 6591         h1    228    ccc     H2   6591 -0.09250000   1.008000   ; qtot -73.547389
 6592         n3    228    ccc     N1   6592 -0.59700000  14.010000   ; qtot -74.144389
 6593         c3    228    ccc     C4   6593 0.32800000  12.010000   ; qtot -73.816389
 6594         h1    228    ccc     H7   6594 -0.07120000   1.008000   ; qtot -73.887589
 6595         h1    228    ccc     H8   6595 -0.07120000   1.008000   ; qtot -73.958789
 6596         c3    228    ccc     C5   6596 -0.39330000  12.010000   ; qtot -74.352089
 6597         hc    228    ccc     H9   6597 0.08130000   1.008000   ; qtot -74.270789
 6598         hc    228    ccc    H10   6598 0.08130000   1.008000   ; qtot -74.189489
 6599          c    228    ccc     C6   6599 1.08970000  12.010000   ; qtot -73.099789
 6600          o    228    ccc     O2   6600 -0.96050000  16.000000   ; qtot -74.060289
 6601          o    228    ccc     O3   6601 -0.96050000  16.000000   ; qtot -75.020789
 6602         c3    228    ccc     C7   6602 0.32800000  12.010000   ; qtot -74.692789
 6603         h1    228    ccc    H11   6603 -0.07120000   1.008000   ; qtot -74.763989
 6604         h1    228    ccc    H12   6604 -0.07120000   1.008000   ; qtot -74.835189
 6605         c3    228    ccc     C8   6605 -0.39330000  12.010000   ; qtot -75.228489
 6606         hc    228    ccc    H13   6606 0.08130000   1.008000   ; qtot -75.147189
 6607         hc    228    ccc    H14   6607 0.08130000   1.008000   ; qtot -75.065889
 6608          c    228    ccc     C9   6608 1.08970000  12.010000   ; qtot -73.976189
 6609          o    228    ccc     O4   6609 -0.96050000  16.000000   ; qtot -74.936689
 6610          o    228    ccc     O5   6610 -0.96050000  16.000000   ; qtot -75.897189
 6611         os    228    ccc     O1   6611 -0.11060000  16.000000   ; qtot -76.007789
; residue  229 ccc rtp ccc q -2.0
 6612         c3    229    ccc     C3   6612 -0.04070000  12.010000   ; qtot -76.048489
 6613         h1    229    ccc     H5   6613 0.04610000   1.008000   ; qtot -76.002389
 6614         h1    229    ccc     H6   6614 0.04610000   1.008000   ; qtot -75.956289
 6615         c3    229    ccc     C2   6615 -0.02540000  12.010000   ; qtot -75.981689
 6616         hc    229    ccc     H3   6616 0.00850000   1.008000   ; qtot -75.973189
 6617         hc    229    ccc     H4   6617 0.00850000   1.008000   ; qtot -75.964689
 6618         c3    229    ccc     C1   6618 0.60210000  12.010000   ; qtot -75.362589
 6619         h1    229    ccc     H1   6619 -0.09250000   1.008000   ; qtot -75.455089
 6620         h1    229    ccc     H2   6620 -0.09250000   1.008000   ; qtot -75.547589
 6621         n3    229    ccc     N1   6621 -0.59700000  14.010000   ; qtot -76.144589
 6622         c3    229    ccc     C4   6622 0.32800000  12.010000   ; qtot -75.816589
 6623         h1    229    ccc     H7   6623 -0.07120000   1.008000   ; qtot -75.887789
 6624         h1    229    ccc     H8   6624 -0.07120000   1.008000   ; qtot -75.958989
 6625         c3    229    ccc     C5   6625 -0.39330000  12.010000   ; qtot -76.352289
 6626         hc    229    ccc     H9   6626 0.08130000   1.008000   ; qtot -76.270989
 6627         hc    229    ccc    H10   6627 0.08130000   1.008000   ; qtot -76.189689
 6628          c    229    ccc     C6   6628 1.08970000  12.010000   ; qtot -75.099989
 6629          o    229    ccc     O2   6629 -0.96050000  16.000000   ; qtot -76.060489
 6630          o    229    ccc     O3   6630 -0.96050000  16.000000   ; qtot -77.020989
 6631         c3    229    ccc     C7   6631 0.32800000  12.010000   ; qtot -76.692989
 6632         h1    229    ccc    H11   6632 -0.07120000   1.008000   ; qtot -76.764189
 6633         h1    229    ccc    H12   6633 -0.07120000   1.008000   ; qtot -76.835389
 6634         c3    229    ccc     C8   6634 -0.39330000  12.010000   ; qtot -77.228689
 6635         hc    229    ccc    H13   6635 0.08130000   1.008000   ; qtot -77.147389
 6636         hc    229    ccc    H14   6636 0.08130000   1.008000   ; qtot -77.066089
 6637          c    229    ccc     C9   6637 1.08970000  12.010000   ; qtot -75.976389
 6638          o    229    ccc     O4   6638 -0.96050000  16.000000   ; qtot -76.936889
 6639          o    229    ccc     O5   6639 -0.96050000  16.000000   ; qtot -77.897389
 6640         os    229    ccc     O1   6640 -0.11060000  16.000000   ; qtot -78.007989
; residue  230 ccc rtp ccc q -2.0
 6641         c3    230    ccc     C3   6641 -0.04070000  12.010000   ; qtot -78.048689
 6642         h1    230    ccc     H5   6642 0.04610000   1.008000   ; qtot -78.002589
 6643         h1    230    ccc     H6   6643 0.04610000   1.008000   ; qtot -77.956489
 6644         c3    230    ccc     C2   6644 -0.02540000  12.010000   ; qtot -77.981889
 6645         hc    230    ccc     H3   6645 0.00850000   1.008000   ; qtot -77.973389
 6646         hc    230    ccc     H4   6646 0.00850000   1.008000   ; qtot -77.964889
 6647         c3    230    ccc     C1   6647 0.60210000  12.010000   ; qtot -77.362789
 6648         h1    230    ccc     H1   6648 -0.09250000   1.008000   ; qtot -77.455289
 6649         h1    230    ccc     H2   6649 -0.09250000   1.008000   ; qtot -77.547789
 6650         n3    230    ccc     N1   6650 -0.59700000  14.010000   ; qtot -78.144789
 6651         c3    230    ccc     C4   6651 0.32800000  12.010000   ; qtot -77.816789
 6652         h1    230    ccc     H7   6652 -0.07120000   1.008000   ; qtot -77.887989
 6653         h1    230    ccc     H8   6653 -0.07120000   1.008000   ; qtot -77.959189
 6654         c3    230    ccc     C5   6654 -0.39330000  12.010000   ; qtot -78.352489
 6655         hc    230    ccc     H9   6655 0.08130000   1.008000   ; qtot -78.271189
 6656         hc    230    ccc    H10   6656 0.08130000   1.008000   ; qtot -78.189889
 6657          c    230    ccc     C6   6657 1.08970000  12.010000   ; qtot -77.100189
 6658          o    230    ccc     O2   6658 -0.96050000  16.000000   ; qtot -78.060689
 6659          o    230    ccc     O3   6659 -0.96050000  16.000000   ; qtot -79.021189
 6660         c3    230    ccc     C7   6660 0.32800000  12.010000   ; qtot -78.693189
 6661         h1    230    ccc    H11   6661 -0.07120000   1.008000   ; qtot -78.764389
 6662         h1    230    ccc    H12   6662 -0.07120000   1.008000   ; qtot -78.835589
 6663         c3    230    ccc     C8   6663 -0.39330000  12.010000   ; qtot -79.228889
 6664         hc    230    ccc    H13   6664 0.08130000   1.008000   ; qtot -79.147589
 6665         hc    230    ccc    H14   6665 0.08130000   1.008000   ; qtot -79.066289
 6666          c    230    ccc     C9   6666 1.08970000  12.010000   ; qtot -77.976589
 6667          o    230    ccc     O4   6667 -0.96050000  16.000000   ; qtot -78.937089
 6668          o    230    ccc     O5   6668 -0.96050000  16.000000   ; qtot -79.897589
 6669         os    230    ccc     O1   6669 -0.11060000  16.000000   ; qtot -80.008189
; residue  231 ccc rtp ccc q -2.0
 6670         c3    231    ccc     C3   6670 -0.04070000  12.010000   ; qtot -80.048889
 6671         h1    231    ccc     H5   6671 0.04610000   1.008000   ; qtot -80.002789
 6672         h1    231    ccc     H6   6672 0.04610000   1.008000   ; qtot -79.956689
 6673         c3    231    ccc     C2   6673 -0.02540000  12.010000   ; qtot -79.982089
 6674         hc    231    ccc     H3   6674 0.00850000   1.008000   ; qtot -79.973589
 6675         hc    231    ccc     H4   6675 0.00850000   1.008000   ; qtot -79.965089
 6676         c3    231    ccc     C1   6676 0.60210000  12.010000   ; qtot -79.362989
 6677         h1    231    ccc     H1   6677 -0.09250000   1.008000   ; qtot -79.455489
 6678         h1    231    ccc     H2   6678 -0.09250000   1.008000   ; qtot -79.547989
 6679         n3    231    ccc     N1   6679 -0.59700000  14.010000   ; qtot -80.144989
 6680         c3    231    ccc     C4   6680 0.32800000  12.010000   ; qtot -79.816989
 6681         h1    231    ccc     H7   6681 -0.07120000   1.008000   ; qtot -79.888189
 6682         h1    231    ccc     H8   6682 -0.07120000   1.008000   ; qtot -79.959389
 6683         c3    231    ccc     C5   6683 -0.39330000  12.010000   ; qtot -80.352689
 6684         hc    231    ccc     H9   6684 0.08130000   1.008000   ; qtot -80.271389
 6685         hc    231    ccc    H10   6685 0.08130000   1.008000   ; qtot -80.190089
 6686          c    231    ccc     C6   6686 1.08970000  12.010000   ; qtot -79.100389
 6687          o    231    ccc     O2   6687 -0.96050000  16.000000   ; qtot -80.060889
 6688          o    231    ccc     O3   6688 -0.96050000  16.000000   ; qtot -81.021389
 6689         c3    231    ccc     C7   6689 0.32800000  12.010000   ; qtot -80.693389
 6690         h1    231    ccc    H11   6690 -0.07120000   1.008000   ; qtot -80.764589
 6691         h1    231    ccc    H12   6691 -0.07120000   1.008000   ; qtot -80.835789
 6692         c3    231    ccc     C8   6692 -0.39330000  12.010000   ; qtot -81.229089
 6693         hc    231    ccc    H13   6693 0.08130000   1.008000   ; qtot -81.147789
 6694         hc    231    ccc    H14   6694 0.08130000   1.008000   ; qtot -81.066489
 6695          c    231    ccc     C9   6695 1.08970000  12.010000   ; qtot -79.976789
 6696          o    231    ccc     O4   6696 -0.96050000  16.000000   ; qtot -80.937289
 6697          o    231    ccc     O5   6697 -0.96050000  16.000000   ; qtot -81.897789
 6698         os    231    ccc     O1   6698 -0.11060000  16.000000   ; qtot -82.008389
; residue  232 ccc rtp ccc q -2.0
 6699         c3    232    ccc     C3   6699 -0.04070000  12.010000   ; qtot -82.049089
 6700         h1    232    ccc     H5   6700 0.04610000   1.008000   ; qtot -82.002989
 6701         h1    232    ccc     H6   6701 0.04610000   1.008000   ; qtot -81.956889
 6702         c3    232    ccc     C2   6702 -0.02540000  12.010000   ; qtot -81.982289
 6703         hc    232    ccc     H3   6703 0.00850000   1.008000   ; qtot -81.973789
 6704         hc    232    ccc     H4   6704 0.00850000   1.008000   ; qtot -81.965289
 6705         c3    232    ccc     C1   6705 0.60210000  12.010000   ; qtot -81.363189
 6706         h1    232    ccc     H1   6706 -0.09250000   1.008000   ; qtot -81.455689
 6707         h1    232    ccc     H2   6707 -0.09250000   1.008000   ; qtot -81.548189
 6708         n3    232    ccc     N1   6708 -0.59700000  14.010000   ; qtot -82.145189
 6709         c3    232    ccc     C4   6709 0.32800000  12.010000   ; qtot -81.817189
 6710         h1    232    ccc     H7   6710 -0.07120000   1.008000   ; qtot -81.888389
 6711         h1    232    ccc     H8   6711 -0.07120000   1.008000   ; qtot -81.959589
 6712         c3    232    ccc     C5   6712 -0.39330000  12.010000   ; qtot -82.352889
 6713         hc    232    ccc     H9   6713 0.08130000   1.008000   ; qtot -82.271589
 6714         hc    232    ccc    H10   6714 0.08130000   1.008000   ; qtot -82.190289
 6715          c    232    ccc     C6   6715 1.08970000  12.010000   ; qtot -81.100589
 6716          o    232    ccc     O2   6716 -0.96050000  16.000000   ; qtot -82.061089
 6717          o    232    ccc     O3   6717 -0.96050000  16.000000   ; qtot -83.021589
 6718         c3    232    ccc     C7   6718 0.32800000  12.010000   ; qtot -82.693589
 6719         h1    232    ccc    H11   6719 -0.07120000   1.008000   ; qtot -82.764789
 6720         h1    232    ccc    H12   6720 -0.07120000   1.008000   ; qtot -82.835989
 6721         c3    232    ccc     C8   6721 -0.39330000  12.010000   ; qtot -83.229289
 6722         hc    232    ccc    H13   6722 0.08130000   1.008000   ; qtot -83.147989
 6723         hc    232    ccc    H14   6723 0.08130000   1.008000   ; qtot -83.066689
 6724          c    232    ccc     C9   6724 1.08970000  12.010000   ; qtot -81.976989
 6725          o    232    ccc     O4   6725 -0.96050000  16.000000   ; qtot -82.937489
 6726          o    232    ccc     O5   6726 -0.96050000  16.000000   ; qtot -83.897989
 6727         os    232    ccc     O1   6727 -0.11060000  16.000000   ; qtot -84.008589
; residue  233 ccc rtp ccc q -2.0
 6728         c3    233    ccc     C3   6728 -0.04070000  12.010000   ; qtot -84.049289
 6729         h1    233    ccc     H5   6729 0.04610000   1.008000   ; qtot -84.003189
 6730         h1    233    ccc     H6   6730 0.04610000   1.008000   ; qtot -83.957089
 6731         c3    233    ccc     C2   6731 -0.02540000  12.010000   ; qtot -83.982489
 6732         hc    233    ccc     H3   6732 0.00850000   1.008000   ; qtot -83.973989
 6733         hc    233    ccc     H4   6733 0.00850000   1.008000   ; qtot -83.965489
 6734         c3    233    ccc     C1   6734 0.60210000  12.010000   ; qtot -83.363389
 6735         h1    233    ccc     H1   6735 -0.09250000   1.008000   ; qtot -83.455889
 6736         h1    233    ccc     H2   6736 -0.09250000   1.008000   ; qtot -83.548389
 6737         n3    233    ccc     N1   6737 -0.59700000  14.010000   ; qtot -84.145389
 6738         c3    233    ccc     C4   6738 0.32800000  12.010000   ; qtot -83.817389
 6739         h1    233    ccc     H7   6739 -0.07120000   1.008000   ; qtot -83.888589
 6740         h1    233    ccc     H8   6740 -0.07120000   1.008000   ; qtot -83.959789
 6741         c3    233    ccc     C5   6741 -0.39330000  12.010000   ; qtot -84.353089
 6742         hc    233    ccc     H9   6742 0.08130000   1.008000   ; qtot -84.271789
 6743         hc    233    ccc    H10   6743 0.08130000   1.008000   ; qtot -84.190489
 6744          c    233    ccc     C6   6744 1.08970000  12.010000   ; qtot -83.100789
 6745          o    233    ccc     O2   6745 -0.96050000  16.000000   ; qtot -84.061289
 6746          o    233    ccc     O3   6746 -0.96050000  16.000000   ; qtot -85.021789
 6747         c3    233    ccc     C7   6747 0.32800000  12.010000   ; qtot -84.693789
 6748         h1    233    ccc    H11   6748 -0.07120000   1.008000   ; qtot -84.764989
 6749         h1    233    ccc    H12   6749 -0.07120000   1.008000   ; qtot -84.836189
 6750         c3    233    ccc     C8   6750 -0.39330000  12.010000   ; qtot -85.229489
 6751         hc    233    ccc    H13   6751 0.08130000   1.008000   ; qtot -85.148189
 6752         hc    233    ccc    H14   6752 0.08130000   1.008000   ; qtot -85.066889
 6753          c    233    ccc     C9   6753 1.08970000  12.010000   ; qtot -83.977189
 6754          o    233    ccc     O4   6754 -0.96050000  16.000000   ; qtot -84.937689
 6755          o    233    ccc     O5   6755 -0.96050000  16.000000   ; qtot -85.898189
 6756         os    233    ccc     O1   6756 -0.11060000  16.000000   ; qtot -86.008789
; residue  234 ccc rtp ccc q -2.0
 6757         c3    234    ccc     C3   6757 -0.04070000  12.010000   ; qtot -86.049489
 6758         h1    234    ccc     H5   6758 0.04610000   1.008000   ; qtot -86.003389
 6759         h1    234    ccc     H6   6759 0.04610000   1.008000   ; qtot -85.957289
 6760         c3    234    ccc     C2   6760 -0.02540000  12.010000   ; qtot -85.982689
 6761         hc    234    ccc     H3   6761 0.00850000   1.008000   ; qtot -85.974189
 6762         hc    234    ccc     H4   6762 0.00850000   1.008000   ; qtot -85.965689
 6763         c3    234    ccc     C1   6763 0.60210000  12.010000   ; qtot -85.363589
 6764         h1    234    ccc     H1   6764 -0.09250000   1.008000   ; qtot -85.456089
 6765         h1    234    ccc     H2   6765 -0.09250000   1.008000   ; qtot -85.548589
 6766         n3    234    ccc     N1   6766 -0.59700000  14.010000   ; qtot -86.145589
 6767         c3    234    ccc     C4   6767 0.32800000  12.010000   ; qtot -85.817589
 6768         h1    234    ccc     H7   6768 -0.07120000   1.008000   ; qtot -85.888789
 6769         h1    234    ccc     H8   6769 -0.07120000   1.008000   ; qtot -85.959989
 6770         c3    234    ccc     C5   6770 -0.39330000  12.010000   ; qtot -86.353289
 6771         hc    234    ccc     H9   6771 0.08130000   1.008000   ; qtot -86.271989
 6772         hc    234    ccc    H10   6772 0.08130000   1.008000   ; qtot -86.190689
 6773          c    234    ccc     C6   6773 1.08970000  12.010000   ; qtot -85.100989
 6774          o    234    ccc     O2   6774 -0.96050000  16.000000   ; qtot -86.061489
 6775          o    234    ccc     O3   6775 -0.96050000  16.000000   ; qtot -87.021989
 6776         c3    234    ccc     C7   6776 0.32800000  12.010000   ; qtot -86.693989
 6777         h1    234    ccc    H11   6777 -0.07120000   1.008000   ; qtot -86.765189
 6778         h1    234    ccc    H12   6778 -0.07120000   1.008000   ; qtot -86.836389
 6779         c3    234    ccc     C8   6779 -0.39330000  12.010000   ; qtot -87.229689
 6780         hc    234    ccc    H13   6780 0.08130000   1.008000   ; qtot -87.148389
 6781         hc    234    ccc    H14   6781 0.08130000   1.008000   ; qtot -87.067089
 6782          c    234    ccc     C9   6782 1.08970000  12.010000   ; qtot -85.977389
 6783          o    234    ccc     O4   6783 -0.96050000  16.000000   ; qtot -86.937889
 6784          o    234    ccc     O5   6784 -0.96050000  16.000000   ; qtot -87.898389
 6785         os    234    ccc     O1   6785 -0.11060000  16.000000   ; qtot -88.008989
; residue  235 ccc rtp ccc q -2.0
 6786         c3    235    ccc     C3   6786 -0.04070000  12.010000   ; qtot -88.049689
 6787         h1    235    ccc     H5   6787 0.04610000   1.008000   ; qtot -88.003589
 6788         h1    235    ccc     H6   6788 0.04610000   1.008000   ; qtot -87.957489
 6789         c3    235    ccc     C2   6789 -0.02540000  12.010000   ; qtot -87.982889
 6790         hc    235    ccc     H3   6790 0.00850000   1.008000   ; qtot -87.974389
 6791         hc    235    ccc     H4   6791 0.00850000   1.008000   ; qtot -87.965889
 6792         c3    235    ccc     C1   6792 0.60210000  12.010000   ; qtot -87.363789
 6793         h1    235    ccc     H1   6793 -0.09250000   1.008000   ; qtot -87.456289
 6794         h1    235    ccc     H2   6794 -0.09250000   1.008000   ; qtot -87.548789
 6795         n3    235    ccc     N1   6795 -0.59700000  14.010000   ; qtot -88.145789
 6796         c3    235    ccc     C4   6796 0.32800000  12.010000   ; qtot -87.817789
 6797         h1    235    ccc     H7   6797 -0.07120000   1.008000   ; qtot -87.888989
 6798         h1    235    ccc     H8   6798 -0.07120000   1.008000   ; qtot -87.960189
 6799         c3    235    ccc     C5   6799 -0.39330000  12.010000   ; qtot -88.353489
 6800         hc    235    ccc     H9   6800 0.08130000   1.008000   ; qtot -88.272189
 6801         hc    235    ccc    H10   6801 0.08130000   1.008000   ; qtot -88.190889
 6802          c    235    ccc     C6   6802 1.08970000  12.010000   ; qtot -87.101189
 6803          o    235    ccc     O2   6803 -0.96050000  16.000000   ; qtot -88.061689
 6804          o    235    ccc     O3   6804 -0.96050000  16.000000   ; qtot -89.022189
 6805         c3    235    ccc     C7   6805 0.32800000  12.010000   ; qtot -88.694189
 6806         h1    235    ccc    H11   6806 -0.07120000   1.008000   ; qtot -88.765389
 6807         h1    235    ccc    H12   6807 -0.07120000   1.008000   ; qtot -88.836589
 6808         c3    235    ccc     C8   6808 -0.39330000  12.010000   ; qtot -89.229889
 6809         hc    235    ccc    H13   6809 0.08130000   1.008000   ; qtot -89.148589
 6810         hc    235    ccc    H14   6810 0.08130000   1.008000   ; qtot -89.067289
 6811          c    235    ccc     C9   6811 1.08970000  12.010000   ; qtot -87.977589
 6812          o    235    ccc     O4   6812 -0.96050000  16.000000   ; qtot -88.938089
 6813          o    235    ccc     O5   6813 -0.96050000  16.000000   ; qtot -89.898589
 6814         os    235    ccc     O1   6814 -0.11060000  16.000000   ; qtot -90.009189
; residue  236 ccc rtp ccc q -2.0
 6815         c3    236    ccc     C3   6815 -0.04070000  12.010000   ; qtot -90.049889
 6816         h1    236    ccc     H5   6816 0.04610000   1.008000   ; qtot -90.003789
 6817         h1    236    ccc     H6   6817 0.04610000   1.008000   ; qtot -89.957689
 6818         c3    236    ccc     C2   6818 -0.02540000  12.010000   ; qtot -89.983089
 6819         hc    236    ccc     H3   6819 0.00850000   1.008000   ; qtot -89.974589
 6820         hc    236    ccc     H4   6820 0.00850000   1.008000   ; qtot -89.966089
 6821         c3    236    ccc     C1   6821 0.60210000  12.010000   ; qtot -89.363989
 6822         h1    236    ccc     H1   6822 -0.09250000   1.008000   ; qtot -89.456489
 6823         h1    236    ccc     H2   6823 -0.09250000   1.008000   ; qtot -89.548989
 6824         n3    236    ccc     N1   6824 -0.59700000  14.010000   ; qtot -90.145989
 6825         c3    236    ccc     C4   6825 0.32800000  12.010000   ; qtot -89.817989
 6826         h1    236    ccc     H7   6826 -0.07120000   1.008000   ; qtot -89.889189
 6827         h1    236    ccc     H8   6827 -0.07120000   1.008000   ; qtot -89.960389
 6828         c3    236    ccc     C5   6828 -0.39330000  12.010000   ; qtot -90.353689
 6829         hc    236    ccc     H9   6829 0.08130000   1.008000   ; qtot -90.272389
 6830         hc    236    ccc    H10   6830 0.08130000   1.008000   ; qtot -90.191089
 6831          c    236    ccc     C6   6831 1.08970000  12.010000   ; qtot -89.101389
 6832          o    236    ccc     O2   6832 -0.96050000  16.000000   ; qtot -90.061889
 6833          o    236    ccc     O3   6833 -0.96050000  16.000000   ; qtot -91.022389
 6834         c3    236    ccc     C7   6834 0.32800000  12.010000   ; qtot -90.694389
 6835         h1    236    ccc    H11   6835 -0.07120000   1.008000   ; qtot -90.765589
 6836         h1    236    ccc    H12   6836 -0.07120000   1.008000   ; qtot -90.836789
 6837         c3    236    ccc     C8   6837 -0.39330000  12.010000   ; qtot -91.230089
 6838         hc    236    ccc    H13   6838 0.08130000   1.008000   ; qtot -91.148789
 6839         hc    236    ccc    H14   6839 0.08130000   1.008000   ; qtot -91.067489
 6840          c    236    ccc     C9   6840 1.08970000  12.010000   ; qtot -89.977789
 6841          o    236    ccc     O4   6841 -0.96050000  16.000000   ; qtot -90.938289
 6842          o    236    ccc     O5   6842 -0.96050000  16.000000   ; qtot -91.898789
 6843         os    236    ccc     O1   6843 -0.11060000  16.000000   ; qtot -92.009389
; residue  237 ccc rtp ccc q -2.0
 6844         c3    237    ccc     C3   6844 -0.04070000  12.010000   ; qtot -92.050089
 6845         h1    237    ccc     H5   6845 0.04610000   1.008000   ; qtot -92.003989
 6846         h1    237    ccc     H6   6846 0.04610000   1.008000   ; qtot -91.957889
 6847         c3    237    ccc     C2   6847 -0.02540000  12.010000   ; qtot -91.983289
 6848         hc    237    ccc     H3   6848 0.00850000   1.008000   ; qtot -91.974789
 6849         hc    237    ccc     H4   6849 0.00850000   1.008000   ; qtot -91.966289
 6850         c3    237    ccc     C1   6850 0.60210000  12.010000   ; qtot -91.364189
 6851         h1    237    ccc     H1   6851 -0.09250000   1.008000   ; qtot -91.456689
 6852         h1    237    ccc     H2   6852 -0.09250000   1.008000   ; qtot -91.549189
 6853         n3    237    ccc     N1   6853 -0.59700000  14.010000   ; qtot -92.146189
 6854         c3    237    ccc     C4   6854 0.32800000  12.010000   ; qtot -91.818189
 6855         h1    237    ccc     H7   6855 -0.07120000   1.008000   ; qtot -91.889389
 6856         h1    237    ccc     H8   6856 -0.07120000   1.008000   ; qtot -91.960589
 6857         c3    237    ccc     C5   6857 -0.39330000  12.010000   ; qtot -92.353889
 6858         hc    237    ccc     H9   6858 0.08130000   1.008000   ; qtot -92.272589
 6859         hc    237    ccc    H10   6859 0.08130000   1.008000   ; qtot -92.191289
 6860          c    237    ccc     C6   6860 1.08970000  12.010000   ; qtot -91.101589
 6861          o    237    ccc     O2   6861 -0.96050000  16.000000   ; qtot -92.062089
 6862          o    237    ccc     O3   6862 -0.96050000  16.000000   ; qtot -93.022589
 6863         c3    237    ccc     C7   6863 0.32800000  12.010000   ; qtot -92.694589
 6864         h1    237    ccc    H11   6864 -0.07120000   1.008000   ; qtot -92.765789
 6865         h1    237    ccc    H12   6865 -0.07120000   1.008000   ; qtot -92.836989
 6866         c3    237    ccc     C8   6866 -0.39330000  12.010000   ; qtot -93.230289
 6867         hc    237    ccc    H13   6867 0.08130000   1.008000   ; qtot -93.148989
 6868         hc    237    ccc    H14   6868 0.08130000   1.008000   ; qtot -93.067689
 6869          c    237    ccc     C9   6869 1.08970000  12.010000   ; qtot -91.977989
 6870          o    237    ccc     O4   6870 -0.96050000  16.000000   ; qtot -92.938489
 6871          o    237    ccc     O5   6871 -0.96050000  16.000000   ; qtot -93.898989
 6872         os    237    ccc     O1   6872 -0.11060000  16.000000   ; qtot -94.009589
; residue  238 ccc rtp ccc q -2.0
 6873         c3    238    ccc     C3   6873 -0.04070000  12.010000   ; qtot -94.050289
 6874         h1    238    ccc     H5   6874 0.04610000   1.008000   ; qtot -94.004189
 6875         h1    238    ccc     H6   6875 0.04610000   1.008000   ; qtot -93.958089
 6876         c3    238    ccc     C2   6876 -0.02540000  12.010000   ; qtot -93.983489
 6877         hc    238    ccc     H3   6877 0.00850000   1.008000   ; qtot -93.974989
 6878         hc    238    ccc     H4   6878 0.00850000   1.008000   ; qtot -93.966489
 6879         c3    238    ccc     C1   6879 0.60210000  12.010000   ; qtot -93.364389
 6880         h1    238    ccc     H1   6880 -0.09250000   1.008000   ; qtot -93.456889
 6881         h1    238    ccc     H2   6881 -0.09250000   1.008000   ; qtot -93.549389
 6882         n3    238    ccc     N1   6882 -0.59700000  14.010000   ; qtot -94.146389
 6883         c3    238    ccc     C4   6883 0.32800000  12.010000   ; qtot -93.818389
 6884         h1    238    ccc     H7   6884 -0.07120000   1.008000   ; qtot -93.889589
 6885         h1    238    ccc     H8   6885 -0.07120000   1.008000   ; qtot -93.960789
 6886         c3    238    ccc     C5   6886 -0.39330000  12.010000   ; qtot -94.354089
 6887         hc    238    ccc     H9   6887 0.08130000   1.008000   ; qtot -94.272789
 6888         hc    238    ccc    H10   6888 0.08130000   1.008000   ; qtot -94.191489
 6889          c    238    ccc     C6   6889 1.08970000  12.010000   ; qtot -93.101789
 6890          o    238    ccc     O2   6890 -0.96050000  16.000000   ; qtot -94.062289
 6891          o    238    ccc     O3   6891 -0.96050000  16.000000   ; qtot -95.022789
 6892         c3    238    ccc     C7   6892 0.32800000  12.010000   ; qtot -94.694789
 6893         h1    238    ccc    H11   6893 -0.07120000   1.008000   ; qtot -94.765989
 6894         h1    238    ccc    H12   6894 -0.07120000   1.008000   ; qtot -94.837189
 6895         c3    238    ccc     C8   6895 -0.39330000  12.010000   ; qtot -95.230489
 6896         hc    238    ccc    H13   6896 0.08130000   1.008000   ; qtot -95.149189
 6897         hc    238    ccc    H14   6897 0.08130000   1.008000   ; qtot -95.067889
 6898          c    238    ccc     C9   6898 1.08970000  12.010000   ; qtot -93.978189
 6899          o    238    ccc     O4   6899 -0.96050000  16.000000   ; qtot -94.938689
 6900          o    238    ccc     O5   6900 -0.96050000  16.000000   ; qtot -95.899189
 6901         os    238    ccc     O1   6901 -0.11060000  16.000000   ; qtot -96.009789
; residue  239 ccc rtp ccc q -2.0
 6902         c3    239    ccc     C3   6902 -0.04070000  12.010000   ; qtot -96.050489
 6903         h1    239    ccc     H5   6903 0.04610000   1.008000   ; qtot -96.004389
 6904         h1    239    ccc     H6   6904 0.04610000   1.008000   ; qtot -95.958289
 6905         c3    239    ccc     C2   6905 -0.02540000  12.010000   ; qtot -95.983689
 6906         hc    239    ccc     H3   6906 0.00850000   1.008000   ; qtot -95.975189
 6907         hc    239    ccc     H4   6907 0.00850000   1.008000   ; qtot -95.966689
 6908         c3    239    ccc     C1   6908 0.60210000  12.010000   ; qtot -95.364589
 6909         h1    239    ccc     H1   6909 -0.09250000   1.008000   ; qtot -95.457089
 6910         h1    239    ccc     H2   6910 -0.09250000   1.008000   ; qtot -95.549589
 6911         n3    239    ccc     N1   6911 -0.59700000  14.010000   ; qtot -96.146589
 6912         c3    239    ccc     C4   6912 0.32800000  12.010000   ; qtot -95.818589
 6913         h1    239    ccc     H7   6913 -0.07120000   1.008000   ; qtot -95.889789
 6914         h1    239    ccc     H8   6914 -0.07120000   1.008000   ; qtot -95.960989
 6915         c3    239    ccc     C5   6915 -0.39330000  12.010000   ; qtot -96.354289
 6916         hc    239    ccc     H9   6916 0.08130000   1.008000   ; qtot -96.272989
 6917         hc    239    ccc    H10   6917 0.08130000   1.008000   ; qtot -96.191689
 6918          c    239    ccc     C6   6918 1.08970000  12.010000   ; qtot -95.101989
 6919          o    239    ccc     O2   6919 -0.96050000  16.000000   ; qtot -96.062489
 6920          o    239    ccc     O3   6920 -0.96050000  16.000000   ; qtot -97.022989
 6921         c3    239    ccc     C7   6921 0.32800000  12.010000   ; qtot -96.694989
 6922         h1    239    ccc    H11   6922 -0.07120000   1.008000   ; qtot -96.766189
 6923         h1    239    ccc    H12   6923 -0.07120000   1.008000   ; qtot -96.837389
 6924         c3    239    ccc     C8   6924 -0.39330000  12.010000   ; qtot -97.230689
 6925         hc    239    ccc    H13   6925 0.08130000   1.008000   ; qtot -97.149389
 6926         hc    239    ccc    H14   6926 0.08130000   1.008000   ; qtot -97.068089
 6927          c    239    ccc     C9   6927 1.08970000  12.010000   ; qtot -95.978389
 6928          o    239    ccc     O4   6928 -0.96050000  16.000000   ; qtot -96.938889
 6929          o    239    ccc     O5   6929 -0.96050000  16.000000   ; qtot -97.899389
 6930         os    239    ccc     O1   6930 -0.11060000  16.000000   ; qtot -98.009989
; residue  240 ccc rtp ccc q -2.0
 6931         c3    240    ccc     C3   6931 -0.04070000  12.010000   ; qtot -98.050689
 6932         h1    240    ccc     H5   6932 0.04610000   1.008000   ; qtot -98.004589
 6933         h1    240    ccc     H6   6933 0.04610000   1.008000   ; qtot -97.958489
 6934         c3    240    ccc     C2   6934 -0.02540000  12.010000   ; qtot -97.983889
 6935         hc    240    ccc     H3   6935 0.00850000   1.008000   ; qtot -97.975389
 6936         hc    240    ccc     H4   6936 0.00850000   1.008000   ; qtot -97.966889
 6937         c3    240    ccc     C1   6937 0.60210000  12.010000   ; qtot -97.364789
 6938         h1    240    ccc     H1   6938 -0.09250000   1.008000   ; qtot -97.457289
 6939         h1    240    ccc     H2   6939 -0.09250000   1.008000   ; qtot -97.549789
 6940         n3    240    ccc     N1   6940 -0.59700000  14.010000   ; qtot -98.146789
 6941         c3    240    ccc     C4   6941 0.32800000  12.010000   ; qtot -97.818789
 6942         h1    240    ccc     H7   6942 -0.07120000   1.008000   ; qtot -97.889989
 6943         h1    240    ccc     H8   6943 -0.07120000   1.008000   ; qtot -97.961189
 6944         c3    240    ccc     C5   6944 -0.39330000  12.010000   ; qtot -98.354489
 6945         hc    240    ccc     H9   6945 0.08130000   1.008000   ; qtot -98.273189
 6946         hc    240    ccc    H10   6946 0.08130000   1.008000   ; qtot -98.191889
 6947          c    240    ccc     C6   6947 1.08970000  12.010000   ; qtot -97.102189
 6948          o    240    ccc     O2   6948 -0.96050000  16.000000   ; qtot -98.062689
 6949          o    240    ccc     O3   6949 -0.96050000  16.000000   ; qtot -99.023189
 6950         c3    240    ccc     C7   6950 0.32800000  12.010000   ; qtot -98.695189
 6951         h1    240    ccc    H11   6951 -0.07120000   1.008000   ; qtot -98.766389
 6952         h1    240    ccc    H12   6952 -0.07120000   1.008000   ; qtot -98.837589
 6953         c3    240    ccc     C8   6953 -0.39330000  12.010000   ; qtot -99.230889
 6954         hc    240    ccc    H13   6954 0.08130000   1.008000   ; qtot -99.149589
 6955         hc    240    ccc    H14   6955 0.08130000   1.008000   ; qtot -99.068289
 6956          c    240    ccc     C9   6956 1.08970000  12.010000   ; qtot -97.978589
 6957          o    240    ccc     O4   6957 -0.96050000  16.000000   ; qtot -98.939089
 6958          o    240    ccc     O5   6958 -0.96050000  16.000000   ; qtot -99.899589
 6959         os    240    ccc     O1   6959 -0.11060000  16.000000   ; qtot -100.010189
; residue  241 ccc rtp ccc q -2.0
 6960         c3    241    ccc     C3   6960 -0.04070000  12.010000   ; qtot -100.050889
 6961         h1    241    ccc     H5   6961 0.04610000   1.008000   ; qtot -100.004789
 6962         h1    241    ccc     H6   6962 0.04610000   1.008000   ; qtot -99.958689
 6963         c3    241    ccc     C2   6963 -0.02540000  12.010000   ; qtot -99.984089
 6964         hc    241    ccc     H3   6964 0.00850000   1.008000   ; qtot -99.975589
 6965         hc    241    ccc     H4   6965 0.00850000   1.008000   ; qtot -99.967089
 6966         c3    241    ccc     C1   6966 0.60210000  12.010000   ; qtot -99.364989
 6967         h1    241    ccc     H1   6967 -0.09250000   1.008000   ; qtot -99.457489
 6968         h1    241    ccc     H2   6968 -0.09250000   1.008000   ; qtot -99.549989
 6969         n3    241    ccc     N1   6969 -0.59700000  14.010000   ; qtot -100.146989
 6970         c3    241    ccc     C4   6970 0.32800000  12.010000   ; qtot -99.818989
 6971         h1    241    ccc     H7   6971 -0.07120000   1.008000   ; qtot -99.890189
 6972         h1    241    ccc     H8   6972 -0.07120000   1.008000   ; qtot -99.961389
 6973         c3    241    ccc     C5   6973 -0.39330000  12.010000   ; qtot -100.354689
 6974         hc    241    ccc     H9   6974 0.08130000   1.008000   ; qtot -100.273389
 6975         hc    241    ccc    H10   6975 0.08130000   1.008000   ; qtot -100.192089
 6976          c    241    ccc     C6   6976 1.08970000  12.010000   ; qtot -99.102389
 6977          o    241    ccc     O2   6977 -0.96050000  16.000000   ; qtot -100.062889
 6978          o    241    ccc     O3   6978 -0.96050000  16.000000   ; qtot -101.023389
 6979         c3    241    ccc     C7   6979 0.32800000  12.010000   ; qtot -100.695389
 6980         h1    241    ccc    H11   6980 -0.07120000   1.008000   ; qtot -100.766589
 6981         h1    241    ccc    H12   6981 -0.07120000   1.008000   ; qtot -100.837789
 6982         c3    241    ccc     C8   6982 -0.39330000  12.010000   ; qtot -101.231089
 6983         hc    241    ccc    H13   6983 0.08130000   1.008000   ; qtot -101.149789
 6984         hc    241    ccc    H14   6984 0.08130000   1.008000   ; qtot -101.068489
 6985          c    241    ccc     C9   6985 1.08970000  12.010000   ; qtot -99.978789
 6986          o    241    ccc     O4   6986 -0.96050000  16.000000   ; qtot -100.939289
 6987          o    241    ccc     O5   6987 -0.96050000  16.000000   ; qtot -101.899789
 6988         os    241    ccc     O1   6988 -0.11060000  16.000000   ; qtot -102.010389
; residue  242 ccc rtp ccc q -2.0
 6989         c3    242    ccc     C3   6989 -0.04070000  12.010000   ; qtot -102.051089
 6990         h1    242    ccc     H5   6990 0.04610000   1.008000   ; qtot -102.004989
 6991         h1    242    ccc     H6   6991 0.04610000   1.008000   ; qtot -101.958889
 6992         c3    242    ccc     C2   6992 -0.02540000  12.010000   ; qtot -101.984289
 6993         hc    242    ccc     H3   6993 0.00850000   1.008000   ; qtot -101.975789
 6994         hc    242    ccc     H4   6994 0.00850000   1.008000   ; qtot -101.967289
 6995         c3    242    ccc     C1   6995 0.60210000  12.010000   ; qtot -101.365189
 6996         h1    242    ccc     H1   6996 -0.09250000   1.008000   ; qtot -101.457689
 6997         h1    242    ccc     H2   6997 -0.09250000   1.008000   ; qtot -101.550189
 6998         n3    242    ccc     N1   6998 -0.59700000  14.010000   ; qtot -102.147189
 6999         c3    242    ccc     C4   6999 0.32800000  12.010000   ; qtot -101.819189
 7000         h1    242    ccc     H7   7000 -0.07120000   1.008000   ; qtot -101.890389
 7001         h1    242    ccc     H8   7001 -0.07120000   1.008000   ; qtot -101.961589
 7002         c3    242    ccc     C5   7002 -0.39330000  12.010000   ; qtot -102.354889
 7003         hc    242    ccc     H9   7003 0.08130000   1.008000   ; qtot -102.273589
 7004         hc    242    ccc    H10   7004 0.08130000   1.008000   ; qtot -102.192289
 7005          c    242    ccc     C6   7005 1.08970000  12.010000   ; qtot -101.102589
 7006          o    242    ccc     O2   7006 -0.96050000  16.000000   ; qtot -102.063089
 7007          o    242    ccc     O3   7007 -0.96050000  16.000000   ; qtot -103.023589
 7008         c3    242    ccc     C7   7008 0.32800000  12.010000   ; qtot -102.695589
 7009         h1    242    ccc    H11   7009 -0.07120000   1.008000   ; qtot -102.766789
 7010         h1    242    ccc    H12   7010 -0.07120000   1.008000   ; qtot -102.837989
 7011         c3    242    ccc     C8   7011 -0.39330000  12.010000   ; qtot -103.231289
 7012         hc    242    ccc    H13   7012 0.08130000   1.008000   ; qtot -103.149989
 7013         hc    242    ccc    H14   7013 0.08130000   1.008000   ; qtot -103.068689
 7014          c    242    ccc     C9   7014 1.08970000  12.010000   ; qtot -101.978989
 7015          o    242    ccc     O4   7015 -0.96050000  16.000000   ; qtot -102.939489
 7016          o    242    ccc     O5   7016 -0.96050000  16.000000   ; qtot -103.899989
 7017         os    242    ccc     O1   7017 -0.11060000  16.000000   ; qtot -104.010589
; residue  243 ccc rtp ccc q -2.0
 7018         c3    243    ccc     C3   7018 -0.04070000  12.010000   ; qtot -104.051289
 7019         h1    243    ccc     H5   7019 0.04610000   1.008000   ; qtot -104.005189
 7020         h1    243    ccc     H6   7020 0.04610000   1.008000   ; qtot -103.959089
 7021         c3    243    ccc     C2   7021 -0.02540000  12.010000   ; qtot -103.984489
 7022         hc    243    ccc     H3   7022 0.00850000   1.008000   ; qtot -103.975989
 7023         hc    243    ccc     H4   7023 0.00850000   1.008000   ; qtot -103.967489
 7024         c3    243    ccc     C1   7024 0.60210000  12.010000   ; qtot -103.365389
 7025         h1    243    ccc     H1   7025 -0.09250000   1.008000   ; qtot -103.457889
 7026         h1    243    ccc     H2   7026 -0.09250000   1.008000   ; qtot -103.550389
 7027         n3    243    ccc     N1   7027 -0.59700000  14.010000   ; qtot -104.147389
 7028         c3    243    ccc     C4   7028 0.32800000  12.010000   ; qtot -103.819389
 7029         h1    243    ccc     H7   7029 -0.07120000   1.008000   ; qtot -103.890589
 7030         h1    243    ccc     H8   7030 -0.07120000   1.008000   ; qtot -103.961789
 7031         c3    243    ccc     C5   7031 -0.39330000  12.010000   ; qtot -104.355089
 7032         hc    243    ccc     H9   7032 0.08130000   1.008000   ; qtot -104.273789
 7033         hc    243    ccc    H10   7033 0.08130000   1.008000   ; qtot -104.192489
 7034          c    243    ccc     C6   7034 1.08970000  12.010000   ; qtot -103.102789
 7035          o    243    ccc     O2   7035 -0.96050000  16.000000   ; qtot -104.063289
 7036          o    243    ccc     O3   7036 -0.96050000  16.000000   ; qtot -105.023789
 7037         c3    243    ccc     C7   7037 0.32800000  12.010000   ; qtot -104.695789
 7038         h1    243    ccc    H11   7038 -0.07120000   1.008000   ; qtot -104.766989
 7039         h1    243    ccc    H12   7039 -0.07120000   1.008000   ; qtot -104.838189
 7040         c3    243    ccc     C8   7040 -0.39330000  12.010000   ; qtot -105.231489
 7041         hc    243    ccc    H13   7041 0.08130000   1.008000   ; qtot -105.150189
 7042         hc    243    ccc    H14   7042 0.08130000   1.008000   ; qtot -105.068889
 7043          c    243    ccc     C9   7043 1.08970000  12.010000   ; qtot -103.979189
 7044          o    243    ccc     O4   7044 -0.96050000  16.000000   ; qtot -104.939689
 7045          o    243    ccc     O5   7045 -0.96050000  16.000000   ; qtot -105.900189
 7046         os    243    ccc     O1   7046 -0.11060000  16.000000   ; qtot -106.010789
; residue  244 ccc rtp ccc q -2.0
 7047         c3    244    ccc     C3   7047 -0.04070000  12.010000   ; qtot -106.051489
 7048         h1    244    ccc     H5   7048 0.04610000   1.008000   ; qtot -106.005389
 7049         h1    244    ccc     H6   7049 0.04610000   1.008000   ; qtot -105.959289
 7050         c3    244    ccc     C2   7050 -0.02540000  12.010000   ; qtot -105.984689
 7051         hc    244    ccc     H3   7051 0.00850000   1.008000   ; qtot -105.976189
 7052         hc    244    ccc     H4   7052 0.00850000   1.008000   ; qtot -105.967689
 7053         c3    244    ccc     C1   7053 0.60210000  12.010000   ; qtot -105.365589
 7054         h1    244    ccc     H1   7054 -0.09250000   1.008000   ; qtot -105.458089
 7055         h1    244    ccc     H2   7055 -0.09250000   1.008000   ; qtot -105.550589
 7056         n3    244    ccc     N1   7056 -0.59700000  14.010000   ; qtot -106.147589
 7057         c3    244    ccc     C4   7057 0.32800000  12.010000   ; qtot -105.819589
 7058         h1    244    ccc     H7   7058 -0.07120000   1.008000   ; qtot -105.890789
 7059         h1    244    ccc     H8   7059 -0.07120000   1.008000   ; qtot -105.961989
 7060         c3    244    ccc     C5   7060 -0.39330000  12.010000   ; qtot -106.355289
 7061         hc    244    ccc     H9   7061 0.08130000   1.008000   ; qtot -106.273989
 7062         hc    244    ccc    H10   7062 0.08130000   1.008000   ; qtot -106.192689
 7063          c    244    ccc     C6   7063 1.08970000  12.010000   ; qtot -105.102989
 7064          o    244    ccc     O2   7064 -0.96050000  16.000000   ; qtot -106.063489
 7065          o    244    ccc     O3   7065 -0.96050000  16.000000   ; qtot -107.023989
 7066         c3    244    ccc     C7   7066 0.32800000  12.010000   ; qtot -106.695989
 7067         h1    244    ccc    H11   7067 -0.07120000   1.008000   ; qtot -106.767189
 7068         h1    244    ccc    H12   7068 -0.07120000   1.008000   ; qtot -106.838389
 7069         c3    244    ccc     C8   7069 -0.39330000  12.010000   ; qtot -107.231689
 7070         hc    244    ccc    H13   7070 0.08130000   1.008000   ; qtot -107.150389
 7071         hc    244    ccc    H14   7071 0.08130000   1.008000   ; qtot -107.069089
 7072          c    244    ccc     C9   7072 1.08970000  12.010000   ; qtot -105.979389
 7073          o    244    ccc     O4   7073 -0.96050000  16.000000   ; qtot -106.939889
 7074          o    244    ccc     O5   7074 -0.96050000  16.000000   ; qtot -107.900389
 7075         os    244    ccc     O1   7075 -0.11060000  16.000000   ; qtot -108.010989
; residue  245 ccc rtp ccc q -2.0
 7076         c3    245    ccc     C3   7076 -0.04070000  12.010000   ; qtot -108.051689
 7077         h1    245    ccc     H5   7077 0.04610000   1.008000   ; qtot -108.005589
 7078         h1    245    ccc     H6   7078 0.04610000   1.008000   ; qtot -107.959489
 7079         c3    245    ccc     C2   7079 -0.02540000  12.010000   ; qtot -107.984889
 7080         hc    245    ccc     H3   7080 0.00850000   1.008000   ; qtot -107.976389
 7081         hc    245    ccc     H4   7081 0.00850000   1.008000   ; qtot -107.967889
 7082         c3    245    ccc     C1   7082 0.60210000  12.010000   ; qtot -107.365789
 7083         h1    245    ccc     H1   7083 -0.09250000   1.008000   ; qtot -107.458289
 7084         h1    245    ccc     H2   7084 -0.09250000   1.008000   ; qtot -107.550789
 7085         n3    245    ccc     N1   7085 -0.59700000  14.010000   ; qtot -108.147789
 7086         c3    245    ccc     C4   7086 0.32800000  12.010000   ; qtot -107.819789
 7087         h1    245    ccc     H7   7087 -0.07120000   1.008000   ; qtot -107.890989
 7088         h1    245    ccc     H8   7088 -0.07120000   1.008000   ; qtot -107.962189
 7089         c3    245    ccc     C5   7089 -0.39330000  12.010000   ; qtot -108.355489
 7090         hc    245    ccc     H9   7090 0.08130000   1.008000   ; qtot -108.274189
 7091         hc    245    ccc    H10   7091 0.08130000   1.008000   ; qtot -108.192889
 7092          c    245    ccc     C6   7092 1.08970000  12.010000   ; qtot -107.103189
 7093          o    245    ccc     O2   7093 -0.96050000  16.000000   ; qtot -108.063689
 7094          o    245    ccc     O3   7094 -0.96050000  16.000000   ; qtot -109.024189
 7095         c3    245    ccc     C7   7095 0.32800000  12.010000   ; qtot -108.696189
 7096         h1    245    ccc    H11   7096 -0.07120000   1.008000   ; qtot -108.767389
 7097         h1    245    ccc    H12   7097 -0.07120000   1.008000   ; qtot -108.838589
 7098         c3    245    ccc     C8   7098 -0.39330000  12.010000   ; qtot -109.231889
 7099         hc    245    ccc    H13   7099 0.08130000   1.008000   ; qtot -109.150589
 7100         hc    245    ccc    H14   7100 0.08130000   1.008000   ; qtot -109.069289
 7101          c    245    ccc     C9   7101 1.08970000  12.010000   ; qtot -107.979589
 7102          o    245    ccc     O4   7102 -0.96050000  16.000000   ; qtot -108.940089
 7103          o    245    ccc     O5   7103 -0.96050000  16.000000   ; qtot -109.900589
 7104         os    245    ccc     O1   7104 -0.11060000  16.000000   ; qtot -110.011189
; residue  246 ccc rtp ccc q -2.0
 7105         c3    246    ccc     C3   7105 -0.04070000  12.010000   ; qtot -110.051889
 7106         h1    246    ccc     H5   7106 0.04610000   1.008000   ; qtot -110.005789
 7107         h1    246    ccc     H6   7107 0.04610000   1.008000   ; qtot -109.959689
 7108         c3    246    ccc     C2   7108 -0.02540000  12.010000   ; qtot -109.985089
 7109         hc    246    ccc     H3   7109 0.00850000   1.008000   ; qtot -109.976589
 7110         hc    246    ccc     H4   7110 0.00850000   1.008000   ; qtot -109.968089
 7111         c3    246    ccc     C1   7111 0.60210000  12.010000   ; qtot -109.365989
 7112         h1    246    ccc     H1   7112 -0.09250000   1.008000   ; qtot -109.458489
 7113         h1    246    ccc     H2   7113 -0.09250000   1.008000   ; qtot -109.550989
 7114         n3    246    ccc     N1   7114 -0.59700000  14.010000   ; qtot -110.147989
 7115         c3    246    ccc     C4   7115 0.32800000  12.010000   ; qtot -109.819989
 7116         h1    246    ccc     H7   7116 -0.07120000   1.008000   ; qtot -109.891189
 7117         h1    246    ccc     H8   7117 -0.07120000   1.008000   ; qtot -109.962389
 7118         c3    246    ccc     C5   7118 -0.39330000  12.010000   ; qtot -110.355689
 7119         hc    246    ccc     H9   7119 0.08130000   1.008000   ; qtot -110.274389
 7120         hc    246    ccc    H10   7120 0.08130000   1.008000   ; qtot -110.193089
 7121          c    246    ccc     C6   7121 1.08970000  12.010000   ; qtot -109.103389
 7122          o    246    ccc     O2   7122 -0.96050000  16.000000   ; qtot -110.063889
 7123          o    246    ccc     O3   7123 -0.96050000  16.000000   ; qtot -111.024389
 7124         c3    246    ccc     C7   7124 0.32800000  12.010000   ; qtot -110.696389
 7125         h1    246    ccc    H11   7125 -0.07120000   1.008000   ; qtot -110.767589
 7126         h1    246    ccc    H12   7126 -0.07120000   1.008000   ; qtot -110.838789
 7127         c3    246    ccc     C8   7127 -0.39330000  12.010000   ; qtot -111.232089
 7128         hc    246    ccc    H13   7128 0.08130000   1.008000   ; qtot -111.150789
 7129         hc    246    ccc    H14   7129 0.08130000   1.008000   ; qtot -111.069489
 7130          c    246    ccc     C9   7130 1.08970000  12.010000   ; qtot -109.979789
 7131          o    246    ccc     O4   7131 -0.96050000  16.000000   ; qtot -110.940289
 7132          o    246    ccc     O5   7132 -0.96050000  16.000000   ; qtot -111.900789
 7133         os    246    ccc     O1   7133 -0.11060000  16.000000   ; qtot -112.011389
; residue  247 ccc rtp ccc q -2.0
 7134         c3    247    ccc     C3   7134 -0.04070000  12.010000   ; qtot -112.052089
 7135         h1    247    ccc     H5   7135 0.04610000   1.008000   ; qtot -112.005989
 7136         h1    247    ccc     H6   7136 0.04610000   1.008000   ; qtot -111.959889
 7137         c3    247    ccc     C2   7137 -0.02540000  12.010000   ; qtot -111.985289
 7138         hc    247    ccc     H3   7138 0.00850000   1.008000   ; qtot -111.976789
 7139         hc    247    ccc     H4   7139 0.00850000   1.008000   ; qtot -111.968289
 7140         c3    247    ccc     C1   7140 0.60210000  12.010000   ; qtot -111.366189
 7141         h1    247    ccc     H1   7141 -0.09250000   1.008000   ; qtot -111.458689
 7142         h1    247    ccc     H2   7142 -0.09250000   1.008000   ; qtot -111.551189
 7143         n3    247    ccc     N1   7143 -0.59700000  14.010000   ; qtot -112.148189
 7144         c3    247    ccc     C4   7144 0.32800000  12.010000   ; qtot -111.820189
 7145         h1    247    ccc     H7   7145 -0.07120000   1.008000   ; qtot -111.891389
 7146         h1    247    ccc     H8   7146 -0.07120000   1.008000   ; qtot -111.962589
 7147         c3    247    ccc     C5   7147 -0.39330000  12.010000   ; qtot -112.355889
 7148         hc    247    ccc     H9   7148 0.08130000   1.008000   ; qtot -112.274589
 7149         hc    247    ccc    H10   7149 0.08130000   1.008000   ; qtot -112.193289
 7150          c    247    ccc     C6   7150 1.08970000  12.010000   ; qtot -111.103589
 7151          o    247    ccc     O2   7151 -0.96050000  16.000000   ; qtot -112.064089
 7152          o    247    ccc     O3   7152 -0.96050000  16.000000   ; qtot -113.024589
 7153         c3    247    ccc     C7   7153 0.32800000  12.010000   ; qtot -112.696589
 7154         h1    247    ccc    H11   7154 -0.07120000   1.008000   ; qtot -112.767789
 7155         h1    247    ccc    H12   7155 -0.07120000   1.008000   ; qtot -112.838989
 7156         c3    247    ccc     C8   7156 -0.39330000  12.010000   ; qtot -113.232289
 7157         hc    247    ccc    H13   7157 0.08130000   1.008000   ; qtot -113.150989
 7158         hc    247    ccc    H14   7158 0.08130000   1.008000   ; qtot -113.069689
 7159          c    247    ccc     C9   7159 1.08970000  12.010000   ; qtot -111.979989
 7160          o    247    ccc     O4   7160 -0.96050000  16.000000   ; qtot -112.940489
 7161          o    247    ccc     O5   7161 -0.96050000  16.000000   ; qtot -113.900989
 7162         os    247    ccc     O1   7162 -0.11060000  16.000000   ; qtot -114.011589
; residue  248 ccc rtp ccc q -2.0
 7163         c3    248    ccc     C3   7163 -0.04070000  12.010000   ; qtot -114.052289
 7164         h1    248    ccc     H5   7164 0.04610000   1.008000   ; qtot -114.006189
 7165         h1    248    ccc     H6   7165 0.04610000   1.008000   ; qtot -113.960089
 7166         c3    248    ccc     C2   7166 -0.02540000  12.010000   ; qtot -113.985489
 7167         hc    248    ccc     H3   7167 0.00850000   1.008000   ; qtot -113.976989
 7168         hc    248    ccc     H4   7168 0.00850000   1.008000   ; qtot -113.968489
 7169         c3    248    ccc     C1   7169 0.60210000  12.010000   ; qtot -113.366389
 7170         h1    248    ccc     H1   7170 -0.09250000   1.008000   ; qtot -113.458889
 7171         h1    248    ccc     H2   7171 -0.09250000   1.008000   ; qtot -113.551389
 7172         n3    248    ccc     N1   7172 -0.59700000  14.010000   ; qtot -114.148389
 7173         c3    248    ccc     C4   7173 0.32800000  12.010000   ; qtot -113.820389
 7174         h1    248    ccc     H7   7174 -0.07120000   1.008000   ; qtot -113.891589
 7175         h1    248    ccc     H8   7175 -0.07120000   1.008000   ; qtot -113.962789
 7176         c3    248    ccc     C5   7176 -0.39330000  12.010000   ; qtot -114.356089
 7177         hc    248    ccc     H9   7177 0.08130000   1.008000   ; qtot -114.274789
 7178         hc    248    ccc    H10   7178 0.08130000   1.008000   ; qtot -114.193489
 7179          c    248    ccc     C6   7179 1.08970000  12.010000   ; qtot -113.103789
 7180          o    248    ccc     O2   7180 -0.96050000  16.000000   ; qtot -114.064289
 7181          o    248    ccc     O3   7181 -0.96050000  16.000000   ; qtot -115.024789
 7182         c3    248    ccc     C7   7182 0.32800000  12.010000   ; qtot -114.696789
 7183         h1    248    ccc    H11   7183 -0.07120000   1.008000   ; qtot -114.767989
 7184         h1    248    ccc    H12   7184 -0.07120000   1.008000   ; qtot -114.839189
 7185         c3    248    ccc     C8   7185 -0.39330000  12.010000   ; qtot -115.232489
 7186         hc    248    ccc    H13   7186 0.08130000   1.008000   ; qtot -115.151189
 7187         hc    248    ccc    H14   7187 0.08130000   1.008000   ; qtot -115.069889
 7188          c    248    ccc     C9   7188 1.08970000  12.010000   ; qtot -113.980189
 7189          o    248    ccc     O4   7189 -0.96050000  16.000000   ; qtot -114.940689
 7190          o    248    ccc     O5   7190 -0.96050000  16.000000   ; qtot -115.901189
 7191         os    248    ccc     O1   7191 -0.11060000  16.000000   ; qtot -116.011789
; residue  249 ccc rtp ccc q -2.0
 7192         c3    249    ccc     C3   7192 -0.04070000  12.010000   ; qtot -116.052489
 7193         h1    249    ccc     H5   7193 0.04610000   1.008000   ; qtot -116.006389
 7194         h1    249    ccc     H6   7194 0.04610000   1.008000   ; qtot -115.960289
 7195         c3    249    ccc     C2   7195 -0.02540000  12.010000   ; qtot -115.985689
 7196         hc    249    ccc     H3   7196 0.00850000   1.008000   ; qtot -115.977189
 7197         hc    249    ccc     H4   7197 0.00850000   1.008000   ; qtot -115.968689
 7198         c3    249    ccc     C1   7198 0.60210000  12.010000   ; qtot -115.366589
 7199         h1    249    ccc     H1   7199 -0.09250000   1.008000   ; qtot -115.459089
 7200         h1    249    ccc     H2   7200 -0.09250000   1.008000   ; qtot -115.551589
 7201         n3    249    ccc     N1   7201 -0.59700000  14.010000   ; qtot -116.148589
 7202         c3    249    ccc     C4   7202 0.32800000  12.010000   ; qtot -115.820589
 7203         h1    249    ccc     H7   7203 -0.07120000   1.008000   ; qtot -115.891789
 7204         h1    249    ccc     H8   7204 -0.07120000   1.008000   ; qtot -115.962989
 7205         c3    249    ccc     C5   7205 -0.39330000  12.010000   ; qtot -116.356289
 7206         hc    249    ccc     H9   7206 0.08130000   1.008000   ; qtot -116.274989
 7207         hc    249    ccc    H10   7207 0.08130000   1.008000   ; qtot -116.193689
 7208          c    249    ccc     C6   7208 1.08970000  12.010000   ; qtot -115.103989
 7209          o    249    ccc     O2   7209 -0.96050000  16.000000   ; qtot -116.064489
 7210          o    249    ccc     O3   7210 -0.96050000  16.000000   ; qtot -117.024989
 7211         c3    249    ccc     C7   7211 0.32800000  12.010000   ; qtot -116.696989
 7212         h1    249    ccc    H11   7212 -0.07120000   1.008000   ; qtot -116.768189
 7213         h1    249    ccc    H12   7213 -0.07120000   1.008000   ; qtot -116.839389
 7214         c3    249    ccc     C8   7214 -0.39330000  12.010000   ; qtot -117.232689
 7215         hc    249    ccc    H13   7215 0.08130000   1.008000   ; qtot -117.151389
 7216         hc    249    ccc    H14   7216 0.08130000   1.008000   ; qtot -117.070089
 7217          c    249    ccc     C9   7217 1.08970000  12.010000   ; qtot -115.980389
 7218          o    249    ccc     O4   7218 -0.96050000  16.000000   ; qtot -116.940889
 7219          o    249    ccc     O5   7219 -0.96050000  16.000000   ; qtot -117.901389
 7220         os    249    ccc     O1   7220 -0.11060000  16.000000   ; qtot -118.011989
; residue  250 ccc rtp ccc q -2.0
 7221         c3    250    ccc     C3   7221 -0.04070000  12.010000   ; qtot -118.052689
 7222         h1    250    ccc     H5   7222 0.04610000   1.008000   ; qtot -118.006589
 7223         h1    250    ccc     H6   7223 0.04610000   1.008000   ; qtot -117.960489
 7224         c3    250    ccc     C2   7224 -0.02540000  12.010000   ; qtot -117.985889
 7225         hc    250    ccc     H3   7225 0.00850000   1.008000   ; qtot -117.977389
 7226         hc    250    ccc     H4   7226 0.00850000   1.008000   ; qtot -117.968889
 7227         c3    250    ccc     C1   7227 0.60210000  12.010000   ; qtot -117.366789
 7228         h1    250    ccc     H1   7228 -0.09250000   1.008000   ; qtot -117.459289
 7229         h1    250    ccc     H2   7229 -0.09250000   1.008000   ; qtot -117.551789
 7230         n3    250    ccc     N1   7230 -0.59700000  14.010000   ; qtot -118.148789
 7231         c3    250    ccc     C4   7231 0.32800000  12.010000   ; qtot -117.820789
 7232         h1    250    ccc     H7   7232 -0.07120000   1.008000   ; qtot -117.891989
 7233         h1    250    ccc     H8   7233 -0.07120000   1.008000   ; qtot -117.963189
 7234         c3    250    ccc     C5   7234 -0.39330000  12.010000   ; qtot -118.356489
 7235         hc    250    ccc     H9   7235 0.08130000   1.008000   ; qtot -118.275189
 7236         hc    250    ccc    H10   7236 0.08130000   1.008000   ; qtot -118.193889
 7237          c    250    ccc     C6   7237 1.08970000  12.010000   ; qtot -117.104189
 7238          o    250    ccc     O2   7238 -0.96050000  16.000000   ; qtot -118.064689
 7239          o    250    ccc     O3   7239 -0.96050000  16.000000   ; qtot -119.025189
 7240         c3    250    ccc     C7   7240 0.32800000  12.010000   ; qtot -118.697189
 7241         h1    250    ccc    H11   7241 -0.07120000   1.008000   ; qtot -118.768389
 7242         h1    250    ccc    H12   7242 -0.07120000   1.008000   ; qtot -118.839589
 7243         c3    250    ccc     C8   7243 -0.39330000  12.010000   ; qtot -119.232889
 7244         hc    250    ccc    H13   7244 0.08130000   1.008000   ; qtot -119.151589
 7245         hc    250    ccc    H14   7245 0.08130000   1.008000   ; qtot -119.070289
 7246          c    250    ccc     C9   7246 1.08970000  12.010000   ; qtot -117.980589
 7247          o    250    ccc     O4   7247 -0.96050000  16.000000   ; qtot -118.941089
 7248          o    250    ccc     O5   7248 -0.96050000  16.000000   ; qtot -119.901589
 7249         os    250    ccc     O1   7249 -0.11060000  16.000000   ; qtot -120.012189
; residue  251 ccc rtp ccc q -2.0
 7250         c3    251    ccc     C3   7250 -0.04070000  12.010000   ; qtot -120.052889
 7251         h1    251    ccc     H5   7251 0.04610000   1.008000   ; qtot -120.006789
 7252         h1    251    ccc     H6   7252 0.04610000   1.008000   ; qtot -119.960689
 7253         c3    251    ccc     C2   7253 -0.02540000  12.010000   ; qtot -119.986089
 7254         hc    251    ccc     H3   7254 0.00850000   1.008000   ; qtot -119.977589
 7255         hc    251    ccc     H4   7255 0.00850000   1.008000   ; qtot -119.969089
 7256         c3    251    ccc     C1   7256 0.60210000  12.010000   ; qtot -119.366989
 7257         h1    251    ccc     H1   7257 -0.09250000   1.008000   ; qtot -119.459489
 7258         h1    251    ccc     H2   7258 -0.09250000   1.008000   ; qtot -119.551989
 7259         n3    251    ccc     N1   7259 -0.59700000  14.010000   ; qtot -120.148989
 7260         c3    251    ccc     C4   7260 0.32800000  12.010000   ; qtot -119.820989
 7261         h1    251    ccc     H7   7261 -0.07120000   1.008000   ; qtot -119.892189
 7262         h1    251    ccc     H8   7262 -0.07120000   1.008000   ; qtot -119.963389
 7263         c3    251    ccc     C5   7263 -0.39330000  12.010000   ; qtot -120.356689
 7264         hc    251    ccc     H9   7264 0.08130000   1.008000   ; qtot -120.275389
 7265         hc    251    ccc    H10   7265 0.08130000   1.008000   ; qtot -120.194089
 7266          c    251    ccc     C6   7266 1.08970000  12.010000   ; qtot -119.104389
 7267          o    251    ccc     O2   7267 -0.96050000  16.000000   ; qtot -120.064889
 7268          o    251    ccc     O3   7268 -0.96050000  16.000000   ; qtot -121.025389
 7269         c3    251    ccc     C7   7269 0.32800000  12.010000   ; qtot -120.697389
 7270         h1    251    ccc    H11   7270 -0.07120000   1.008000   ; qtot -120.768589
 7271         h1    251    ccc    H12   7271 -0.07120000   1.008000   ; qtot -120.839789
 7272         c3    251    ccc     C8   7272 -0.39330000  12.010000   ; qtot -121.233089
 7273         hc    251    ccc    H13   7273 0.08130000   1.008000   ; qtot -121.151789
 7274         hc    251    ccc    H14   7274 0.08130000   1.008000   ; qtot -121.070489
 7275          c    251    ccc     C9   7275 1.08970000  12.010000   ; qtot -119.980789
 7276          o    251    ccc     O4   7276 -0.96050000  16.000000   ; qtot -120.941289
 7277          o    251    ccc     O5   7277 -0.96050000  16.000000   ; qtot -121.901789
 7278         os    251    ccc     O1   7278 -0.11060000  16.000000   ; qtot -122.012389
; residue  252 ccc rtp ccc q -2.0
 7279         c3    252    ccc     C3   7279 -0.04070000  12.010000   ; qtot -122.053089
 7280         h1    252    ccc     H5   7280 0.04610000   1.008000   ; qtot -122.006989
 7281         h1    252    ccc     H6   7281 0.04610000   1.008000   ; qtot -121.960889
 7282         c3    252    ccc     C2   7282 -0.02540000  12.010000   ; qtot -121.986289
 7283         hc    252    ccc     H3   7283 0.00850000   1.008000   ; qtot -121.977789
 7284         hc    252    ccc     H4   7284 0.00850000   1.008000   ; qtot -121.969289
 7285         c3    252    ccc     C1   7285 0.60210000  12.010000   ; qtot -121.367189
 7286         h1    252    ccc     H1   7286 -0.09250000   1.008000   ; qtot -121.459689
 7287         h1    252    ccc     H2   7287 -0.09250000   1.008000   ; qtot -121.552189
 7288         n3    252    ccc     N1   7288 -0.59700000  14.010000   ; qtot -122.149189
 7289         c3    252    ccc     C4   7289 0.32800000  12.010000   ; qtot -121.821189
 7290         h1    252    ccc     H7   7290 -0.07120000   1.008000   ; qtot -121.892389
 7291         h1    252    ccc     H8   7291 -0.07120000   1.008000   ; qtot -121.963589
 7292         c3    252    ccc     C5   7292 -0.39330000  12.010000   ; qtot -122.356889
 7293         hc    252    ccc     H9   7293 0.08130000   1.008000   ; qtot -122.275589
 7294         hc    252    ccc    H10   7294 0.08130000   1.008000   ; qtot -122.194289
 7295          c    252    ccc     C6   7295 1.08970000  12.010000   ; qtot -121.104589
 7296          o    252    ccc     O2   7296 -0.96050000  16.000000   ; qtot -122.065089
 7297          o    252    ccc     O3   7297 -0.96050000  16.000000   ; qtot -123.025589
 7298         c3    252    ccc     C7   7298 0.32800000  12.010000   ; qtot -122.697589
 7299         h1    252    ccc    H11   7299 -0.07120000   1.008000   ; qtot -122.768789
 7300         h1    252    ccc    H12   7300 -0.07120000   1.008000   ; qtot -122.839989
 7301         c3    252    ccc     C8   7301 -0.39330000  12.010000   ; qtot -123.233289
 7302         hc    252    ccc    H13   7302 0.08130000   1.008000   ; qtot -123.151989
 7303         hc    252    ccc    H14   7303 0.08130000   1.008000   ; qtot -123.070689
 7304          c    252    ccc     C9   7304 1.08970000  12.010000   ; qtot -121.980989
 7305          o    252    ccc     O4   7305 -0.96050000  16.000000   ; qtot -122.941489
 7306          o    252    ccc     O5   7306 -0.96050000  16.000000   ; qtot -123.901989
 7307         os    252    ccc     O1   7307 -0.11060000  16.000000   ; qtot -124.012589
; residue  253 ccc rtp ccc q -2.0
 7308         c3    253    ccc     C3   7308 -0.04070000  12.010000   ; qtot -124.053289
 7309         h1    253    ccc     H5   7309 0.04610000   1.008000   ; qtot -124.007189
 7310         h1    253    ccc     H6   7310 0.04610000   1.008000   ; qtot -123.961089
 7311         c3    253    ccc     C2   7311 -0.02540000  12.010000   ; qtot -123.986489
 7312         hc    253    ccc     H3   7312 0.00850000   1.008000   ; qtot -123.977989
 7313         hc    253    ccc     H4   7313 0.00850000   1.008000   ; qtot -123.969489
 7314         c3    253    ccc     C1   7314 0.60210000  12.010000   ; qtot -123.367389
 7315         h1    253    ccc     H1   7315 -0.09250000   1.008000   ; qtot -123.459889
 7316         h1    253    ccc     H2   7316 -0.09250000   1.008000   ; qtot -123.552389
 7317         n3    253    ccc     N1   7317 -0.59700000  14.010000   ; qtot -124.149389
 7318         c3    253    ccc     C4   7318 0.32800000  12.010000   ; qtot -123.821389
 7319         h1    253    ccc     H7   7319 -0.07120000   1.008000   ; qtot -123.892589
 7320         h1    253    ccc     H8   7320 -0.07120000   1.008000   ; qtot -123.963789
 7321         c3    253    ccc     C5   7321 -0.39330000  12.010000   ; qtot -124.357089
 7322         hc    253    ccc     H9   7322 0.08130000   1.008000   ; qtot -124.275789
 7323         hc    253    ccc    H10   7323 0.08130000   1.008000   ; qtot -124.194489
 7324          c    253    ccc     C6   7324 1.08970000  12.010000   ; qtot -123.104789
 7325          o    253    ccc     O2   7325 -0.96050000  16.000000   ; qtot -124.065289
 7326          o    253    ccc     O3   7326 -0.96050000  16.000000   ; qtot -125.025789
 7327         c3    253    ccc     C7   7327 0.32800000  12.010000   ; qtot -124.697789
 7328         h1    253    ccc    H11   7328 -0.07120000   1.008000   ; qtot -124.768989
 7329         h1    253    ccc    H12   7329 -0.07120000   1.008000   ; qtot -124.840189
 7330         c3    253    ccc     C8   7330 -0.39330000  12.010000   ; qtot -125.233489
 7331         hc    253    ccc    H13   7331 0.08130000   1.008000   ; qtot -125.152189
 7332         hc    253    ccc    H14   7332 0.08130000   1.008000   ; qtot -125.070889
 7333          c    253    ccc     C9   7333 1.08970000  12.010000   ; qtot -123.981189
 7334          o    253    ccc     O4   7334 -0.96050000  16.000000   ; qtot -124.941689
 7335          o    253    ccc     O5   7335 -0.96050000  16.000000   ; qtot -125.902189
 7336         os    253    ccc     O1   7336 -0.11060000  16.000000   ; qtot -126.012789
; residue  254 ccc rtp ccc q -2.0
 7337         c3    254    ccc     C3   7337 -0.04070000  12.010000   ; qtot -126.053489
 7338         h1    254    ccc     H5   7338 0.04610000   1.008000   ; qtot -126.007389
 7339         h1    254    ccc     H6   7339 0.04610000   1.008000   ; qtot -125.961289
 7340         c3    254    ccc     C2   7340 -0.02540000  12.010000   ; qtot -125.986689
 7341         hc    254    ccc     H3   7341 0.00850000   1.008000   ; qtot -125.978189
 7342         hc    254    ccc     H4   7342 0.00850000   1.008000   ; qtot -125.969689
 7343         c3    254    ccc     C1   7343 0.60210000  12.010000   ; qtot -125.367589
 7344         h1    254    ccc     H1   7344 -0.09250000   1.008000   ; qtot -125.460089
 7345         h1    254    ccc     H2   7345 -0.09250000   1.008000   ; qtot -125.552589
 7346         n3    254    ccc     N1   7346 -0.59700000  14.010000   ; qtot -126.149589
 7347         c3    254    ccc     C4   7347 0.32800000  12.010000   ; qtot -125.821589
 7348         h1    254    ccc     H7   7348 -0.07120000   1.008000   ; qtot -125.892789
 7349         h1    254    ccc     H8   7349 -0.07120000   1.008000   ; qtot -125.963989
 7350         c3    254    ccc     C5   7350 -0.39330000  12.010000   ; qtot -126.357289
 7351         hc    254    ccc     H9   7351 0.08130000   1.008000   ; qtot -126.275989
 7352         hc    254    ccc    H10   7352 0.08130000   1.008000   ; qtot -126.194689
 7353          c    254    ccc     C6   7353 1.08970000  12.010000   ; qtot -125.104989
 7354          o    254    ccc     O2   7354 -0.96050000  16.000000   ; qtot -126.065489
 7355          o    254    ccc     O3   7355 -0.96050000  16.000000   ; qtot -127.025989
 7356         c3    254    ccc     C7   7356 0.32800000  12.010000   ; qtot -126.697989
 7357         h1    254    ccc    H11   7357 -0.07120000   1.008000   ; qtot -126.769189
 7358         h1    254    ccc    H12   7358 -0.07120000   1.008000   ; qtot -126.840389
 7359         c3    254    ccc     C8   7359 -0.39330000  12.010000   ; qtot -127.233689
 7360         hc    254    ccc    H13   7360 0.08130000   1.008000   ; qtot -127.152389
 7361         hc    254    ccc    H14   7361 0.08130000   1.008000   ; qtot -127.071089
 7362          c    254    ccc     C9   7362 1.08970000  12.010000   ; qtot -125.981389
 7363          o    254    ccc     O4   7363 -0.96050000  16.000000   ; qtot -126.941889
 7364          o    254    ccc     O5   7364 -0.96050000  16.000000   ; qtot -127.902389
 7365         os    254    ccc     O1   7365 -0.11060000  16.000000   ; qtot -128.012989
; residue  255 ccc rtp ccc q -2.0
 7366         c3    255    ccc     C3   7366 -0.04070000  12.010000   ; qtot -128.053689
 7367         h1    255    ccc     H5   7367 0.04610000   1.008000   ; qtot -128.007589
 7368         h1    255    ccc     H6   7368 0.04610000   1.008000   ; qtot -127.961489
 7369         c3    255    ccc     C2   7369 -0.02540000  12.010000   ; qtot -127.986889
 7370         hc    255    ccc     H3   7370 0.00850000   1.008000   ; qtot -127.978389
 7371         hc    255    ccc     H4   7371 0.00850000   1.008000   ; qtot -127.969889
 7372         c3    255    ccc     C1   7372 0.60210000  12.010000   ; qtot -127.367789
 7373         h1    255    ccc     H1   7373 -0.09250000   1.008000   ; qtot -127.460289
 7374         h1    255    ccc     H2   7374 -0.09250000   1.008000   ; qtot -127.552789
 7375         n3    255    ccc     N1   7375 -0.59700000  14.010000   ; qtot -128.149789
 7376         c3    255    ccc     C4   7376 0.32800000  12.010000   ; qtot -127.821789
 7377         h1    255    ccc     H7   7377 -0.07120000   1.008000   ; qtot -127.892989
 7378         h1    255    ccc     H8   7378 -0.07120000   1.008000   ; qtot -127.964189
 7379         c3    255    ccc     C5   7379 -0.39330000  12.010000   ; qtot -128.357489
 7380         hc    255    ccc     H9   7380 0.08130000   1.008000   ; qtot -128.276189
 7381         hc    255    ccc    H10   7381 0.08130000   1.008000   ; qtot -128.194889
 7382          c    255    ccc     C6   7382 1.08970000  12.010000   ; qtot -127.105189
 7383          o    255    ccc     O2   7383 -0.96050000  16.000000   ; qtot -128.065689
 7384          o    255    ccc     O3   7384 -0.96050000  16.000000   ; qtot -129.026189
 7385         c3    255    ccc     C7   7385 0.32800000  12.010000   ; qtot -128.698189
 7386         h1    255    ccc    H11   7386 -0.07120000   1.008000   ; qtot -128.769389
 7387         h1    255    ccc    H12   7387 -0.07120000   1.008000   ; qtot -128.840589
 7388         c3    255    ccc     C8   7388 -0.39330000  12.010000   ; qtot -129.233889
 7389         hc    255    ccc    H13   7389 0.08130000   1.008000   ; qtot -129.152589
 7390         hc    255    ccc    H14   7390 0.08130000   1.008000   ; qtot -129.071289
 7391          c    255    ccc     C9   7391 1.08970000  12.010000   ; qtot -127.981589
 7392          o    255    ccc     O4   7392 -0.96050000  16.000000   ; qtot -128.942089
 7393          o    255    ccc     O5   7393 -0.96050000  16.000000   ; qtot -129.902589
 7394         os    255    ccc     O1   7394 -0.11060000  16.000000   ; qtot -130.013189
; residue  256 ccc rtp ccc q -2.0
 7395         c3    256    ccc     C3   7395 -0.04070000  12.010000   ; qtot -130.053889
 7396         h1    256    ccc     H5   7396 0.04610000   1.008000   ; qtot -130.007789
 7397         h1    256    ccc     H6   7397 0.04610000   1.008000   ; qtot -129.961689
 7398         c3    256    ccc     C2   7398 -0.02540000  12.010000   ; qtot -129.987089
 7399         hc    256    ccc     H3   7399 0.00850000   1.008000   ; qtot -129.978589
 7400         hc    256    ccc     H4   7400 0.00850000   1.008000   ; qtot -129.970089
 7401         c3    256    ccc     C1   7401 0.60210000  12.010000   ; qtot -129.367989
 7402         h1    256    ccc     H1   7402 -0.09250000   1.008000   ; qtot -129.460489
 7403         h1    256    ccc     H2   7403 -0.09250000   1.008000   ; qtot -129.552989
 7404         n3    256    ccc     N1   7404 -0.59700000  14.010000   ; qtot -130.149989
 7405         c3    256    ccc     C4   7405 0.32800000  12.010000   ; qtot -129.821989
 7406         h1    256    ccc     H7   7406 -0.07120000   1.008000   ; qtot -129.893189
 7407         h1    256    ccc     H8   7407 -0.07120000   1.008000   ; qtot -129.964389
 7408         c3    256    ccc     C5   7408 -0.39330000  12.010000   ; qtot -130.357689
 7409         hc    256    ccc     H9   7409 0.08130000   1.008000   ; qtot -130.276389
 7410         hc    256    ccc    H10   7410 0.08130000   1.008000   ; qtot -130.195089
 7411          c    256    ccc     C6   7411 1.08970000  12.010000   ; qtot -129.105389
 7412          o    256    ccc     O2   7412 -0.96050000  16.000000   ; qtot -130.065889
 7413          o    256    ccc     O3   7413 -0.96050000  16.000000   ; qtot -131.026389
 7414         c3    256    ccc     C7   7414 0.32800000  12.010000   ; qtot -130.698389
 7415         h1    256    ccc    H11   7415 -0.07120000   1.008000   ; qtot -130.769589
 7416         h1    256    ccc    H12   7416 -0.07120000   1.008000   ; qtot -130.840789
 7417         c3    256    ccc     C8   7417 -0.39330000  12.010000   ; qtot -131.234089
 7418         hc    256    ccc    H13   7418 0.08130000   1.008000   ; qtot -131.152789
 7419         hc    256    ccc    H14   7419 0.08130000   1.008000   ; qtot -131.071489
 7420          c    256    ccc     C9   7420 1.08970000  12.010000   ; qtot -129.981789
 7421          o    256    ccc     O4   7421 -0.96050000  16.000000   ; qtot -130.942289
 7422          o    256    ccc     O5   7422 -0.96050000  16.000000   ; qtot -131.902789
 7423         os    256    ccc     O1   7423 -0.11060000  16.000000   ; qtot -132.013389
; residue  257 ccc rtp ccc q -2.0
 7424         c3    257    ccc     C3   7424 -0.04070000  12.010000   ; qtot -132.054089
 7425         h1    257    ccc     H5   7425 0.04610000   1.008000   ; qtot -132.007989
 7426         h1    257    ccc     H6   7426 0.04610000   1.008000   ; qtot -131.961889
 7427         c3    257    ccc     C2   7427 -0.02540000  12.010000   ; qtot -131.987289
 7428         hc    257    ccc     H3   7428 0.00850000   1.008000   ; qtot -131.978789
 7429         hc    257    ccc     H4   7429 0.00850000   1.008000   ; qtot -131.970289
 7430         c3    257    ccc     C1   7430 0.60210000  12.010000   ; qtot -131.368189
 7431         h1    257    ccc     H1   7431 -0.09250000   1.008000   ; qtot -131.460689
 7432         h1    257    ccc     H2   7432 -0.09250000   1.008000   ; qtot -131.553189
 7433         n3    257    ccc     N1   7433 -0.59700000  14.010000   ; qtot -132.150189
 7434         c3    257    ccc     C4   7434 0.32800000  12.010000   ; qtot -131.822189
 7435         h1    257    ccc     H7   7435 -0.07120000   1.008000   ; qtot -131.893389
 7436         h1    257    ccc     H8   7436 -0.07120000   1.008000   ; qtot -131.964589
 7437         c3    257    ccc     C5   7437 -0.39330000  12.010000   ; qtot -132.357889
 7438         hc    257    ccc     H9   7438 0.08130000   1.008000   ; qtot -132.276589
 7439         hc    257    ccc    H10   7439 0.08130000   1.008000   ; qtot -132.195289
 7440          c    257    ccc     C6   7440 1.08970000  12.010000   ; qtot -131.105589
 7441          o    257    ccc     O2   7441 -0.96050000  16.000000   ; qtot -132.066089
 7442          o    257    ccc     O3   7442 -0.96050000  16.000000   ; qtot -133.026589
 7443         c3    257    ccc     C7   7443 0.32800000  12.010000   ; qtot -132.698589
 7444         h1    257    ccc    H11   7444 -0.07120000   1.008000   ; qtot -132.769789
 7445         h1    257    ccc    H12   7445 -0.07120000   1.008000   ; qtot -132.840989
 7446         c3    257    ccc     C8   7446 -0.39330000  12.010000   ; qtot -133.234289
 7447         hc    257    ccc    H13   7447 0.08130000   1.008000   ; qtot -133.152989
 7448         hc    257    ccc    H14   7448 0.08130000   1.008000   ; qtot -133.071689
 7449          c    257    ccc     C9   7449 1.08970000  12.010000   ; qtot -131.981989
 7450          o    257    ccc     O4   7450 -0.96050000  16.000000   ; qtot -132.942489
 7451          o    257    ccc     O5   7451 -0.96050000  16.000000   ; qtot -133.902989
 7452         os    257    ccc     O1   7452 -0.11060000  16.000000   ; qtot -134.013589
; residue  258 ccc rtp ccc q -2.0
 7453         c3    258    ccc     C3   7453 -0.04070000  12.010000   ; qtot -134.054289
 7454         h1    258    ccc     H5   7454 0.04610000   1.008000   ; qtot -134.008189
 7455         h1    258    ccc     H6   7455 0.04610000   1.008000   ; qtot -133.962089
 7456         c3    258    ccc     C2   7456 -0.02540000  12.010000   ; qtot -133.987489
 7457         hc    258    ccc     H3   7457 0.00850000   1.008000   ; qtot -133.978989
 7458         hc    258    ccc     H4   7458 0.00850000   1.008000   ; qtot -133.970489
 7459         c3    258    ccc     C1   7459 0.60210000  12.010000   ; qtot -133.368389
 7460         h1    258    ccc     H1   7460 -0.09250000   1.008000   ; qtot -133.460889
 7461         h1    258    ccc     H2   7461 -0.09250000   1.008000   ; qtot -133.553389
 7462         n3    258    ccc     N1   7462 -0.59700000  14.010000   ; qtot -134.150389
 7463         c3    258    ccc     C4   7463 0.32800000  12.010000   ; qtot -133.822389
 7464         h1    258    ccc     H7   7464 -0.07120000   1.008000   ; qtot -133.893589
 7465         h1    258    ccc     H8   7465 -0.07120000   1.008000   ; qtot -133.964789
 7466         c3    258    ccc     C5   7466 -0.39330000  12.010000   ; qtot -134.358089
 7467         hc    258    ccc     H9   7467 0.08130000   1.008000   ; qtot -134.276789
 7468         hc    258    ccc    H10   7468 0.08130000   1.008000   ; qtot -134.195489
 7469          c    258    ccc     C6   7469 1.08970000  12.010000   ; qtot -133.105789
 7470          o    258    ccc     O2   7470 -0.96050000  16.000000   ; qtot -134.066289
 7471          o    258    ccc     O3   7471 -0.96050000  16.000000   ; qtot -135.026789
 7472         c3    258    ccc     C7   7472 0.32800000  12.010000   ; qtot -134.698789
 7473         h1    258    ccc    H11   7473 -0.07120000   1.008000   ; qtot -134.769989
 7474         h1    258    ccc    H12   7474 -0.07120000   1.008000   ; qtot -134.841189
 7475         c3    258    ccc     C8   7475 -0.39330000  12.010000   ; qtot -135.234489
 7476         hc    258    ccc    H13   7476 0.08130000   1.008000   ; qtot -135.153189
 7477         hc    258    ccc    H14   7477 0.08130000   1.008000   ; qtot -135.071889
 7478          c    258    ccc     C9   7478 1.08970000  12.010000   ; qtot -133.982189
 7479          o    258    ccc     O4   7479 -0.96050000  16.000000   ; qtot -134.942689
 7480          o    258    ccc     O5   7480 -0.96050000  16.000000   ; qtot -135.903189
 7481         os    258    ccc     O1   7481 -0.11060000  16.000000   ; qtot -136.013789
; residue  259 ccc rtp ccc q -2.0
 7482         c3    259    ccc     C3   7482 -0.04070000  12.010000   ; qtot -136.054489
 7483         h1    259    ccc     H5   7483 0.04610000   1.008000   ; qtot -136.008389
 7484         h1    259    ccc     H6   7484 0.04610000   1.008000   ; qtot -135.962289
 7485         c3    259    ccc     C2   7485 -0.02540000  12.010000   ; qtot -135.987689
 7486         hc    259    ccc     H3   7486 0.00850000   1.008000   ; qtot -135.979189
 7487         hc    259    ccc     H4   7487 0.00850000   1.008000   ; qtot -135.970689
 7488         c3    259    ccc     C1   7488 0.60210000  12.010000   ; qtot -135.368589
 7489         h1    259    ccc     H1   7489 -0.09250000   1.008000   ; qtot -135.461089
 7490         h1    259    ccc     H2   7490 -0.09250000   1.008000   ; qtot -135.553589
 7491         n3    259    ccc     N1   7491 -0.59700000  14.010000   ; qtot -136.150589
 7492         c3    259    ccc     C4   7492 0.32800000  12.010000   ; qtot -135.822589
 7493         h1    259    ccc     H7   7493 -0.07120000   1.008000   ; qtot -135.893789
 7494         h1    259    ccc     H8   7494 -0.07120000   1.008000   ; qtot -135.964989
 7495         c3    259    ccc     C5   7495 -0.39330000  12.010000   ; qtot -136.358289
 7496         hc    259    ccc     H9   7496 0.08130000   1.008000   ; qtot -136.276989
 7497         hc    259    ccc    H10   7497 0.08130000   1.008000   ; qtot -136.195689
 7498          c    259    ccc     C6   7498 1.08970000  12.010000   ; qtot -135.105989
 7499          o    259    ccc     O2   7499 -0.96050000  16.000000   ; qtot -136.066489
 7500          o    259    ccc     O3   7500 -0.96050000  16.000000   ; qtot -137.026989
 7501         c3    259    ccc     C7   7501 0.32800000  12.010000   ; qtot -136.698989
 7502         h1    259    ccc    H11   7502 -0.07120000   1.008000   ; qtot -136.770189
 7503         h1    259    ccc    H12   7503 -0.07120000   1.008000   ; qtot -136.841389
 7504         c3    259    ccc     C8   7504 -0.39330000  12.010000   ; qtot -137.234689
 7505         hc    259    ccc    H13   7505 0.08130000   1.008000   ; qtot -137.153389
 7506         hc    259    ccc    H14   7506 0.08130000   1.008000   ; qtot -137.072089
 7507          c    259    ccc     C9   7507 1.08970000  12.010000   ; qtot -135.982389
 7508          o    259    ccc     O4   7508 -0.96050000  16.000000   ; qtot -136.942889
 7509          o    259    ccc     O5   7509 -0.96050000  16.000000   ; qtot -137.903389
 7510         os    259    ccc     O1   7510 -0.11060000  16.000000   ; qtot -138.013989
; residue  260 ccc rtp ccc q -2.0
 7511         c3    260    ccc     C3   7511 -0.04070000  12.010000   ; qtot -138.054689
 7512         h1    260    ccc     H5   7512 0.04610000   1.008000   ; qtot -138.008589
 7513         h1    260    ccc     H6   7513 0.04610000   1.008000   ; qtot -137.962489
 7514         c3    260    ccc     C2   7514 -0.02540000  12.010000   ; qtot -137.987889
 7515         hc    260    ccc     H3   7515 0.00850000   1.008000   ; qtot -137.979389
 7516         hc    260    ccc     H4   7516 0.00850000   1.008000   ; qtot -137.970889
 7517         c3    260    ccc     C1   7517 0.60210000  12.010000   ; qtot -137.368789
 7518         h1    260    ccc     H1   7518 -0.09250000   1.008000   ; qtot -137.461289
 7519         h1    260    ccc     H2   7519 -0.09250000   1.008000   ; qtot -137.553789
 7520         n3    260    ccc     N1   7520 -0.59700000  14.010000   ; qtot -138.150789
 7521         c3    260    ccc     C4   7521 0.32800000  12.010000   ; qtot -137.822789
 7522         h1    260    ccc     H7   7522 -0.07120000   1.008000   ; qtot -137.893989
 7523         h1    260    ccc     H8   7523 -0.07120000   1.008000   ; qtot -137.965189
 7524         c3    260    ccc     C5   7524 -0.39330000  12.010000   ; qtot -138.358489
 7525         hc    260    ccc     H9   7525 0.08130000   1.008000   ; qtot -138.277189
 7526         hc    260    ccc    H10   7526 0.08130000   1.008000   ; qtot -138.195889
 7527          c    260    ccc     C6   7527 1.08970000  12.010000   ; qtot -137.106189
 7528          o    260    ccc     O2   7528 -0.96050000  16.000000   ; qtot -138.066689
 7529          o    260    ccc     O3   7529 -0.96050000  16.000000   ; qtot -139.027189
 7530         c3    260    ccc     C7   7530 0.32800000  12.010000   ; qtot -138.699189
 7531         h1    260    ccc    H11   7531 -0.07120000   1.008000   ; qtot -138.770389
 7532         h1    260    ccc    H12   7532 -0.07120000   1.008000   ; qtot -138.841589
 7533         c3    260    ccc     C8   7533 -0.39330000  12.010000   ; qtot -139.234889
 7534         hc    260    ccc    H13   7534 0.08130000   1.008000   ; qtot -139.153589
 7535         hc    260    ccc    H14   7535 0.08130000   1.008000   ; qtot -139.072289
 7536          c    260    ccc     C9   7536 1.08970000  12.010000   ; qtot -137.982589
 7537          o    260    ccc     O4   7537 -0.96050000  16.000000   ; qtot -138.943089
 7538          o    260    ccc     O5   7538 -0.96050000  16.000000   ; qtot -139.903589
 7539         os    260    ccc     O1   7539 -0.11060000  16.000000   ; qtot -140.014189
; residue  261 ccc rtp ccc q -2.0
 7540         c3    261    ccc     C3   7540 -0.04070000  12.010000   ; qtot -140.054889
 7541         h1    261    ccc     H5   7541 0.04610000   1.008000   ; qtot -140.008789
 7542         h1    261    ccc     H6   7542 0.04610000   1.008000   ; qtot -139.962689
 7543         c3    261    ccc     C2   7543 -0.02540000  12.010000   ; qtot -139.988089
 7544         hc    261    ccc     H3   7544 0.00850000   1.008000   ; qtot -139.979589
 7545         hc    261    ccc     H4   7545 0.00850000   1.008000   ; qtot -139.971089
 7546         c3    261    ccc     C1   7546 0.60210000  12.010000   ; qtot -139.368989
 7547         h1    261    ccc     H1   7547 -0.09250000   1.008000   ; qtot -139.461489
 7548         h1    261    ccc     H2   7548 -0.09250000   1.008000   ; qtot -139.553989
 7549         n3    261    ccc     N1   7549 -0.59700000  14.010000   ; qtot -140.150989
 7550         c3    261    ccc     C4   7550 0.32800000  12.010000   ; qtot -139.822989
 7551         h1    261    ccc     H7   7551 -0.07120000   1.008000   ; qtot -139.894189
 7552         h1    261    ccc     H8   7552 -0.07120000   1.008000   ; qtot -139.965389
 7553         c3    261    ccc     C5   7553 -0.39330000  12.010000   ; qtot -140.358689
 7554         hc    261    ccc     H9   7554 0.08130000   1.008000   ; qtot -140.277389
 7555         hc    261    ccc    H10   7555 0.08130000   1.008000   ; qtot -140.196089
 7556          c    261    ccc     C6   7556 1.08970000  12.010000   ; qtot -139.106389
 7557          o    261    ccc     O2   7557 -0.96050000  16.000000   ; qtot -140.066889
 7558          o    261    ccc     O3   7558 -0.96050000  16.000000   ; qtot -141.027389
 7559         c3    261    ccc     C7   7559 0.32800000  12.010000   ; qtot -140.699389
 7560         h1    261    ccc    H11   7560 -0.07120000   1.008000   ; qtot -140.770589
 7561         h1    261    ccc    H12   7561 -0.07120000   1.008000   ; qtot -140.841789
 7562         c3    261    ccc     C8   7562 -0.39330000  12.010000   ; qtot -141.235089
 7563         hc    261    ccc    H13   7563 0.08130000   1.008000   ; qtot -141.153789
 7564         hc    261    ccc    H14   7564 0.08130000   1.008000   ; qtot -141.072489
 7565          c    261    ccc     C9   7565 1.08970000  12.010000   ; qtot -139.982789
 7566          o    261    ccc     O4   7566 -0.96050000  16.000000   ; qtot -140.943289
 7567          o    261    ccc     O5   7567 -0.96050000  16.000000   ; qtot -141.903789
 7568         os    261    ccc     O1   7568 -0.11060000  16.000000   ; qtot -142.014389
; residue  262 ccc rtp ccc q -2.0
 7569         c3    262    ccc     C3   7569 -0.04070000  12.010000   ; qtot -142.055089
 7570         h1    262    ccc     H5   7570 0.04610000   1.008000   ; qtot -142.008989
 7571         h1    262    ccc     H6   7571 0.04610000   1.008000   ; qtot -141.962889
 7572         c3    262    ccc     C2   7572 -0.02540000  12.010000   ; qtot -141.988289
 7573         hc    262    ccc     H3   7573 0.00850000   1.008000   ; qtot -141.979789
 7574         hc    262    ccc     H4   7574 0.00850000   1.008000   ; qtot -141.971289
 7575         c3    262    ccc     C1   7575 0.60210000  12.010000   ; qtot -141.369189
 7576         h1    262    ccc     H1   7576 -0.09250000   1.008000   ; qtot -141.461689
 7577         h1    262    ccc     H2   7577 -0.09250000   1.008000   ; qtot -141.554189
 7578         n3    262    ccc     N1   7578 -0.59700000  14.010000   ; qtot -142.151189
 7579         c3    262    ccc     C4   7579 0.32800000  12.010000   ; qtot -141.823189
 7580         h1    262    ccc     H7   7580 -0.07120000   1.008000   ; qtot -141.894389
 7581         h1    262    ccc     H8   7581 -0.07120000   1.008000   ; qtot -141.965589
 7582         c3    262    ccc     C5   7582 -0.39330000  12.010000   ; qtot -142.358889
 7583         hc    262    ccc     H9   7583 0.08130000   1.008000   ; qtot -142.277589
 7584         hc    262    ccc    H10   7584 0.08130000   1.008000   ; qtot -142.196289
 7585          c    262    ccc     C6   7585 1.08970000  12.010000   ; qtot -141.106589
 7586          o    262    ccc     O2   7586 -0.96050000  16.000000   ; qtot -142.067089
 7587          o    262    ccc     O3   7587 -0.96050000  16.000000   ; qtot -143.027589
 7588         c3    262    ccc     C7   7588 0.32800000  12.010000   ; qtot -142.699589
 7589         h1    262    ccc    H11   7589 -0.07120000   1.008000   ; qtot -142.770789
 7590         h1    262    ccc    H12   7590 -0.07120000   1.008000   ; qtot -142.841989
 7591         c3    262    ccc     C8   7591 -0.39330000  12.010000   ; qtot -143.235289
 7592         hc    262    ccc    H13   7592 0.08130000   1.008000   ; qtot -143.153989
 7593         hc    262    ccc    H14   7593 0.08130000   1.008000   ; qtot -143.072689
 7594          c    262    ccc     C9   7594 1.08970000  12.010000   ; qtot -141.982989
 7595          o    262    ccc     O4   7595 -0.96050000  16.000000   ; qtot -142.943489
 7596          o    262    ccc     O5   7596 -0.96050000  16.000000   ; qtot -143.903989
 7597         os    262    ccc     O1   7597 -0.11060000  16.000000   ; qtot -144.014589
; residue  263 ccc rtp ccc q -2.0
 7598         c3    263    ccc     C3   7598 -0.04070000  12.010000   ; qtot -144.055289
 7599         h1    263    ccc     H5   7599 0.04610000   1.008000   ; qtot -144.009189
 7600         h1    263    ccc     H6   7600 0.04610000   1.008000   ; qtot -143.963089
 7601         c3    263    ccc     C2   7601 -0.02540000  12.010000   ; qtot -143.988489
 7602         hc    263    ccc     H3   7602 0.00850000   1.008000   ; qtot -143.979989
 7603         hc    263    ccc     H4   7603 0.00850000   1.008000   ; qtot -143.971489
 7604         c3    263    ccc     C1   7604 0.60210000  12.010000   ; qtot -143.369389
 7605         h1    263    ccc     H1   7605 -0.09250000   1.008000   ; qtot -143.461889
 7606         h1    263    ccc     H2   7606 -0.09250000   1.008000   ; qtot -143.554389
 7607         n3    263    ccc     N1   7607 -0.59700000  14.010000   ; qtot -144.151389
 7608         c3    263    ccc     C4   7608 0.32800000  12.010000   ; qtot -143.823389
 7609         h1    263    ccc     H7   7609 -0.07120000   1.008000   ; qtot -143.894589
 7610         h1    263    ccc     H8   7610 -0.07120000   1.008000   ; qtot -143.965789
 7611         c3    263    ccc     C5   7611 -0.39330000  12.010000   ; qtot -144.359089
 7612         hc    263    ccc     H9   7612 0.08130000   1.008000   ; qtot -144.277789
 7613         hc    263    ccc    H10   7613 0.08130000   1.008000   ; qtot -144.196489
 7614          c    263    ccc     C6   7614 1.08970000  12.010000   ; qtot -143.106789
 7615          o    263    ccc     O2   7615 -0.96050000  16.000000   ; qtot -144.067289
 7616          o    263    ccc     O3   7616 -0.96050000  16.000000   ; qtot -145.027789
 7617         c3    263    ccc     C7   7617 0.32800000  12.010000   ; qtot -144.699789
 7618         h1    263    ccc    H11   7618 -0.07120000   1.008000   ; qtot -144.770989
 7619         h1    263    ccc    H12   7619 -0.07120000   1.008000   ; qtot -144.842189
 7620         c3    263    ccc     C8   7620 -0.39330000  12.010000   ; qtot -145.235489
 7621         hc    263    ccc    H13   7621 0.08130000   1.008000   ; qtot -145.154189
 7622         hc    263    ccc    H14   7622 0.08130000   1.008000   ; qtot -145.072889
 7623          c    263    ccc     C9   7623 1.08970000  12.010000   ; qtot -143.983189
 7624          o    263    ccc     O4   7624 -0.96050000  16.000000   ; qtot -144.943689
 7625          o    263    ccc     O5   7625 -0.96050000  16.000000   ; qtot -145.904189
 7626         os    263    ccc     O1   7626 -0.11060000  16.000000   ; qtot -146.014789
; residue  264 ccc rtp ccc q -2.0
 7627         c3    264    ccc     C3   7627 -0.04070000  12.010000   ; qtot -146.055489
 7628         h1    264    ccc     H5   7628 0.04610000   1.008000   ; qtot -146.009389
 7629         h1    264    ccc     H6   7629 0.04610000   1.008000   ; qtot -145.963289
 7630         c3    264    ccc     C2   7630 -0.02540000  12.010000   ; qtot -145.988689
 7631         hc    264    ccc     H3   7631 0.00850000   1.008000   ; qtot -145.980189
 7632         hc    264    ccc     H4   7632 0.00850000   1.008000   ; qtot -145.971689
 7633         c3    264    ccc     C1   7633 0.60210000  12.010000   ; qtot -145.369589
 7634         h1    264    ccc     H1   7634 -0.09250000   1.008000   ; qtot -145.462089
 7635         h1    264    ccc     H2   7635 -0.09250000   1.008000   ; qtot -145.554589
 7636         n3    264    ccc     N1   7636 -0.59700000  14.010000   ; qtot -146.151589
 7637         c3    264    ccc     C4   7637 0.32800000  12.010000   ; qtot -145.823589
 7638         h1    264    ccc     H7   7638 -0.07120000   1.008000   ; qtot -145.894789
 7639         h1    264    ccc     H8   7639 -0.07120000   1.008000   ; qtot -145.965989
 7640         c3    264    ccc     C5   7640 -0.39330000  12.010000   ; qtot -146.359289
 7641         hc    264    ccc     H9   7641 0.08130000   1.008000   ; qtot -146.277989
 7642         hc    264    ccc    H10   7642 0.08130000   1.008000   ; qtot -146.196689
 7643          c    264    ccc     C6   7643 1.08970000  12.010000   ; qtot -145.106989
 7644          o    264    ccc     O2   7644 -0.96050000  16.000000   ; qtot -146.067489
 7645          o    264    ccc     O3   7645 -0.96050000  16.000000   ; qtot -147.027989
 7646         c3    264    ccc     C7   7646 0.32800000  12.010000   ; qtot -146.699989
 7647         h1    264    ccc    H11   7647 -0.07120000   1.008000   ; qtot -146.771189
 7648         h1    264    ccc    H12   7648 -0.07120000   1.008000   ; qtot -146.842389
 7649         c3    264    ccc     C8   7649 -0.39330000  12.010000   ; qtot -147.235689
 7650         hc    264    ccc    H13   7650 0.08130000   1.008000   ; qtot -147.154389
 7651         hc    264    ccc    H14   7651 0.08130000   1.008000   ; qtot -147.073089
 7652          c    264    ccc     C9   7652 1.08970000  12.010000   ; qtot -145.983389
 7653          o    264    ccc     O4   7653 -0.96050000  16.000000   ; qtot -146.943889
 7654          o    264    ccc     O5   7654 -0.96050000  16.000000   ; qtot -147.904389
 7655         os    264    ccc     O1   7655 -0.11060000  16.000000   ; qtot -148.014989
; residue  265 ccc rtp ccc q -2.0
 7656         c3    265    ccc     C3   7656 -0.04070000  12.010000   ; qtot -148.055689
 7657         h1    265    ccc     H5   7657 0.04610000   1.008000   ; qtot -148.009589
 7658         h1    265    ccc     H6   7658 0.04610000   1.008000   ; qtot -147.963489
 7659         c3    265    ccc     C2   7659 -0.02540000  12.010000   ; qtot -147.988889
 7660         hc    265    ccc     H3   7660 0.00850000   1.008000   ; qtot -147.980389
 7661         hc    265    ccc     H4   7661 0.00850000   1.008000   ; qtot -147.971889
 7662         c3    265    ccc     C1   7662 0.60210000  12.010000   ; qtot -147.369789
 7663         h1    265    ccc     H1   7663 -0.09250000   1.008000   ; qtot -147.462289
 7664         h1    265    ccc     H2   7664 -0.09250000   1.008000   ; qtot -147.554789
 7665         n3    265    ccc     N1   7665 -0.59700000  14.010000   ; qtot -148.151789
 7666         c3    265    ccc     C4   7666 0.32800000  12.010000   ; qtot -147.823789
 7667         h1    265    ccc     H7   7667 -0.07120000   1.008000   ; qtot -147.894989
 7668         h1    265    ccc     H8   7668 -0.07120000   1.008000   ; qtot -147.966189
 7669         c3    265    ccc     C5   7669 -0.39330000  12.010000   ; qtot -148.359489
 7670         hc    265    ccc     H9   7670 0.08130000   1.008000   ; qtot -148.278189
 7671         hc    265    ccc    H10   7671 0.08130000   1.008000   ; qtot -148.196889
 7672          c    265    ccc     C6   7672 1.08970000  12.010000   ; qtot -147.107189
 7673          o    265    ccc     O2   7673 -0.96050000  16.000000   ; qtot -148.067689
 7674          o    265    ccc     O3   7674 -0.96050000  16.000000   ; qtot -149.028189
 7675         c3    265    ccc     C7   7675 0.32800000  12.010000   ; qtot -148.700189
 7676         h1    265    ccc    H11   7676 -0.07120000   1.008000   ; qtot -148.771389
 7677         h1    265    ccc    H12   7677 -0.07120000   1.008000   ; qtot -148.842589
 7678         c3    265    ccc     C8   7678 -0.39330000  12.010000   ; qtot -149.235889
 7679         hc    265    ccc    H13   7679 0.08130000   1.008000   ; qtot -149.154589
 7680         hc    265    ccc    H14   7680 0.08130000   1.008000   ; qtot -149.073289
 7681          c    265    ccc     C9   7681 1.08970000  12.010000   ; qtot -147.983589
 7682          o    265    ccc     O4   7682 -0.96050000  16.000000   ; qtot -148.944089
 7683          o    265    ccc     O5   7683 -0.96050000  16.000000   ; qtot -149.904589
 7684         os    265    ccc     O1   7684 -0.11060000  16.000000   ; qtot -150.015189
; residue  266 ccc rtp ccc q -2.0
 7685         c3    266    ccc     C3   7685 -0.04070000  12.010000   ; qtot -150.055889
 7686         h1    266    ccc     H5   7686 0.04610000   1.008000   ; qtot -150.009789
 7687         h1    266    ccc     H6   7687 0.04610000   1.008000   ; qtot -149.963689
 7688         c3    266    ccc     C2   7688 -0.02540000  12.010000   ; qtot -149.989089
 7689         hc    266    ccc     H3   7689 0.00850000   1.008000   ; qtot -149.980589
 7690         hc    266    ccc     H4   7690 0.00850000   1.008000   ; qtot -149.972089
 7691         c3    266    ccc     C1   7691 0.60210000  12.010000   ; qtot -149.369989
 7692         h1    266    ccc     H1   7692 -0.09250000   1.008000   ; qtot -149.462489
 7693         h1    266    ccc     H2   7693 -0.09250000   1.008000   ; qtot -149.554989
 7694         n3    266    ccc     N1   7694 -0.59700000  14.010000   ; qtot -150.151989
 7695         c3    266    ccc     C4   7695 0.32800000  12.010000   ; qtot -149.823989
 7696         h1    266    ccc     H7   7696 -0.07120000   1.008000   ; qtot -149.895189
 7697         h1    266    ccc     H8   7697 -0.07120000   1.008000   ; qtot -149.966389
 7698         c3    266    ccc     C5   7698 -0.39330000  12.010000   ; qtot -150.359689
 7699         hc    266    ccc     H9   7699 0.08130000   1.008000   ; qtot -150.278389
 7700         hc    266    ccc    H10   7700 0.08130000   1.008000   ; qtot -150.197089
 7701          c    266    ccc     C6   7701 1.08970000  12.010000   ; qtot -149.107389
 7702          o    266    ccc     O2   7702 -0.96050000  16.000000   ; qtot -150.067889
 7703          o    266    ccc     O3   7703 -0.96050000  16.000000   ; qtot -151.028389
 7704         c3    266    ccc     C7   7704 0.32800000  12.010000   ; qtot -150.700389
 7705         h1    266    ccc    H11   7705 -0.07120000   1.008000   ; qtot -150.771589
 7706         h1    266    ccc    H12   7706 -0.07120000   1.008000   ; qtot -150.842789
 7707         c3    266    ccc     C8   7707 -0.39330000  12.010000   ; qtot -151.236089
 7708         hc    266    ccc    H13   7708 0.08130000   1.008000   ; qtot -151.154789
 7709         hc    266    ccc    H14   7709 0.08130000   1.008000   ; qtot -151.073489
 7710          c    266    ccc     C9   7710 1.08970000  12.010000   ; qtot -149.983789
 7711          o    266    ccc     O4   7711 -0.96050000  16.000000   ; qtot -150.944289
 7712          o    266    ccc     O5   7712 -0.96050000  16.000000   ; qtot -151.904789
 7713         os    266    ccc     O1   7713 -0.11060000  16.000000   ; qtot -152.015389
; residue  267 ccc rtp ccc q -2.0
 7714         c3    267    ccc     C3   7714 -0.04070000  12.010000   ; qtot -152.056089
 7715         h1    267    ccc     H5   7715 0.04610000   1.008000   ; qtot -152.009989
 7716         h1    267    ccc     H6   7716 0.04610000   1.008000   ; qtot -151.963889
 7717         c3    267    ccc     C2   7717 -0.02540000  12.010000   ; qtot -151.989289
 7718         hc    267    ccc     H3   7718 0.00850000   1.008000   ; qtot -151.980789
 7719         hc    267    ccc     H4   7719 0.00850000   1.008000   ; qtot -151.972289
 7720         c3    267    ccc     C1   7720 0.60210000  12.010000   ; qtot -151.370189
 7721         h1    267    ccc     H1   7721 -0.09250000   1.008000   ; qtot -151.462689
 7722         h1    267    ccc     H2   7722 -0.09250000   1.008000   ; qtot -151.555189
 7723         n3    267    ccc     N1   7723 -0.59700000  14.010000   ; qtot -152.152189
 7724         c3    267    ccc     C4   7724 0.32800000  12.010000   ; qtot -151.824189
 7725         h1    267    ccc     H7   7725 -0.07120000   1.008000   ; qtot -151.895389
 7726         h1    267    ccc     H8   7726 -0.07120000   1.008000   ; qtot -151.966589
 7727         c3    267    ccc     C5   7727 -0.39330000  12.010000   ; qtot -152.359889
 7728         hc    267    ccc     H9   7728 0.08130000   1.008000   ; qtot -152.278589
 7729         hc    267    ccc    H10   7729 0.08130000   1.008000   ; qtot -152.197289
 7730          c    267    ccc     C6   7730 1.08970000  12.010000   ; qtot -151.107589
 7731          o    267    ccc     O2   7731 -0.96050000  16.000000   ; qtot -152.068089
 7732          o    267    ccc     O3   7732 -0.96050000  16.000000   ; qtot -153.028589
 7733         c3    267    ccc     C7   7733 0.32800000  12.010000   ; qtot -152.700589
 7734         h1    267    ccc    H11   7734 -0.07120000   1.008000   ; qtot -152.771789
 7735         h1    267    ccc    H12   7735 -0.07120000   1.008000   ; qtot -152.842989
 7736         c3    267    ccc     C8   7736 -0.39330000  12.010000   ; qtot -153.236289
 7737         hc    267    ccc    H13   7737 0.08130000   1.008000   ; qtot -153.154989
 7738         hc    267    ccc    H14   7738 0.08130000   1.008000   ; qtot -153.073689
 7739          c    267    ccc     C9   7739 1.08970000  12.010000   ; qtot -151.983989
 7740          o    267    ccc     O4   7740 -0.96050000  16.000000   ; qtot -152.944489
 7741          o    267    ccc     O5   7741 -0.96050000  16.000000   ; qtot -153.904989
 7742         os    267    ccc     O1   7742 -0.11060000  16.000000   ; qtot -154.015589
; residue  268 ccc rtp ccc q -2.0
 7743         c3    268    ccc     C3   7743 -0.04070000  12.010000   ; qtot -154.056289
 7744         h1    268    ccc     H5   7744 0.04610000   1.008000   ; qtot -154.010189
 7745         h1    268    ccc     H6   7745 0.04610000   1.008000   ; qtot -153.964089
 7746         c3    268    ccc     C2   7746 -0.02540000  12.010000   ; qtot -153.989489
 7747         hc    268    ccc     H3   7747 0.00850000   1.008000   ; qtot -153.980989
 7748         hc    268    ccc     H4   7748 0.00850000   1.008000   ; qtot -153.972489
 7749         c3    268    ccc     C1   7749 0.60210000  12.010000   ; qtot -153.370389
 7750         h1    268    ccc     H1   7750 -0.09250000   1.008000   ; qtot -153.462889
 7751         h1    268    ccc     H2   7751 -0.09250000   1.008000   ; qtot -153.555389
 7752         n3    268    ccc     N1   7752 -0.59700000  14.010000   ; qtot -154.152389
 7753         c3    268    ccc     C4   7753 0.32800000  12.010000   ; qtot -153.824389
 7754         h1    268    ccc     H7   7754 -0.07120000   1.008000   ; qtot -153.895589
 7755         h1    268    ccc     H8   7755 -0.07120000   1.008000   ; qtot -153.966789
 7756         c3    268    ccc     C5   7756 -0.39330000  12.010000   ; qtot -154.360089
 7757         hc    268    ccc     H9   7757 0.08130000   1.008000   ; qtot -154.278789
 7758         hc    268    ccc    H10   7758 0.08130000   1.008000   ; qtot -154.197489
 7759          c    268    ccc     C6   7759 1.08970000  12.010000   ; qtot -153.107789
 7760          o    268    ccc     O2   7760 -0.96050000  16.000000   ; qtot -154.068289
 7761          o    268    ccc     O3   7761 -0.96050000  16.000000   ; qtot -155.028789
 7762         c3    268    ccc     C7   7762 0.32800000  12.010000   ; qtot -154.700789
 7763         h1    268    ccc    H11   7763 -0.07120000   1.008000   ; qtot -154.771989
 7764         h1    268    ccc    H12   7764 -0.07120000   1.008000   ; qtot -154.843189
 7765         c3    268    ccc     C8   7765 -0.39330000  12.010000   ; qtot -155.236489
 7766         hc    268    ccc    H13   7766 0.08130000   1.008000   ; qtot -155.155189
 7767         hc    268    ccc    H14   7767 0.08130000   1.008000   ; qtot -155.073889
 7768          c    268    ccc     C9   7768 1.08970000  12.010000   ; qtot -153.984189
 7769          o    268    ccc     O4   7769 -0.96050000  16.000000   ; qtot -154.944689
 7770          o    268    ccc     O5   7770 -0.96050000  16.000000   ; qtot -155.905189
 7771         os    268    ccc     O1   7771 -0.11060000  16.000000   ; qtot -156.015789
; residue  269 ccc rtp ccc q -2.0
 7772         c3    269    ccc     C3   7772 -0.04070000  12.010000   ; qtot -156.056489
 7773         h1    269    ccc     H5   7773 0.04610000   1.008000   ; qtot -156.010389
 7774         h1    269    ccc     H6   7774 0.04610000   1.008000   ; qtot -155.964289
 7775         c3    269    ccc     C2   7775 -0.02540000  12.010000   ; qtot -155.989689
 7776         hc    269    ccc     H3   7776 0.00850000   1.008000   ; qtot -155.981189
 7777         hc    269    ccc     H4   7777 0.00850000   1.008000   ; qtot -155.972689
 7778         c3    269    ccc     C1   7778 0.60210000  12.010000   ; qtot -155.370589
 7779         h1    269    ccc     H1   7779 -0.09250000   1.008000   ; qtot -155.463089
 7780         h1    269    ccc     H2   7780 -0.09250000   1.008000   ; qtot -155.555589
 7781         n3    269    ccc     N1   7781 -0.59700000  14.010000   ; qtot -156.152589
 7782         c3    269    ccc     C4   7782 0.32800000  12.010000   ; qtot -155.824589
 7783         h1    269    ccc     H7   7783 -0.07120000   1.008000   ; qtot -155.895789
 7784         h1    269    ccc     H8   7784 -0.07120000   1.008000   ; qtot -155.966989
 7785         c3    269    ccc     C5   7785 -0.39330000  12.010000   ; qtot -156.360289
 7786         hc    269    ccc     H9   7786 0.08130000   1.008000   ; qtot -156.278989
 7787         hc    269    ccc    H10   7787 0.08130000   1.008000   ; qtot -156.197689
 7788          c    269    ccc     C6   7788 1.08970000  12.010000   ; qtot -155.107989
 7789          o    269    ccc     O2   7789 -0.96050000  16.000000   ; qtot -156.068489
 7790          o    269    ccc     O3   7790 -0.96050000  16.000000   ; qtot -157.028989
 7791         c3    269    ccc     C7   7791 0.32800000  12.010000   ; qtot -156.700989
 7792         h1    269    ccc    H11   7792 -0.07120000   1.008000   ; qtot -156.772189
 7793         h1    269    ccc    H12   7793 -0.07120000   1.008000   ; qtot -156.843389
 7794         c3    269    ccc     C8   7794 -0.39330000  12.010000   ; qtot -157.236689
 7795         hc    269    ccc    H13   7795 0.08130000   1.008000   ; qtot -157.155389
 7796         hc    269    ccc    H14   7796 0.08130000   1.008000   ; qtot -157.074089
 7797          c    269    ccc     C9   7797 1.08970000  12.010000   ; qtot -155.984389
 7798          o    269    ccc     O4   7798 -0.96050000  16.000000   ; qtot -156.944889
 7799          o    269    ccc     O5   7799 -0.96050000  16.000000   ; qtot -157.905389
 7800         os    269    ccc     O1   7800 -0.11060000  16.000000   ; qtot -158.015989
; residue  270 ccc rtp ccc q -2.0
 7801         c3    270    ccc     C3   7801 -0.04070000  12.010000   ; qtot -158.056689
 7802         h1    270    ccc     H5   7802 0.04610000   1.008000   ; qtot -158.010589
 7803         h1    270    ccc     H6   7803 0.04610000   1.008000   ; qtot -157.964489
 7804         c3    270    ccc     C2   7804 -0.02540000  12.010000   ; qtot -157.989889
 7805         hc    270    ccc     H3   7805 0.00850000   1.008000   ; qtot -157.981389
 7806         hc    270    ccc     H4   7806 0.00850000   1.008000   ; qtot -157.972889
 7807         c3    270    ccc     C1   7807 0.60210000  12.010000   ; qtot -157.370789
 7808         h1    270    ccc     H1   7808 -0.09250000   1.008000   ; qtot -157.463289
 7809         h1    270    ccc     H2   7809 -0.09250000   1.008000   ; qtot -157.555789
 7810         n3    270    ccc     N1   7810 -0.59700000  14.010000   ; qtot -158.152789
 7811         c3    270    ccc     C4   7811 0.32800000  12.010000   ; qtot -157.824789
 7812         h1    270    ccc     H7   7812 -0.07120000   1.008000   ; qtot -157.895989
 7813         h1    270    ccc     H8   7813 -0.07120000   1.008000   ; qtot -157.967189
 7814         c3    270    ccc     C5   7814 -0.39330000  12.010000   ; qtot -158.360489
 7815         hc    270    ccc     H9   7815 0.08130000   1.008000   ; qtot -158.279189
 7816         hc    270    ccc    H10   7816 0.08130000   1.008000   ; qtot -158.197889
 7817          c    270    ccc     C6   7817 1.08970000  12.010000   ; qtot -157.108189
 7818          o    270    ccc     O2   7818 -0.96050000  16.000000   ; qtot -158.068689
 7819          o    270    ccc     O3   7819 -0.96050000  16.000000   ; qtot -159.029189
 7820         c3    270    ccc     C7   7820 0.32800000  12.010000   ; qtot -158.701189
 7821         h1    270    ccc    H11   7821 -0.07120000   1.008000   ; qtot -158.772389
 7822         h1    270    ccc    H12   7822 -0.07120000   1.008000   ; qtot -158.843589
 7823         c3    270    ccc     C8   7823 -0.39330000  12.010000   ; qtot -159.236889
 7824         hc    270    ccc    H13   7824 0.08130000   1.008000   ; qtot -159.155589
 7825         hc    270    ccc    H14   7825 0.08130000   1.008000   ; qtot -159.074289
 7826          c    270    ccc     C9   7826 1.08970000  12.010000   ; qtot -157.984589
 7827          o    270    ccc     O4   7827 -0.96050000  16.000000   ; qtot -158.945089
 7828          o    270    ccc     O5   7828 -0.96050000  16.000000   ; qtot -159.905589
 7829         os    270    ccc     O1   7829 -0.11060000  16.000000   ; qtot -160.016189
; residue  271 ccc rtp ccc q -2.0
 7830         c3    271    ccc     C3   7830 -0.04070000  12.010000   ; qtot -160.056889
 7831         h1    271    ccc     H5   7831 0.04610000   1.008000   ; qtot -160.010789
 7832         h1    271    ccc     H6   7832 0.04610000   1.008000   ; qtot -159.964689
 7833         c3    271    ccc     C2   7833 -0.02540000  12.010000   ; qtot -159.990089
 7834         hc    271    ccc     H3   7834 0.00850000   1.008000   ; qtot -159.981589
 7835         hc    271    ccc     H4   7835 0.00850000   1.008000   ; qtot -159.973089
 7836         c3    271    ccc     C1   7836 0.60210000  12.010000   ; qtot -159.370989
 7837         h1    271    ccc     H1   7837 -0.09250000   1.008000   ; qtot -159.463489
 7838         h1    271    ccc     H2   7838 -0.09250000   1.008000   ; qtot -159.555989
 7839         n3    271    ccc     N1   7839 -0.59700000  14.010000   ; qtot -160.152989
 7840         c3    271    ccc     C4   7840 0.32800000  12.010000   ; qtot -159.824989
 7841         h1    271    ccc     H7   7841 -0.07120000   1.008000   ; qtot -159.896189
 7842         h1    271    ccc     H8   7842 -0.07120000   1.008000   ; qtot -159.967389
 7843         c3    271    ccc     C5   7843 -0.39330000  12.010000   ; qtot -160.360689
 7844         hc    271    ccc     H9   7844 0.08130000   1.008000   ; qtot -160.279389
 7845         hc    271    ccc    H10   7845 0.08130000   1.008000   ; qtot -160.198089
 7846          c    271    ccc     C6   7846 1.08970000  12.010000   ; qtot -159.108389
 7847          o    271    ccc     O2   7847 -0.96050000  16.000000   ; qtot -160.068889
 7848          o    271    ccc     O3   7848 -0.96050000  16.000000   ; qtot -161.029389
 7849         c3    271    ccc     C7   7849 0.32800000  12.010000   ; qtot -160.701389
 7850         h1    271    ccc    H11   7850 -0.07120000   1.008000   ; qtot -160.772589
 7851         h1    271    ccc    H12   7851 -0.07120000   1.008000   ; qtot -160.843789
 7852         c3    271    ccc     C8   7852 -0.39330000  12.010000   ; qtot -161.237089
 7853         hc    271    ccc    H13   7853 0.08130000   1.008000   ; qtot -161.155789
 7854         hc    271    ccc    H14   7854 0.08130000   1.008000   ; qtot -161.074489
 7855          c    271    ccc     C9   7855 1.08970000  12.010000   ; qtot -159.984789
 7856          o    271    ccc     O4   7856 -0.96050000  16.000000   ; qtot -160.945289
 7857          o    271    ccc     O5   7857 -0.96050000  16.000000   ; qtot -161.905789
 7858         os    271    ccc     O1   7858 -0.11060000  16.000000   ; qtot -162.016389
; residue  272 ccc rtp ccc q -2.0
 7859         c3    272    ccc     C3   7859 -0.04070000  12.010000   ; qtot -162.057089
 7860         h1    272    ccc     H5   7860 0.04610000   1.008000   ; qtot -162.010989
 7861         h1    272    ccc     H6   7861 0.04610000   1.008000   ; qtot -161.964889
 7862         c3    272    ccc     C2   7862 -0.02540000  12.010000   ; qtot -161.990289
 7863         hc    272    ccc     H3   7863 0.00850000   1.008000   ; qtot -161.981789
 7864         hc    272    ccc     H4   7864 0.00850000   1.008000   ; qtot -161.973289
 7865         c3    272    ccc     C1   7865 0.60210000  12.010000   ; qtot -161.371189
 7866         h1    272    ccc     H1   7866 -0.09250000   1.008000   ; qtot -161.463689
 7867         h1    272    ccc     H2   7867 -0.09250000   1.008000   ; qtot -161.556189
 7868         n3    272    ccc     N1   7868 -0.59700000  14.010000   ; qtot -162.153189
 7869         c3    272    ccc     C4   7869 0.32800000  12.010000   ; qtot -161.825189
 7870         h1    272    ccc     H7   7870 -0.07120000   1.008000   ; qtot -161.896389
 7871         h1    272    ccc     H8   7871 -0.07120000   1.008000   ; qtot -161.967589
 7872         c3    272    ccc     C5   7872 -0.39330000  12.010000   ; qtot -162.360889
 7873         hc    272    ccc     H9   7873 0.08130000   1.008000   ; qtot -162.279589
 7874         hc    272    ccc    H10   7874 0.08130000   1.008000   ; qtot -162.198289
 7875          c    272    ccc     C6   7875 1.08970000  12.010000   ; qtot -161.108589
 7876          o    272    ccc     O2   7876 -0.96050000  16.000000   ; qtot -162.069089
 7877          o    272    ccc     O3   7877 -0.96050000  16.000000   ; qtot -163.029589
 7878         c3    272    ccc     C7   7878 0.32800000  12.010000   ; qtot -162.701589
 7879         h1    272    ccc    H11   7879 -0.07120000   1.008000   ; qtot -162.772789
 7880         h1    272    ccc    H12   7880 -0.07120000   1.008000   ; qtot -162.843989
 7881         c3    272    ccc     C8   7881 -0.39330000  12.010000   ; qtot -163.237289
 7882         hc    272    ccc    H13   7882 0.08130000   1.008000   ; qtot -163.155989
 7883         hc    272    ccc    H14   7883 0.08130000   1.008000   ; qtot -163.074689
 7884          c    272    ccc     C9   7884 1.08970000  12.010000   ; qtot -161.984989
 7885          o    272    ccc     O4   7885 -0.96050000  16.000000   ; qtot -162.945489
 7886          o    272    ccc     O5   7886 -0.96050000  16.000000   ; qtot -163.905989
 7887         os    272    ccc     O1   7887 -0.11060000  16.000000   ; qtot -164.016589
; residue  273 ccc rtp ccc q -2.0
 7888         c3    273    ccc     C3   7888 -0.04070000  12.010000   ; qtot -164.057289
 7889         h1    273    ccc     H5   7889 0.04610000   1.008000   ; qtot -164.011189
 7890         h1    273    ccc     H6   7890 0.04610000   1.008000   ; qtot -163.965089
 7891         c3    273    ccc     C2   7891 -0.02540000  12.010000   ; qtot -163.990489
 7892         hc    273    ccc     H3   7892 0.00850000   1.008000   ; qtot -163.981989
 7893         hc    273    ccc     H4   7893 0.00850000   1.008000   ; qtot -163.973489
 7894         c3    273    ccc     C1   7894 0.60210000  12.010000   ; qtot -163.371389
 7895         h1    273    ccc     H1   7895 -0.09250000   1.008000   ; qtot -163.463889
 7896         h1    273    ccc     H2   7896 -0.09250000   1.008000   ; qtot -163.556389
 7897         n3    273    ccc     N1   7897 -0.59700000  14.010000   ; qtot -164.153389
 7898         c3    273    ccc     C4   7898 0.32800000  12.010000   ; qtot -163.825389
 7899         h1    273    ccc     H7   7899 -0.07120000   1.008000   ; qtot -163.896589
 7900         h1    273    ccc     H8   7900 -0.07120000   1.008000   ; qtot -163.967789
 7901         c3    273    ccc     C5   7901 -0.39330000  12.010000   ; qtot -164.361089
 7902         hc    273    ccc     H9   7902 0.08130000   1.008000   ; qtot -164.279789
 7903         hc    273    ccc    H10   7903 0.08130000   1.008000   ; qtot -164.198489
 7904          c    273    ccc     C6   7904 1.08970000  12.010000   ; qtot -163.108789
 7905          o    273    ccc     O2   7905 -0.96050000  16.000000   ; qtot -164.069289
 7906          o    273    ccc     O3   7906 -0.96050000  16.000000   ; qtot -165.029789
 7907         c3    273    ccc     C7   7907 0.32800000  12.010000   ; qtot -164.701789
 7908         h1    273    ccc    H11   7908 -0.07120000   1.008000   ; qtot -164.772989
 7909         h1    273    ccc    H12   7909 -0.07120000   1.008000   ; qtot -164.844189
 7910         c3    273    ccc     C8   7910 -0.39330000  12.010000   ; qtot -165.237489
 7911         hc    273    ccc    H13   7911 0.08130000   1.008000   ; qtot -165.156189
 7912         hc    273    ccc    H14   7912 0.08130000   1.008000   ; qtot -165.074889
 7913          c    273    ccc     C9   7913 1.08970000  12.010000   ; qtot -163.985189
 7914          o    273    ccc     O4   7914 -0.96050000  16.000000   ; qtot -164.945689
 7915          o    273    ccc     O5   7915 -0.96050000  16.000000   ; qtot -165.906189
 7916         os    273    ccc     O1   7916 -0.11060000  16.000000   ; qtot -166.016789
; residue  274 ccc rtp ccc q -2.0
 7917         c3    274    ccc     C3   7917 -0.04070000  12.010000   ; qtot -166.057489
 7918         h1    274    ccc     H5   7918 0.04610000   1.008000   ; qtot -166.011389
 7919         h1    274    ccc     H6   7919 0.04610000   1.008000   ; qtot -165.965289
 7920         c3    274    ccc     C2   7920 -0.02540000  12.010000   ; qtot -165.990689
 7921         hc    274    ccc     H3   7921 0.00850000   1.008000   ; qtot -165.982189
 7922         hc    274    ccc     H4   7922 0.00850000   1.008000   ; qtot -165.973689
 7923         c3    274    ccc     C1   7923 0.60210000  12.010000   ; qtot -165.371589
 7924         h1    274    ccc     H1   7924 -0.09250000   1.008000   ; qtot -165.464089
 7925         h1    274    ccc     H2   7925 -0.09250000   1.008000   ; qtot -165.556589
 7926         n3    274    ccc     N1   7926 -0.59700000  14.010000   ; qtot -166.153589
 7927         c3    274    ccc     C4   7927 0.32800000  12.010000   ; qtot -165.825589
 7928         h1    274    ccc     H7   7928 -0.07120000   1.008000   ; qtot -165.896789
 7929         h1    274    ccc     H8   7929 -0.07120000   1.008000   ; qtot -165.967989
 7930         c3    274    ccc     C5   7930 -0.39330000  12.010000   ; qtot -166.361289
 7931         hc    274    ccc     H9   7931 0.08130000   1.008000   ; qtot -166.279989
 7932         hc    274    ccc    H10   7932 0.08130000   1.008000   ; qtot -166.198689
 7933          c    274    ccc     C6   7933 1.08970000  12.010000   ; qtot -165.108989
 7934          o    274    ccc     O2   7934 -0.96050000  16.000000   ; qtot -166.069489
 7935          o    274    ccc     O3   7935 -0.96050000  16.000000   ; qtot -167.029989
 7936         c3    274    ccc     C7   7936 0.32800000  12.010000   ; qtot -166.701989
 7937         h1    274    ccc    H11   7937 -0.07120000   1.008000   ; qtot -166.773189
 7938         h1    274    ccc    H12   7938 -0.07120000   1.008000   ; qtot -166.844389
 7939         c3    274    ccc     C8   7939 -0.39330000  12.010000   ; qtot -167.237689
 7940         hc    274    ccc    H13   7940 0.08130000   1.008000   ; qtot -167.156389
 7941         hc    274    ccc    H14   7941 0.08130000   1.008000   ; qtot -167.075089
 7942          c    274    ccc     C9   7942 1.08970000  12.010000   ; qtot -165.985389
 7943          o    274    ccc     O4   7943 -0.96050000  16.000000   ; qtot -166.945889
 7944          o    274    ccc     O5   7944 -0.96050000  16.000000   ; qtot -167.906389
 7945         os    274    ccc     O1   7945 -0.11060000  16.000000   ; qtot -168.016989
; residue  275 ccc rtp ccc q -2.0
 7946         c3    275    ccc     C3   7946 -0.04070000  12.010000   ; qtot -168.057689
 7947         h1    275    ccc     H5   7947 0.04610000   1.008000   ; qtot -168.011589
 7948         h1    275    ccc     H6   7948 0.04610000   1.008000   ; qtot -167.965489
 7949         c3    275    ccc     C2   7949 -0.02540000  12.010000   ; qtot -167.990889
 7950         hc    275    ccc     H3   7950 0.00850000   1.008000   ; qtot -167.982389
 7951         hc    275    ccc     H4   7951 0.00850000   1.008000   ; qtot -167.973889
 7952         c3    275    ccc     C1   7952 0.60210000  12.010000   ; qtot -167.371789
 7953         h1    275    ccc     H1   7953 -0.09250000   1.008000   ; qtot -167.464289
 7954         h1    275    ccc     H2   7954 -0.09250000   1.008000   ; qtot -167.556789
 7955         n3    275    ccc     N1   7955 -0.59700000  14.010000   ; qtot -168.153789
 7956         c3    275    ccc     C4   7956 0.32800000  12.010000   ; qtot -167.825789
 7957         h1    275    ccc     H7   7957 -0.07120000   1.008000   ; qtot -167.896989
 7958         h1    275    ccc     H8   7958 -0.07120000   1.008000   ; qtot -167.968189
 7959         c3    275    ccc     C5   7959 -0.39330000  12.010000   ; qtot -168.361489
 7960         hc    275    ccc     H9   7960 0.08130000   1.008000   ; qtot -168.280189
 7961         hc    275    ccc    H10   7961 0.08130000   1.008000   ; qtot -168.198889
 7962          c    275    ccc     C6   7962 1.08970000  12.010000   ; qtot -167.109189
 7963          o    275    ccc     O2   7963 -0.96050000  16.000000   ; qtot -168.069689
 7964          o    275    ccc     O3   7964 -0.96050000  16.000000   ; qtot -169.030189
 7965         c3    275    ccc     C7   7965 0.32800000  12.010000   ; qtot -168.702189
 7966         h1    275    ccc    H11   7966 -0.07120000   1.008000   ; qtot -168.773389
 7967         h1    275    ccc    H12   7967 -0.07120000   1.008000   ; qtot -168.844589
 7968         c3    275    ccc     C8   7968 -0.39330000  12.010000   ; qtot -169.237889
 7969         hc    275    ccc    H13   7969 0.08130000   1.008000   ; qtot -169.156589
 7970         hc    275    ccc    H14   7970 0.08130000   1.008000   ; qtot -169.075289
 7971          c    275    ccc     C9   7971 1.08970000  12.010000   ; qtot -167.985589
 7972          o    275    ccc     O4   7972 -0.96050000  16.000000   ; qtot -168.946089
 7973          o    275    ccc     O5   7973 -0.96050000  16.000000   ; qtot -169.906589
 7974         os    275    ccc     O1   7974 -0.11060000  16.000000   ; qtot -170.017189
; residue  276 ccc rtp ccc q -2.0
 7975         c3    276    ccc     C3   7975 -0.04070000  12.010000   ; qtot -170.057889
 7976         h1    276    ccc     H5   7976 0.04610000   1.008000   ; qtot -170.011789
 7977         h1    276    ccc     H6   7977 0.04610000   1.008000   ; qtot -169.965689
 7978         c3    276    ccc     C2   7978 -0.02540000  12.010000   ; qtot -169.991089
 7979         hc    276    ccc     H3   7979 0.00850000   1.008000   ; qtot -169.982589
 7980         hc    276    ccc     H4   7980 0.00850000   1.008000   ; qtot -169.974089
 7981         c3    276    ccc     C1   7981 0.60210000  12.010000   ; qtot -169.371989
 7982         h1    276    ccc     H1   7982 -0.09250000   1.008000   ; qtot -169.464489
 7983         h1    276    ccc     H2   7983 -0.09250000   1.008000   ; qtot -169.556989
 7984         n3    276    ccc     N1   7984 -0.59700000  14.010000   ; qtot -170.153989
 7985         c3    276    ccc     C4   7985 0.32800000  12.010000   ; qtot -169.825989
 7986         h1    276    ccc     H7   7986 -0.07120000   1.008000   ; qtot -169.897189
 7987         h1    276    ccc     H8   7987 -0.07120000   1.008000   ; qtot -169.968389
 7988         c3    276    ccc     C5   7988 -0.39330000  12.010000   ; qtot -170.361689
 7989         hc    276    ccc     H9   7989 0.08130000   1.008000   ; qtot -170.280389
 7990         hc    276    ccc    H10   7990 0.08130000   1.008000   ; qtot -170.199089
 7991          c    276    ccc     C6   7991 1.08970000  12.010000   ; qtot -169.109389
 7992          o    276    ccc     O2   7992 -0.96050000  16.000000   ; qtot -170.069889
 7993          o    276    ccc     O3   7993 -0.96050000  16.000000   ; qtot -171.030389
 7994         c3    276    ccc     C7   7994 0.32800000  12.010000   ; qtot -170.702389
 7995         h1    276    ccc    H11   7995 -0.07120000   1.008000   ; qtot -170.773589
 7996         h1    276    ccc    H12   7996 -0.07120000   1.008000   ; qtot -170.844789
 7997         c3    276    ccc     C8   7997 -0.39330000  12.010000   ; qtot -171.238089
 7998         hc    276    ccc    H13   7998 0.08130000   1.008000   ; qtot -171.156789
 7999         hc    276    ccc    H14   7999 0.08130000   1.008000   ; qtot -171.075489
 8000          c    276    ccc     C9   8000 1.08970000  12.010000   ; qtot -169.985789
 8001          o    276    ccc     O4   8001 -0.96050000  16.000000   ; qtot -170.946289
 8002          o    276    ccc     O5   8002 -0.96050000  16.000000   ; qtot -171.906789
 8003         os    276    ccc     O1   8003 -0.11060000  16.000000   ; qtot -172.017389
; residue  277 ccc rtp ccc q -2.0
 8004         c3    277    ccc     C3   8004 -0.04070000  12.010000   ; qtot -172.058089
 8005         h1    277    ccc     H5   8005 0.04610000   1.008000   ; qtot -172.011989
 8006         h1    277    ccc     H6   8006 0.04610000   1.008000   ; qtot -171.965889
 8007         c3    277    ccc     C2   8007 -0.02540000  12.010000   ; qtot -171.991289
 8008         hc    277    ccc     H3   8008 0.00850000   1.008000   ; qtot -171.982789
 8009         hc    277    ccc     H4   8009 0.00850000   1.008000   ; qtot -171.974289
 8010         c3    277    ccc     C1   8010 0.60210000  12.010000   ; qtot -171.372189
 8011         h1    277    ccc     H1   8011 -0.09250000   1.008000   ; qtot -171.464689
 8012         h1    277    ccc     H2   8012 -0.09250000   1.008000   ; qtot -171.557189
 8013         n3    277    ccc     N1   8013 -0.59700000  14.010000   ; qtot -172.154189
 8014         c3    277    ccc     C4   8014 0.32800000  12.010000   ; qtot -171.826189
 8015         h1    277    ccc     H7   8015 -0.07120000   1.008000   ; qtot -171.897389
 8016         h1    277    ccc     H8   8016 -0.07120000   1.008000   ; qtot -171.968589
 8017         c3    277    ccc     C5   8017 -0.39330000  12.010000   ; qtot -172.361889
 8018         hc    277    ccc     H9   8018 0.08130000   1.008000   ; qtot -172.280589
 8019         hc    277    ccc    H10   8019 0.08130000   1.008000   ; qtot -172.199289
 8020          c    277    ccc     C6   8020 1.08970000  12.010000   ; qtot -171.109589
 8021          o    277    ccc     O2   8021 -0.96050000  16.000000   ; qtot -172.070089
 8022          o    277    ccc     O3   8022 -0.96050000  16.000000   ; qtot -173.030589
 8023         c3    277    ccc     C7   8023 0.32800000  12.010000   ; qtot -172.702589
 8024         h1    277    ccc    H11   8024 -0.07120000   1.008000   ; qtot -172.773789
 8025         h1    277    ccc    H12   8025 -0.07120000   1.008000   ; qtot -172.844989
 8026         c3    277    ccc     C8   8026 -0.39330000  12.010000   ; qtot -173.238289
 8027         hc    277    ccc    H13   8027 0.08130000   1.008000   ; qtot -173.156989
 8028         hc    277    ccc    H14   8028 0.08130000   1.008000   ; qtot -173.075689
 8029          c    277    ccc     C9   8029 1.08970000  12.010000   ; qtot -171.985989
 8030          o    277    ccc     O4   8030 -0.96050000  16.000000   ; qtot -172.946489
 8031          o    277    ccc     O5   8031 -0.96050000  16.000000   ; qtot -173.906989
 8032         os    277    ccc     O1   8032 -0.11060000  16.000000   ; qtot -174.017589
; residue  278 ccc rtp ccc q -2.0
 8033         c3    278    ccc     C3   8033 -0.04070000  12.010000   ; qtot -174.058289
 8034         h1    278    ccc     H5   8034 0.04610000   1.008000   ; qtot -174.012189
 8035         h1    278    ccc     H6   8035 0.04610000   1.008000   ; qtot -173.966089
 8036         c3    278    ccc     C2   8036 -0.02540000  12.010000   ; qtot -173.991489
 8037         hc    278    ccc     H3   8037 0.00850000   1.008000   ; qtot -173.982989
 8038         hc    278    ccc     H4   8038 0.00850000   1.008000   ; qtot -173.974489
 8039         c3    278    ccc     C1   8039 0.60210000  12.010000   ; qtot -173.372389
 8040         h1    278    ccc     H1   8040 -0.09250000   1.008000   ; qtot -173.464889
 8041         h1    278    ccc     H2   8041 -0.09250000   1.008000   ; qtot -173.557389
 8042         n3    278    ccc     N1   8042 -0.59700000  14.010000   ; qtot -174.154389
 8043         c3    278    ccc     C4   8043 0.32800000  12.010000   ; qtot -173.826389
 8044         h1    278    ccc     H7   8044 -0.07120000   1.008000   ; qtot -173.897589
 8045         h1    278    ccc     H8   8045 -0.07120000   1.008000   ; qtot -173.968789
 8046         c3    278    ccc     C5   8046 -0.39330000  12.010000   ; qtot -174.362089
 8047         hc    278    ccc     H9   8047 0.08130000   1.008000   ; qtot -174.280789
 8048         hc    278    ccc    H10   8048 0.08130000   1.008000   ; qtot -174.199489
 8049          c    278    ccc     C6   8049 1.08970000  12.010000   ; qtot -173.109789
 8050          o    278    ccc     O2   8050 -0.96050000  16.000000   ; qtot -174.070289
 8051          o    278    ccc     O3   8051 -0.96050000  16.000000   ; qtot -175.030789
 8052         c3    278    ccc     C7   8052 0.32800000  12.010000   ; qtot -174.702789
 8053         h1    278    ccc    H11   8053 -0.07120000   1.008000   ; qtot -174.773989
 8054         h1    278    ccc    H12   8054 -0.07120000   1.008000   ; qtot -174.845189
 8055         c3    278    ccc     C8   8055 -0.39330000  12.010000   ; qtot -175.238489
 8056         hc    278    ccc    H13   8056 0.08130000   1.008000   ; qtot -175.157189
 8057         hc    278    ccc    H14   8057 0.08130000   1.008000   ; qtot -175.075889
 8058          c    278    ccc     C9   8058 1.08970000  12.010000   ; qtot -173.986189
 8059          o    278    ccc     O4   8059 -0.96050000  16.000000   ; qtot -174.946689
 8060          o    278    ccc     O5   8060 -0.96050000  16.000000   ; qtot -175.907189
 8061         os    278    ccc     O1   8061 -0.11060000  16.000000   ; qtot -176.017789
; residue  279 ccc rtp ccc q -2.0
 8062         c3    279    ccc     C3   8062 -0.04070000  12.010000   ; qtot -176.058489
 8063         h1    279    ccc     H5   8063 0.04610000   1.008000   ; qtot -176.012389
 8064         h1    279    ccc     H6   8064 0.04610000   1.008000   ; qtot -175.966289
 8065         c3    279    ccc     C2   8065 -0.02540000  12.010000   ; qtot -175.991689
 8066         hc    279    ccc     H3   8066 0.00850000   1.008000   ; qtot -175.983189
 8067         hc    279    ccc     H4   8067 0.00850000   1.008000   ; qtot -175.974689
 8068         c3    279    ccc     C1   8068 0.60210000  12.010000   ; qtot -175.372589
 8069         h1    279    ccc     H1   8069 -0.09250000   1.008000   ; qtot -175.465089
 8070         h1    279    ccc     H2   8070 -0.09250000   1.008000   ; qtot -175.557589
 8071         n3    279    ccc     N1   8071 -0.59700000  14.010000   ; qtot -176.154589
 8072         c3    279    ccc     C4   8072 0.32800000  12.010000   ; qtot -175.826589
 8073         h1    279    ccc     H7   8073 -0.07120000   1.008000   ; qtot -175.897789
 8074         h1    279    ccc     H8   8074 -0.07120000   1.008000   ; qtot -175.968989
 8075         c3    279    ccc     C5   8075 -0.39330000  12.010000   ; qtot -176.362289
 8076         hc    279    ccc     H9   8076 0.08130000   1.008000   ; qtot -176.280989
 8077         hc    279    ccc    H10   8077 0.08130000   1.008000   ; qtot -176.199689
 8078          c    279    ccc     C6   8078 1.08970000  12.010000   ; qtot -175.109989
 8079          o    279    ccc     O2   8079 -0.96050000  16.000000   ; qtot -176.070489
 8080          o    279    ccc     O3   8080 -0.96050000  16.000000   ; qtot -177.030989
 8081         c3    279    ccc     C7   8081 0.32800000  12.010000   ; qtot -176.702989
 8082         h1    279    ccc    H11   8082 -0.07120000   1.008000   ; qtot -176.774189
 8083         h1    279    ccc    H12   8083 -0.07120000   1.008000   ; qtot -176.845389
 8084         c3    279    ccc     C8   8084 -0.39330000  12.010000   ; qtot -177.238689
 8085         hc    279    ccc    H13   8085 0.08130000   1.008000   ; qtot -177.157389
 8086         hc    279    ccc    H14   8086 0.08130000   1.008000   ; qtot -177.076089
 8087          c    279    ccc     C9   8087 1.08970000  12.010000   ; qtot -175.986389
 8088          o    279    ccc     O4   8088 -0.96050000  16.000000   ; qtot -176.946889
 8089          o    279    ccc     O5   8089 -0.96050000  16.000000   ; qtot -177.907389
 8090         os    279    ccc     O1   8090 -0.11060000  16.000000   ; qtot -178.017989
; residue  280 ccc rtp ccc q -2.0
 8091         c3    280    ccc     C3   8091 -0.04070000  12.010000   ; qtot -178.058689
 8092         h1    280    ccc     H5   8092 0.04610000   1.008000   ; qtot -178.012589
 8093         h1    280    ccc     H6   8093 0.04610000   1.008000   ; qtot -177.966489
 8094         c3    280    ccc     C2   8094 -0.02540000  12.010000   ; qtot -177.991889
 8095         hc    280    ccc     H3   8095 0.00850000   1.008000   ; qtot -177.983389
 8096         hc    280    ccc     H4   8096 0.00850000   1.008000   ; qtot -177.974889
 8097         c3    280    ccc     C1   8097 0.60210000  12.010000   ; qtot -177.372789
 8098         h1    280    ccc     H1   8098 -0.09250000   1.008000   ; qtot -177.465289
 8099         h1    280    ccc     H2   8099 -0.09250000   1.008000   ; qtot -177.557789
 8100         n3    280    ccc     N1   8100 -0.59700000  14.010000   ; qtot -178.154789
 8101         c3    280    ccc     C4   8101 0.32800000  12.010000   ; qtot -177.826789
 8102         h1    280    ccc     H7   8102 -0.07120000   1.008000   ; qtot -177.897989
 8103         h1    280    ccc     H8   8103 -0.07120000   1.008000   ; qtot -177.969189
 8104         c3    280    ccc     C5   8104 -0.39330000  12.010000   ; qtot -178.362489
 8105         hc    280    ccc     H9   8105 0.08130000   1.008000   ; qtot -178.281189
 8106         hc    280    ccc    H10   8106 0.08130000   1.008000   ; qtot -178.199889
 8107          c    280    ccc     C6   8107 1.08970000  12.010000   ; qtot -177.110189
 8108          o    280    ccc     O2   8108 -0.96050000  16.000000   ; qtot -178.070689
 8109          o    280    ccc     O3   8109 -0.96050000  16.000000   ; qtot -179.031189
 8110         c3    280    ccc     C7   8110 0.32800000  12.010000   ; qtot -178.703189
 8111         h1    280    ccc    H11   8111 -0.07120000   1.008000   ; qtot -178.774389
 8112         h1    280    ccc    H12   8112 -0.07120000   1.008000   ; qtot -178.845589
 8113         c3    280    ccc     C8   8113 -0.39330000  12.010000   ; qtot -179.238889
 8114         hc    280    ccc    H13   8114 0.08130000   1.008000   ; qtot -179.157589
 8115         hc    280    ccc    H14   8115 0.08130000   1.008000   ; qtot -179.076289
 8116          c    280    ccc     C9   8116 1.08970000  12.010000   ; qtot -177.986589
 8117          o    280    ccc     O4   8117 -0.96050000  16.000000   ; qtot -178.947089
 8118          o    280    ccc     O5   8118 -0.96050000  16.000000   ; qtot -179.907589
 8119         os    280    ccc     O1   8119 -0.11060000  16.000000   ; qtot -180.018189
; residue  281 ccc rtp ccc q -2.0
 8120         c3    281    ccc     C3   8120 -0.04070000  12.010000   ; qtot -180.058889
 8121         h1    281    ccc     H5   8121 0.04610000   1.008000   ; qtot -180.012789
 8122         h1    281    ccc     H6   8122 0.04610000   1.008000   ; qtot -179.966689
 8123         c3    281    ccc     C2   8123 -0.02540000  12.010000   ; qtot -179.992089
 8124         hc    281    ccc     H3   8124 0.00850000   1.008000   ; qtot -179.983589
 8125         hc    281    ccc     H4   8125 0.00850000   1.008000   ; qtot -179.975089
 8126         c3    281    ccc     C1   8126 0.60210000  12.010000   ; qtot -179.372989
 8127         h1    281    ccc     H1   8127 -0.09250000   1.008000   ; qtot -179.465489
 8128         h1    281    ccc     H2   8128 -0.09250000   1.008000   ; qtot -179.557989
 8129         n3    281    ccc     N1   8129 -0.59700000  14.010000   ; qtot -180.154989
 8130         c3    281    ccc     C4   8130 0.32800000  12.010000   ; qtot -179.826989
 8131         h1    281    ccc     H7   8131 -0.07120000   1.008000   ; qtot -179.898189
 8132         h1    281    ccc     H8   8132 -0.07120000   1.008000   ; qtot -179.969389
 8133         c3    281    ccc     C5   8133 -0.39330000  12.010000   ; qtot -180.362689
 8134         hc    281    ccc     H9   8134 0.08130000   1.008000   ; qtot -180.281389
 8135         hc    281    ccc    H10   8135 0.08130000   1.008000   ; qtot -180.200089
 8136          c    281    ccc     C6   8136 1.08970000  12.010000   ; qtot -179.110389
 8137          o    281    ccc     O2   8137 -0.96050000  16.000000   ; qtot -180.070889
 8138          o    281    ccc     O3   8138 -0.96050000  16.000000   ; qtot -181.031389
 8139         c3    281    ccc     C7   8139 0.32800000  12.010000   ; qtot -180.703389
 8140         h1    281    ccc    H11   8140 -0.07120000   1.008000   ; qtot -180.774589
 8141         h1    281    ccc    H12   8141 -0.07120000   1.008000   ; qtot -180.845789
 8142         c3    281    ccc     C8   8142 -0.39330000  12.010000   ; qtot -181.239089
 8143         hc    281    ccc    H13   8143 0.08130000   1.008000   ; qtot -181.157789
 8144         hc    281    ccc    H14   8144 0.08130000   1.008000   ; qtot -181.076489
 8145          c    281    ccc     C9   8145 1.08970000  12.010000   ; qtot -179.986789
 8146          o    281    ccc     O4   8146 -0.96050000  16.000000   ; qtot -180.947289
 8147          o    281    ccc     O5   8147 -0.96050000  16.000000   ; qtot -181.907789
 8148         os    281    ccc     O1   8148 -0.11060000  16.000000   ; qtot -182.018389
; residue  282 ccc rtp ccc q -2.0
 8149         c3    282    ccc     C3   8149 -0.04070000  12.010000   ; qtot -182.059089
 8150         h1    282    ccc     H5   8150 0.04610000   1.008000   ; qtot -182.012989
 8151         h1    282    ccc     H6   8151 0.04610000   1.008000   ; qtot -181.966889
 8152         c3    282    ccc     C2   8152 -0.02540000  12.010000   ; qtot -181.992289
 8153         hc    282    ccc     H3   8153 0.00850000   1.008000   ; qtot -181.983789
 8154         hc    282    ccc     H4   8154 0.00850000   1.008000   ; qtot -181.975289
 8155         c3    282    ccc     C1   8155 0.60210000  12.010000   ; qtot -181.373189
 8156         h1    282    ccc     H1   8156 -0.09250000   1.008000   ; qtot -181.465689
 8157         h1    282    ccc     H2   8157 -0.09250000   1.008000   ; qtot -181.558189
 8158         n3    282    ccc     N1   8158 -0.59700000  14.010000   ; qtot -182.155189
 8159         c3    282    ccc     C4   8159 0.32800000  12.010000   ; qtot -181.827189
 8160         h1    282    ccc     H7   8160 -0.07120000   1.008000   ; qtot -181.898389
 8161         h1    282    ccc     H8   8161 -0.07120000   1.008000   ; qtot -181.969589
 8162         c3    282    ccc     C5   8162 -0.39330000  12.010000   ; qtot -182.362889
 8163         hc    282    ccc     H9   8163 0.08130000   1.008000   ; qtot -182.281589
 8164         hc    282    ccc    H10   8164 0.08130000   1.008000   ; qtot -182.200289
 8165          c    282    ccc     C6   8165 1.08970000  12.010000   ; qtot -181.110589
 8166          o    282    ccc     O2   8166 -0.96050000  16.000000   ; qtot -182.071089
 8167          o    282    ccc     O3   8167 -0.96050000  16.000000   ; qtot -183.031589
 8168         c3    282    ccc     C7   8168 0.32800000  12.010000   ; qtot -182.703589
 8169         h1    282    ccc    H11   8169 -0.07120000   1.008000   ; qtot -182.774789
 8170         h1    282    ccc    H12   8170 -0.07120000   1.008000   ; qtot -182.845989
 8171         c3    282    ccc     C8   8171 -0.39330000  12.010000   ; qtot -183.239289
 8172         hc    282    ccc    H13   8172 0.08130000   1.008000   ; qtot -183.157989
 8173         hc    282    ccc    H14   8173 0.08130000   1.008000   ; qtot -183.076689
 8174          c    282    ccc     C9   8174 1.08970000  12.010000   ; qtot -181.986989
 8175          o    282    ccc     O4   8175 -0.96050000  16.000000   ; qtot -182.947489
 8176          o    282    ccc     O5   8176 -0.96050000  16.000000   ; qtot -183.907989
 8177         os    282    ccc     O1   8177 -0.11060000  16.000000   ; qtot -184.018589
; residue  283 ccc rtp ccc q -2.0
 8178         c3    283    ccc     C3   8178 -0.04070000  12.010000   ; qtot -184.059289
 8179         h1    283    ccc     H5   8179 0.04610000   1.008000   ; qtot -184.013189
 8180         h1    283    ccc     H6   8180 0.04610000   1.008000   ; qtot -183.967089
 8181         c3    283    ccc     C2   8181 -0.02540000  12.010000   ; qtot -183.992489
 8182         hc    283    ccc     H3   8182 0.00850000   1.008000   ; qtot -183.983989
 8183         hc    283    ccc     H4   8183 0.00850000   1.008000   ; qtot -183.975489
 8184         c3    283    ccc     C1   8184 0.60210000  12.010000   ; qtot -183.373389
 8185         h1    283    ccc     H1   8185 -0.09250000   1.008000   ; qtot -183.465889
 8186         h1    283    ccc     H2   8186 -0.09250000   1.008000   ; qtot -183.558389
 8187         n3    283    ccc     N1   8187 -0.59700000  14.010000   ; qtot -184.155389
 8188         c3    283    ccc     C4   8188 0.32800000  12.010000   ; qtot -183.827389
 8189         h1    283    ccc     H7   8189 -0.07120000   1.008000   ; qtot -183.898589
 8190         h1    283    ccc     H8   8190 -0.07120000   1.008000   ; qtot -183.969789
 8191         c3    283    ccc     C5   8191 -0.39330000  12.010000   ; qtot -184.363089
 8192         hc    283    ccc     H9   8192 0.08130000   1.008000   ; qtot -184.281789
 8193         hc    283    ccc    H10   8193 0.08130000   1.008000   ; qtot -184.200489
 8194          c    283    ccc     C6   8194 1.08970000  12.010000   ; qtot -183.110789
 8195          o    283    ccc     O2   8195 -0.96050000  16.000000   ; qtot -184.071289
 8196          o    283    ccc     O3   8196 -0.96050000  16.000000   ; qtot -185.031789
 8197         c3    283    ccc     C7   8197 0.32800000  12.010000   ; qtot -184.703789
 8198         h1    283    ccc    H11   8198 -0.07120000   1.008000   ; qtot -184.774989
 8199         h1    283    ccc    H12   8199 -0.07120000   1.008000   ; qtot -184.846189
 8200         c3    283    ccc     C8   8200 -0.39330000  12.010000   ; qtot -185.239489
 8201         hc    283    ccc    H13   8201 0.08130000   1.008000   ; qtot -185.158189
 8202         hc    283    ccc    H14   8202 0.08130000   1.008000   ; qtot -185.076889
 8203          c    283    ccc     C9   8203 1.08970000  12.010000   ; qtot -183.987189
 8204          o    283    ccc     O4   8204 -0.96050000  16.000000   ; qtot -184.947689
 8205          o    283    ccc     O5   8205 -0.96050000  16.000000   ; qtot -185.908190
 8206         os    283    ccc     O1   8206 -0.11060000  16.000000   ; qtot -186.018790
; residue  284 ccc rtp ccc q -2.0
 8207         c3    284    ccc     C3   8207 -0.04070000  12.010000   ; qtot -186.059490
 8208         h1    284    ccc     H5   8208 0.04610000   1.008000   ; qtot -186.013390
 8209         h1    284    ccc     H6   8209 0.04610000   1.008000   ; qtot -185.967290
 8210         c3    284    ccc     C2   8210 -0.02540000  12.010000   ; qtot -185.992690
 8211         hc    284    ccc     H3   8211 0.00850000   1.008000   ; qtot -185.984190
 8212         hc    284    ccc     H4   8212 0.00850000   1.008000   ; qtot -185.975690
 8213         c3    284    ccc     C1   8213 0.60210000  12.010000   ; qtot -185.373590
 8214         h1    284    ccc     H1   8214 -0.09250000   1.008000   ; qtot -185.466090
 8215         h1    284    ccc     H2   8215 -0.09250000   1.008000   ; qtot -185.558590
 8216         n3    284    ccc     N1   8216 -0.59700000  14.010000   ; qtot -186.155590
 8217         c3    284    ccc     C4   8217 0.32800000  12.010000   ; qtot -185.827590
 8218         h1    284    ccc     H7   8218 -0.07120000   1.008000   ; qtot -185.898790
 8219         h1    284    ccc     H8   8219 -0.07120000   1.008000   ; qtot -185.969990
 8220         c3    284    ccc     C5   8220 -0.39330000  12.010000   ; qtot -186.363290
 8221         hc    284    ccc     H9   8221 0.08130000   1.008000   ; qtot -186.281990
 8222         hc    284    ccc    H10   8222 0.08130000   1.008000   ; qtot -186.200690
 8223          c    284    ccc     C6   8223 1.08970000  12.010000   ; qtot -185.110990
 8224          o    284    ccc     O2   8224 -0.96050000  16.000000   ; qtot -186.071490
 8225          o    284    ccc     O3   8225 -0.96050000  16.000000   ; qtot -187.031990
 8226         c3    284    ccc     C7   8226 0.32800000  12.010000   ; qtot -186.703990
 8227         h1    284    ccc    H11   8227 -0.07120000   1.008000   ; qtot -186.775190
 8228         h1    284    ccc    H12   8228 -0.07120000   1.008000   ; qtot -186.846390
 8229         c3    284    ccc     C8   8229 -0.39330000  12.010000   ; qtot -187.239690
 8230         hc    284    ccc    H13   8230 0.08130000   1.008000   ; qtot -187.158390
 8231         hc    284    ccc    H14   8231 0.08130000   1.008000   ; qtot -187.077090
 8232          c    284    ccc     C9   8232 1.08970000  12.010000   ; qtot -185.987390
 8233          o    284    ccc     O4   8233 -0.96050000  16.000000   ; qtot -186.947890
 8234          o    284    ccc     O5   8234 -0.96050000  16.000000   ; qtot -187.908390
 8235         os    284    ccc     O1   8235 -0.11060000  16.000000   ; qtot -188.018990
; residue  285 ccc rtp ccc q -2.0
 8236         c3    285    ccc     C3   8236 -0.04070000  12.010000   ; qtot -188.059690
 8237         h1    285    ccc     H5   8237 0.04610000   1.008000   ; qtot -188.013590
 8238         h1    285    ccc     H6   8238 0.04610000   1.008000   ; qtot -187.967490
 8239         c3    285    ccc     C2   8239 -0.02540000  12.010000   ; qtot -187.992890
 8240         hc    285    ccc     H3   8240 0.00850000   1.008000   ; qtot -187.984390
 8241         hc    285    ccc     H4   8241 0.00850000   1.008000   ; qtot -187.975890
 8242         c3    285    ccc     C1   8242 0.60210000  12.010000   ; qtot -187.373790
 8243         h1    285    ccc     H1   8243 -0.09250000   1.008000   ; qtot -187.466290
 8244         h1    285    ccc     H2   8244 -0.09250000   1.008000   ; qtot -187.558790
 8245         n3    285    ccc     N1   8245 -0.59700000  14.010000   ; qtot -188.155790
 8246         c3    285    ccc     C4   8246 0.32800000  12.010000   ; qtot -187.827790
 8247         h1    285    ccc     H7   8247 -0.07120000   1.008000   ; qtot -187.898990
 8248         h1    285    ccc     H8   8248 -0.07120000   1.008000   ; qtot -187.970190
 8249         c3    285    ccc     C5   8249 -0.39330000  12.010000   ; qtot -188.363490
 8250         hc    285    ccc     H9   8250 0.08130000   1.008000   ; qtot -188.282190
 8251         hc    285    ccc    H10   8251 0.08130000   1.008000   ; qtot -188.200890
 8252          c    285    ccc     C6   8252 1.08970000  12.010000   ; qtot -187.111190
 8253          o    285    ccc     O2   8253 -0.96050000  16.000000   ; qtot -188.071690
 8254          o    285    ccc     O3   8254 -0.96050000  16.000000   ; qtot -189.032190
 8255         c3    285    ccc     C7   8255 0.32800000  12.010000   ; qtot -188.704190
 8256         h1    285    ccc    H11   8256 -0.07120000   1.008000   ; qtot -188.775390
 8257         h1    285    ccc    H12   8257 -0.07120000   1.008000   ; qtot -188.846590
 8258         c3    285    ccc     C8   8258 -0.39330000  12.010000   ; qtot -189.239890
 8259         hc    285    ccc    H13   8259 0.08130000   1.008000   ; qtot -189.158590
 8260         hc    285    ccc    H14   8260 0.08130000   1.008000   ; qtot -189.077290
 8261          c    285    ccc     C9   8261 1.08970000  12.010000   ; qtot -187.987590
 8262          o    285    ccc     O4   8262 -0.96050000  16.000000   ; qtot -188.948090
 8263          o    285    ccc     O5   8263 -0.96050000  16.000000   ; qtot -189.908590
 8264         os    285    ccc     O1   8264 -0.11060000  16.000000   ; qtot -190.019190
; residue  286 ccc rtp ccc q -2.0
 8265         c3    286    ccc     C3   8265 -0.04070000  12.010000   ; qtot -190.059890
 8266         h1    286    ccc     H5   8266 0.04610000   1.008000   ; qtot -190.013790
 8267         h1    286    ccc     H6   8267 0.04610000   1.008000   ; qtot -189.967690
 8268         c3    286    ccc     C2   8268 -0.02540000  12.010000   ; qtot -189.993090
 8269         hc    286    ccc     H3   8269 0.00850000   1.008000   ; qtot -189.984590
 8270         hc    286    ccc     H4   8270 0.00850000   1.008000   ; qtot -189.976090
 8271         c3    286    ccc     C1   8271 0.60210000  12.010000   ; qtot -189.373990
 8272         h1    286    ccc     H1   8272 -0.09250000   1.008000   ; qtot -189.466490
 8273         h1    286    ccc     H2   8273 -0.09250000   1.008000   ; qtot -189.558990
 8274         n3    286    ccc     N1   8274 -0.59700000  14.010000   ; qtot -190.155990
 8275         c3    286    ccc     C4   8275 0.32800000  12.010000   ; qtot -189.827990
 8276         h1    286    ccc     H7   8276 -0.07120000   1.008000   ; qtot -189.899190
 8277         h1    286    ccc     H8   8277 -0.07120000   1.008000   ; qtot -189.970390
 8278         c3    286    ccc     C5   8278 -0.39330000  12.010000   ; qtot -190.363690
 8279         hc    286    ccc     H9   8279 0.08130000   1.008000   ; qtot -190.282390
 8280         hc    286    ccc    H10   8280 0.08130000   1.008000   ; qtot -190.201090
 8281          c    286    ccc     C6   8281 1.08970000  12.010000   ; qtot -189.111390
 8282          o    286    ccc     O2   8282 -0.96050000  16.000000   ; qtot -190.071890
 8283          o    286    ccc     O3   8283 -0.96050000  16.000000   ; qtot -191.032390
 8284         c3    286    ccc     C7   8284 0.32800000  12.010000   ; qtot -190.704390
 8285         h1    286    ccc    H11   8285 -0.07120000   1.008000   ; qtot -190.775590
 8286         h1    286    ccc    H12   8286 -0.07120000   1.008000   ; qtot -190.846790
 8287         c3    286    ccc     C8   8287 -0.39330000  12.010000   ; qtot -191.240090
 8288         hc    286    ccc    H13   8288 0.08130000   1.008000   ; qtot -191.158790
 8289         hc    286    ccc    H14   8289 0.08130000   1.008000   ; qtot -191.077490
 8290          c    286    ccc     C9   8290 1.08970000  12.010000   ; qtot -189.987790
 8291          o    286    ccc     O4   8291 -0.96050000  16.000000   ; qtot -190.948290
 8292          o    286    ccc     O5   8292 -0.96050000  16.000000   ; qtot -191.908790
 8293         os    286    ccc     O1   8293 -0.11060000  16.000000   ; qtot -192.019390
; residue  287 ccc rtp ccc q -2.0
 8294         c3    287    ccc     C3   8294 -0.04070000  12.010000   ; qtot -192.060090
 8295         h1    287    ccc     H5   8295 0.04610000   1.008000   ; qtot -192.013990
 8296         h1    287    ccc     H6   8296 0.04610000   1.008000   ; qtot -191.967890
 8297         c3    287    ccc     C2   8297 -0.02540000  12.010000   ; qtot -191.993290
 8298         hc    287    ccc     H3   8298 0.00850000   1.008000   ; qtot -191.984790
 8299         hc    287    ccc     H4   8299 0.00850000   1.008000   ; qtot -191.976290
 8300         c3    287    ccc     C1   8300 0.60210000  12.010000   ; qtot -191.374190
 8301         h1    287    ccc     H1   8301 -0.09250000   1.008000   ; qtot -191.466690
 8302         h1    287    ccc     H2   8302 -0.09250000   1.008000   ; qtot -191.559190
 8303         n3    287    ccc     N1   8303 -0.59700000  14.010000   ; qtot -192.156190
 8304         c3    287    ccc     C4   8304 0.32800000  12.010000   ; qtot -191.828190
 8305         h1    287    ccc     H7   8305 -0.07120000   1.008000   ; qtot -191.899390
 8306         h1    287    ccc     H8   8306 -0.07120000   1.008000   ; qtot -191.970590
 8307         c3    287    ccc     C5   8307 -0.39330000  12.010000   ; qtot -192.363890
 8308         hc    287    ccc     H9   8308 0.08130000   1.008000   ; qtot -192.282590
 8309         hc    287    ccc    H10   8309 0.08130000   1.008000   ; qtot -192.201290
 8310          c    287    ccc     C6   8310 1.08970000  12.010000   ; qtot -191.111590
 8311          o    287    ccc     O2   8311 -0.96050000  16.000000   ; qtot -192.072090
 8312          o    287    ccc     O3   8312 -0.96050000  16.000000   ; qtot -193.032590
 8313         c3    287    ccc     C7   8313 0.32800000  12.010000   ; qtot -192.704590
 8314         h1    287    ccc    H11   8314 -0.07120000   1.008000   ; qtot -192.775790
 8315         h1    287    ccc    H12   8315 -0.07120000   1.008000   ; qtot -192.846990
 8316         c3    287    ccc     C8   8316 -0.39330000  12.010000   ; qtot -193.240290
 8317         hc    287    ccc    H13   8317 0.08130000   1.008000   ; qtot -193.158990
 8318         hc    287    ccc    H14   8318 0.08130000   1.008000   ; qtot -193.077690
 8319          c    287    ccc     C9   8319 1.08970000  12.010000   ; qtot -191.987990
 8320          o    287    ccc     O4   8320 -0.96050000  16.000000   ; qtot -192.948490
 8321          o    287    ccc     O5   8321 -0.96050000  16.000000   ; qtot -193.908990
 8322         os    287    ccc     O1   8322 -0.11060000  16.000000   ; qtot -194.019590
; residue  288 ccc rtp ccc q -2.0
 8323         c3    288    ccc     C3   8323 -0.04070000  12.010000   ; qtot -194.060290
 8324         h1    288    ccc     H5   8324 0.04610000   1.008000   ; qtot -194.014190
 8325         h1    288    ccc     H6   8325 0.04610000   1.008000   ; qtot -193.968090
 8326         c3    288    ccc     C2   8326 -0.02540000  12.010000   ; qtot -193.993490
 8327         hc    288    ccc     H3   8327 0.00850000   1.008000   ; qtot -193.984990
 8328         hc    288    ccc     H4   8328 0.00850000   1.008000   ; qtot -193.976490
 8329         c3    288    ccc     C1   8329 0.60210000  12.010000   ; qtot -193.374390
 8330         h1    288    ccc     H1   8330 -0.09250000   1.008000   ; qtot -193.466890
 8331         h1    288    ccc     H2   8331 -0.09250000   1.008000   ; qtot -193.559390
 8332         n3    288    ccc     N1   8332 -0.59700000  14.010000   ; qtot -194.156390
 8333         c3    288    ccc     C4   8333 0.32800000  12.010000   ; qtot -193.828390
 8334         h1    288    ccc     H7   8334 -0.07120000   1.008000   ; qtot -193.899590
 8335         h1    288    ccc     H8   8335 -0.07120000   1.008000   ; qtot -193.970790
 8336         c3    288    ccc     C5   8336 -0.39330000  12.010000   ; qtot -194.364090
 8337         hc    288    ccc     H9   8337 0.08130000   1.008000   ; qtot -194.282790
 8338         hc    288    ccc    H10   8338 0.08130000   1.008000   ; qtot -194.201490
 8339          c    288    ccc     C6   8339 1.08970000  12.010000   ; qtot -193.111790
 8340          o    288    ccc     O2   8340 -0.96050000  16.000000   ; qtot -194.072290
 8341          o    288    ccc     O3   8341 -0.96050000  16.000000   ; qtot -195.032790
 8342         c3    288    ccc     C7   8342 0.32800000  12.010000   ; qtot -194.704790
 8343         h1    288    ccc    H11   8343 -0.07120000   1.008000   ; qtot -194.775990
 8344         h1    288    ccc    H12   8344 -0.07120000   1.008000   ; qtot -194.847190
 8345         c3    288    ccc     C8   8345 -0.39330000  12.010000   ; qtot -195.240490
 8346         hc    288    ccc    H13   8346 0.08130000   1.008000   ; qtot -195.159190
 8347         hc    288    ccc    H14   8347 0.08130000   1.008000   ; qtot -195.077890
 8348          c    288    ccc     C9   8348 1.08970000  12.010000   ; qtot -193.988190
 8349          o    288    ccc     O4   8349 -0.96050000  16.000000   ; qtot -194.948690
 8350          o    288    ccc     O5   8350 -0.96050000  16.000000   ; qtot -195.909190
 8351         os    288    ccc     O1   8351 -0.11060000  16.000000   ; qtot -196.019790
; residue  289 ccc rtp ccc q -2.0
 8352         c3    289    ccc     C3   8352 -0.04070000  12.010000   ; qtot -196.060490
 8353         h1    289    ccc     H5   8353 0.04610000   1.008000   ; qtot -196.014390
 8354         h1    289    ccc     H6   8354 0.04610000   1.008000   ; qtot -195.968290
 8355         c3    289    ccc     C2   8355 -0.02540000  12.010000   ; qtot -195.993690
 8356         hc    289    ccc     H3   8356 0.00850000   1.008000   ; qtot -195.985190
 8357         hc    289    ccc     H4   8357 0.00850000   1.008000   ; qtot -195.976690
 8358         c3    289    ccc     C1   8358 0.60210000  12.010000   ; qtot -195.374590
 8359         h1    289    ccc     H1   8359 -0.09250000   1.008000   ; qtot -195.467090
 8360         h1    289    ccc     H2   8360 -0.09250000   1.008000   ; qtot -195.559590
 8361         n3    289    ccc     N1   8361 -0.59700000  14.010000   ; qtot -196.156590
 8362         c3    289    ccc     C4   8362 0.32800000  12.010000   ; qtot -195.828590
 8363         h1    289    ccc     H7   8363 -0.07120000   1.008000   ; qtot -195.899790
 8364         h1    289    ccc     H8   8364 -0.07120000   1.008000   ; qtot -195.970990
 8365         c3    289    ccc     C5   8365 -0.39330000  12.010000   ; qtot -196.364290
 8366         hc    289    ccc     H9   8366 0.08130000   1.008000   ; qtot -196.282990
 8367         hc    289    ccc    H10   8367 0.08130000   1.008000   ; qtot -196.201690
 8368          c    289    ccc     C6   8368 1.08970000  12.010000   ; qtot -195.111990
 8369          o    289    ccc     O2   8369 -0.96050000  16.000000   ; qtot -196.072490
 8370          o    289    ccc     O3   8370 -0.96050000  16.000000   ; qtot -197.032990
 8371         c3    289    ccc     C7   8371 0.32800000  12.010000   ; qtot -196.704990
 8372         h1    289    ccc    H11   8372 -0.07120000   1.008000   ; qtot -196.776190
 8373         h1    289    ccc    H12   8373 -0.07120000   1.008000   ; qtot -196.847390
 8374         c3    289    ccc     C8   8374 -0.39330000  12.010000   ; qtot -197.240690
 8375         hc    289    ccc    H13   8375 0.08130000   1.008000   ; qtot -197.159390
 8376         hc    289    ccc    H14   8376 0.08130000   1.008000   ; qtot -197.078090
 8377          c    289    ccc     C9   8377 1.08970000  12.010000   ; qtot -195.988390
 8378          o    289    ccc     O4   8378 -0.96050000  16.000000   ; qtot -196.948890
 8379          o    289    ccc     O5   8379 -0.96050000  16.000000   ; qtot -197.909390
 8380         os    289    ccc     O1   8380 -0.11060000  16.000000   ; qtot -198.019990
; residue  290 ccc rtp ccc q -2.0
 8381         c3    290    ccc     C3   8381 -0.04070000  12.010000   ; qtot -198.060690
 8382         h1    290    ccc     H5   8382 0.04610000   1.008000   ; qtot -198.014590
 8383         h1    290    ccc     H6   8383 0.04610000   1.008000   ; qtot -197.968490
 8384         c3    290    ccc     C2   8384 -0.02540000  12.010000   ; qtot -197.993890
 8385         hc    290    ccc     H3   8385 0.00850000   1.008000   ; qtot -197.985390
 8386         hc    290    ccc     H4   8386 0.00850000   1.008000   ; qtot -197.976890
 8387         c3    290    ccc     C1   8387 0.60210000  12.010000   ; qtot -197.374790
 8388         h1    290    ccc     H1   8388 -0.09250000   1.008000   ; qtot -197.467290
 8389         h1    290    ccc     H2   8389 -0.09250000   1.008000   ; qtot -197.559790
 8390         n3    290    ccc     N1   8390 -0.59700000  14.010000   ; qtot -198.156790
 8391         c3    290    ccc     C4   8391 0.32800000  12.010000   ; qtot -197.828790
 8392         h1    290    ccc     H7   8392 -0.07120000   1.008000   ; qtot -197.899990
 8393         h1    290    ccc     H8   8393 -0.07120000   1.008000   ; qtot -197.971190
 8394         c3    290    ccc     C5   8394 -0.39330000  12.010000   ; qtot -198.364490
 8395         hc    290    ccc     H9   8395 0.08130000   1.008000   ; qtot -198.283190
 8396         hc    290    ccc    H10   8396 0.08130000   1.008000   ; qtot -198.201890
 8397          c    290    ccc     C6   8397 1.08970000  12.010000   ; qtot -197.112190
 8398          o    290    ccc     O2   8398 -0.96050000  16.000000   ; qtot -198.072690
 8399          o    290    ccc     O3   8399 -0.96050000  16.000000   ; qtot -199.033190
 8400         c3    290    ccc     C7   8400 0.32800000  12.010000   ; qtot -198.705190
 8401         h1    290    ccc    H11   8401 -0.07120000   1.008000   ; qtot -198.776390
 8402         h1    290    ccc    H12   8402 -0.07120000   1.008000   ; qtot -198.847590
 8403         c3    290    ccc     C8   8403 -0.39330000  12.010000   ; qtot -199.240890
 8404         hc    290    ccc    H13   8404 0.08130000   1.008000   ; qtot -199.159590
 8405         hc    290    ccc    H14   8405 0.08130000   1.008000   ; qtot -199.078290
 8406          c    290    ccc     C9   8406 1.08970000  12.010000   ; qtot -197.988590
 8407          o    290    ccc     O4   8407 -0.96050000  16.000000   ; qtot -198.949090
 8408          o    290    ccc     O5   8408 -0.96050000  16.000000   ; qtot -199.909590
 8409         os    290    ccc     O1   8409 -0.11060000  16.000000   ; qtot -200.020190
; residue  291 ccc rtp ccc q -2.0
 8410         c3    291    ccc     C3   8410 -0.04070000  12.010000   ; qtot -200.060890
 8411         h1    291    ccc     H5   8411 0.04610000   1.008000   ; qtot -200.014790
 8412         h1    291    ccc     H6   8412 0.04610000   1.008000   ; qtot -199.968690
 8413         c3    291    ccc     C2   8413 -0.02540000  12.010000   ; qtot -199.994090
 8414         hc    291    ccc     H3   8414 0.00850000   1.008000   ; qtot -199.985590
 8415         hc    291    ccc     H4   8415 0.00850000   1.008000   ; qtot -199.977090
 8416         c3    291    ccc     C1   8416 0.60210000  12.010000   ; qtot -199.374990
 8417         h1    291    ccc     H1   8417 -0.09250000   1.008000   ; qtot -199.467490
 8418         h1    291    ccc     H2   8418 -0.09250000   1.008000   ; qtot -199.559990
 8419         n3    291    ccc     N1   8419 -0.59700000  14.010000   ; qtot -200.156990
 8420         c3    291    ccc     C4   8420 0.32800000  12.010000   ; qtot -199.828990
 8421         h1    291    ccc     H7   8421 -0.07120000   1.008000   ; qtot -199.900190
 8422         h1    291    ccc     H8   8422 -0.07120000   1.008000   ; qtot -199.971390
 8423         c3    291    ccc     C5   8423 -0.39330000  12.010000   ; qtot -200.364690
 8424         hc    291    ccc     H9   8424 0.08130000   1.008000   ; qtot -200.283390
 8425         hc    291    ccc    H10   8425 0.08130000   1.008000   ; qtot -200.202090
 8426          c    291    ccc     C6   8426 1.08970000  12.010000   ; qtot -199.112390
 8427          o    291    ccc     O2   8427 -0.96050000  16.000000   ; qtot -200.072890
 8428          o    291    ccc     O3   8428 -0.96050000  16.000000   ; qtot -201.033390
 8429         c3    291    ccc     C7   8429 0.32800000  12.010000   ; qtot -200.705390
 8430         h1    291    ccc    H11   8430 -0.07120000   1.008000   ; qtot -200.776590
 8431         h1    291    ccc    H12   8431 -0.07120000   1.008000   ; qtot -200.847790
 8432         c3    291    ccc     C8   8432 -0.39330000  12.010000   ; qtot -201.241090
 8433         hc    291    ccc    H13   8433 0.08130000   1.008000   ; qtot -201.159790
 8434         hc    291    ccc    H14   8434 0.08130000   1.008000   ; qtot -201.078490
 8435          c    291    ccc     C9   8435 1.08970000  12.010000   ; qtot -199.988790
 8436          o    291    ccc     O4   8436 -0.96050000  16.000000   ; qtot -200.949290
 8437          o    291    ccc     O5   8437 -0.96050000  16.000000   ; qtot -201.909790
 8438         os    291    ccc     O1   8438 -0.11060000  16.000000   ; qtot -202.020390
; residue  292 ccc rtp ccc q -2.0
 8439         c3    292    ccc     C3   8439 -0.04070000  12.010000   ; qtot -202.061090
 8440         h1    292    ccc     H5   8440 0.04610000   1.008000   ; qtot -202.014990
 8441         h1    292    ccc     H6   8441 0.04610000   1.008000   ; qtot -201.968890
 8442         c3    292    ccc     C2   8442 -0.02540000  12.010000   ; qtot -201.994290
 8443         hc    292    ccc     H3   8443 0.00850000   1.008000   ; qtot -201.985790
 8444         hc    292    ccc     H4   8444 0.00850000   1.008000   ; qtot -201.977290
 8445         c3    292    ccc     C1   8445 0.60210000  12.010000   ; qtot -201.375190
 8446         h1    292    ccc     H1   8446 -0.09250000   1.008000   ; qtot -201.467690
 8447         h1    292    ccc     H2   8447 -0.09250000   1.008000   ; qtot -201.560190
 8448         n3    292    ccc     N1   8448 -0.59700000  14.010000   ; qtot -202.157190
 8449         c3    292    ccc     C4   8449 0.32800000  12.010000   ; qtot -201.829190
 8450         h1    292    ccc     H7   8450 -0.07120000   1.008000   ; qtot -201.900390
 8451         h1    292    ccc     H8   8451 -0.07120000   1.008000   ; qtot -201.971590
 8452         c3    292    ccc     C5   8452 -0.39330000  12.010000   ; qtot -202.364890
 8453         hc    292    ccc     H9   8453 0.08130000   1.008000   ; qtot -202.283590
 8454         hc    292    ccc    H10   8454 0.08130000   1.008000   ; qtot -202.202290
 8455          c    292    ccc     C6   8455 1.08970000  12.010000   ; qtot -201.112590
 8456          o    292    ccc     O2   8456 -0.96050000  16.000000   ; qtot -202.073090
 8457          o    292    ccc     O3   8457 -0.96050000  16.000000   ; qtot -203.033590
 8458         c3    292    ccc     C7   8458 0.32800000  12.010000   ; qtot -202.705590
 8459         h1    292    ccc    H11   8459 -0.07120000   1.008000   ; qtot -202.776790
 8460         h1    292    ccc    H12   8460 -0.07120000   1.008000   ; qtot -202.847990
 8461         c3    292    ccc     C8   8461 -0.39330000  12.010000   ; qtot -203.241290
 8462         hc    292    ccc    H13   8462 0.08130000   1.008000   ; qtot -203.159990
 8463         hc    292    ccc    H14   8463 0.08130000   1.008000   ; qtot -203.078690
 8464          c    292    ccc     C9   8464 1.08970000  12.010000   ; qtot -201.988990
 8465          o    292    ccc     O4   8465 -0.96050000  16.000000   ; qtot -202.949490
 8466          o    292    ccc     O5   8466 -0.96050000  16.000000   ; qtot -203.909990
 8467         os    292    ccc     O1   8467 -0.11060000  16.000000   ; qtot -204.020590
; residue  293 ccc rtp ccc q -2.0
 8468         c3    293    ccc     C3   8468 -0.04070000  12.010000   ; qtot -204.061290
 8469         h1    293    ccc     H5   8469 0.04610000   1.008000   ; qtot -204.015190
 8470         h1    293    ccc     H6   8470 0.04610000   1.008000   ; qtot -203.969090
 8471         c3    293    ccc     C2   8471 -0.02540000  12.010000   ; qtot -203.994490
 8472         hc    293    ccc     H3   8472 0.00850000   1.008000   ; qtot -203.985990
 8473         hc    293    ccc     H4   8473 0.00850000   1.008000   ; qtot -203.977490
 8474         c3    293    ccc     C1   8474 0.60210000  12.010000   ; qtot -203.375390
 8475         h1    293    ccc     H1   8475 -0.09250000   1.008000   ; qtot -203.467890
 8476         h1    293    ccc     H2   8476 -0.09250000   1.008000   ; qtot -203.560390
 8477         n3    293    ccc     N1   8477 -0.59700000  14.010000   ; qtot -204.157390
 8478         c3    293    ccc     C4   8478 0.32800000  12.010000   ; qtot -203.829390
 8479         h1    293    ccc     H7   8479 -0.07120000   1.008000   ; qtot -203.900590
 8480         h1    293    ccc     H8   8480 -0.07120000   1.008000   ; qtot -203.971790
 8481         c3    293    ccc     C5   8481 -0.39330000  12.010000   ; qtot -204.365090
 8482         hc    293    ccc     H9   8482 0.08130000   1.008000   ; qtot -204.283790
 8483         hc    293    ccc    H10   8483 0.08130000   1.008000   ; qtot -204.202490
 8484          c    293    ccc     C6   8484 1.08970000  12.010000   ; qtot -203.112790
 8485          o    293    ccc     O2   8485 -0.96050000  16.000000   ; qtot -204.073290
 8486          o    293    ccc     O3   8486 -0.96050000  16.000000   ; qtot -205.033790
 8487         c3    293    ccc     C7   8487 0.32800000  12.010000   ; qtot -204.705790
 8488         h1    293    ccc    H11   8488 -0.07120000   1.008000   ; qtot -204.776990
 8489         h1    293    ccc    H12   8489 -0.07120000   1.008000   ; qtot -204.848190
 8490         c3    293    ccc     C8   8490 -0.39330000  12.010000   ; qtot -205.241490
 8491         hc    293    ccc    H13   8491 0.08130000   1.008000   ; qtot -205.160190
 8492         hc    293    ccc    H14   8492 0.08130000   1.008000   ; qtot -205.078890
 8493          c    293    ccc     C9   8493 1.08970000  12.010000   ; qtot -203.989190
 8494          o    293    ccc     O4   8494 -0.96050000  16.000000   ; qtot -204.949690
 8495          o    293    ccc     O5   8495 -0.96050000  16.000000   ; qtot -205.910190
 8496         os    293    ccc     O1   8496 -0.11060000  16.000000   ; qtot -206.020790
; residue  294 ccc rtp ccc q -2.0
 8497         c3    294    ccc     C3   8497 -0.04070000  12.010000   ; qtot -206.061490
 8498         h1    294    ccc     H5   8498 0.04610000   1.008000   ; qtot -206.015390
 8499         h1    294    ccc     H6   8499 0.04610000   1.008000   ; qtot -205.969290
 8500         c3    294    ccc     C2   8500 -0.02540000  12.010000   ; qtot -205.994690
 8501         hc    294    ccc     H3   8501 0.00850000   1.008000   ; qtot -205.986190
 8502         hc    294    ccc     H4   8502 0.00850000   1.008000   ; qtot -205.977690
 8503         c3    294    ccc     C1   8503 0.60210000  12.010000   ; qtot -205.375590
 8504         h1    294    ccc     H1   8504 -0.09250000   1.008000   ; qtot -205.468090
 8505         h1    294    ccc     H2   8505 -0.09250000   1.008000   ; qtot -205.560590
 8506         n3    294    ccc     N1   8506 -0.59700000  14.010000   ; qtot -206.157590
 8507         c3    294    ccc     C4   8507 0.32800000  12.010000   ; qtot -205.829590
 8508         h1    294    ccc     H7   8508 -0.07120000   1.008000   ; qtot -205.900790
 8509         h1    294    ccc     H8   8509 -0.07120000   1.008000   ; qtot -205.971990
 8510         c3    294    ccc     C5   8510 -0.39330000  12.010000   ; qtot -206.365290
 8511         hc    294    ccc     H9   8511 0.08130000   1.008000   ; qtot -206.283990
 8512         hc    294    ccc    H10   8512 0.08130000   1.008000   ; qtot -206.202690
 8513          c    294    ccc     C6   8513 1.08970000  12.010000   ; qtot -205.112990
 8514          o    294    ccc     O2   8514 -0.96050000  16.000000   ; qtot -206.073490
 8515          o    294    ccc     O3   8515 -0.96050000  16.000000   ; qtot -207.033990
 8516         c3    294    ccc     C7   8516 0.32800000  12.010000   ; qtot -206.705990
 8517         h1    294    ccc    H11   8517 -0.07120000   1.008000   ; qtot -206.777190
 8518         h1    294    ccc    H12   8518 -0.07120000   1.008000   ; qtot -206.848390
 8519         c3    294    ccc     C8   8519 -0.39330000  12.010000   ; qtot -207.241690
 8520         hc    294    ccc    H13   8520 0.08130000   1.008000   ; qtot -207.160390
 8521         hc    294    ccc    H14   8521 0.08130000   1.008000   ; qtot -207.079090
 8522          c    294    ccc     C9   8522 1.08970000  12.010000   ; qtot -205.989390
 8523          o    294    ccc     O4   8523 -0.96050000  16.000000   ; qtot -206.949890
 8524          o    294    ccc     O5   8524 -0.96050000  16.000000   ; qtot -207.910390
 8525         os    294    ccc     O1   8525 -0.11060000  16.000000   ; qtot -208.020990
; residue  295 ccc rtp ccc q -2.0
 8526         c3    295    ccc     C3   8526 -0.04070000  12.010000   ; qtot -208.061690
 8527         h1    295    ccc     H5   8527 0.04610000   1.008000   ; qtot -208.015590
 8528         h1    295    ccc     H6   8528 0.04610000   1.008000   ; qtot -207.969490
 8529         c3    295    ccc     C2   8529 -0.02540000  12.010000   ; qtot -207.994890
 8530         hc    295    ccc     H3   8530 0.00850000   1.008000   ; qtot -207.986390
 8531         hc    295    ccc     H4   8531 0.00850000   1.008000   ; qtot -207.977890
 8532         c3    295    ccc     C1   8532 0.60210000  12.010000   ; qtot -207.375790
 8533         h1    295    ccc     H1   8533 -0.09250000   1.008000   ; qtot -207.468290
 8534         h1    295    ccc     H2   8534 -0.09250000   1.008000   ; qtot -207.560790
 8535         n3    295    ccc     N1   8535 -0.59700000  14.010000   ; qtot -208.157790
 8536         c3    295    ccc     C4   8536 0.32800000  12.010000   ; qtot -207.829790
 8537         h1    295    ccc     H7   8537 -0.07120000   1.008000   ; qtot -207.900990
 8538         h1    295    ccc     H8   8538 -0.07120000   1.008000   ; qtot -207.972190
 8539         c3    295    ccc     C5   8539 -0.39330000  12.010000   ; qtot -208.365490
 8540         hc    295    ccc     H9   8540 0.08130000   1.008000   ; qtot -208.284190
 8541         hc    295    ccc    H10   8541 0.08130000   1.008000   ; qtot -208.202890
 8542          c    295    ccc     C6   8542 1.08970000  12.010000   ; qtot -207.113190
 8543          o    295    ccc     O2   8543 -0.96050000  16.000000   ; qtot -208.073690
 8544          o    295    ccc     O3   8544 -0.96050000  16.000000   ; qtot -209.034190
 8545         c3    295    ccc     C7   8545 0.32800000  12.010000   ; qtot -208.706190
 8546         h1    295    ccc    H11   8546 -0.07120000   1.008000   ; qtot -208.777390
 8547         h1    295    ccc    H12   8547 -0.07120000   1.008000   ; qtot -208.848590
 8548         c3    295    ccc     C8   8548 -0.39330000  12.010000   ; qtot -209.241890
 8549         hc    295    ccc    H13   8549 0.08130000   1.008000   ; qtot -209.160590
 8550         hc    295    ccc    H14   8550 0.08130000   1.008000   ; qtot -209.079290
 8551          c    295    ccc     C9   8551 1.08970000  12.010000   ; qtot -207.989590
 8552          o    295    ccc     O4   8552 -0.96050000  16.000000   ; qtot -208.950090
 8553          o    295    ccc     O5   8553 -0.96050000  16.000000   ; qtot -209.910590
 8554         os    295    ccc     O1   8554 -0.11060000  16.000000   ; qtot -210.021190
; residue  296 ccc rtp ccc q -2.0
 8555         c3    296    ccc     C3   8555 -0.04070000  12.010000   ; qtot -210.061890
 8556         h1    296    ccc     H5   8556 0.04610000   1.008000   ; qtot -210.015790
 8557         h1    296    ccc     H6   8557 0.04610000   1.008000   ; qtot -209.969690
 8558         c3    296    ccc     C2   8558 -0.02540000  12.010000   ; qtot -209.995090
 8559         hc    296    ccc     H3   8559 0.00850000   1.008000   ; qtot -209.986590
 8560         hc    296    ccc     H4   8560 0.00850000   1.008000   ; qtot -209.978090
 8561         c3    296    ccc     C1   8561 0.60210000  12.010000   ; qtot -209.375990
 8562         h1    296    ccc     H1   8562 -0.09250000   1.008000   ; qtot -209.468490
 8563         h1    296    ccc     H2   8563 -0.09250000   1.008000   ; qtot -209.560990
 8564         n3    296    ccc     N1   8564 -0.59700000  14.010000   ; qtot -210.157990
 8565         c3    296    ccc     C4   8565 0.32800000  12.010000   ; qtot -209.829990
 8566         h1    296    ccc     H7   8566 -0.07120000   1.008000   ; qtot -209.901190
 8567         h1    296    ccc     H8   8567 -0.07120000   1.008000   ; qtot -209.972390
 8568         c3    296    ccc     C5   8568 -0.39330000  12.010000   ; qtot -210.365690
 8569         hc    296    ccc     H9   8569 0.08130000   1.008000   ; qtot -210.284390
 8570         hc    296    ccc    H10   8570 0.08130000   1.008000   ; qtot -210.203090
 8571          c    296    ccc     C6   8571 1.08970000  12.010000   ; qtot -209.113390
 8572          o    296    ccc     O2   8572 -0.96050000  16.000000   ; qtot -210.073890
 8573          o    296    ccc     O3   8573 -0.96050000  16.000000   ; qtot -211.034390
 8574         c3    296    ccc     C7   8574 0.32800000  12.010000   ; qtot -210.706390
 8575         h1    296    ccc    H11   8575 -0.07120000   1.008000   ; qtot -210.777590
 8576         h1    296    ccc    H12   8576 -0.07120000   1.008000   ; qtot -210.848790
 8577         c3    296    ccc     C8   8577 -0.39330000  12.010000   ; qtot -211.242090
 8578         hc    296    ccc    H13   8578 0.08130000   1.008000   ; qtot -211.160790
 8579         hc    296    ccc    H14   8579 0.08130000   1.008000   ; qtot -211.079490
 8580          c    296    ccc     C9   8580 1.08970000  12.010000   ; qtot -209.989790
 8581          o    296    ccc     O4   8581 -0.96050000  16.000000   ; qtot -210.950290
 8582          o    296    ccc     O5   8582 -0.96050000  16.000000   ; qtot -211.910790
 8583         os    296    ccc     O1   8583 -0.11060000  16.000000   ; qtot -212.021390
; residue  297 ccc rtp ccc q -2.0
 8584         c3    297    ccc     C3   8584 -0.04070000  12.010000   ; qtot -212.062090
 8585         h1    297    ccc     H5   8585 0.04610000   1.008000   ; qtot -212.015990
 8586         h1    297    ccc     H6   8586 0.04610000   1.008000   ; qtot -211.969890
 8587         c3    297    ccc     C2   8587 -0.02540000  12.010000   ; qtot -211.995290
 8588         hc    297    ccc     H3   8588 0.00850000   1.008000   ; qtot -211.986790
 8589         hc    297    ccc     H4   8589 0.00850000   1.008000   ; qtot -211.978290
 8590         c3    297    ccc     C1   8590 0.60210000  12.010000   ; qtot -211.376190
 8591         h1    297    ccc     H1   8591 -0.09250000   1.008000   ; qtot -211.468690
 8592         h1    297    ccc     H2   8592 -0.09250000   1.008000   ; qtot -211.561190
 8593         n3    297    ccc     N1   8593 -0.59700000  14.010000   ; qtot -212.158190
 8594         c3    297    ccc     C4   8594 0.32800000  12.010000   ; qtot -211.830190
 8595         h1    297    ccc     H7   8595 -0.07120000   1.008000   ; qtot -211.901390
 8596         h1    297    ccc     H8   8596 -0.07120000   1.008000   ; qtot -211.972590
 8597         c3    297    ccc     C5   8597 -0.39330000  12.010000   ; qtot -212.365890
 8598         hc    297    ccc     H9   8598 0.08130000   1.008000   ; qtot -212.284590
 8599         hc    297    ccc    H10   8599 0.08130000   1.008000   ; qtot -212.203290
 8600          c    297    ccc     C6   8600 1.08970000  12.010000   ; qtot -211.113590
 8601          o    297    ccc     O2   8601 -0.96050000  16.000000   ; qtot -212.074090
 8602          o    297    ccc     O3   8602 -0.96050000  16.000000   ; qtot -213.034590
 8603         c3    297    ccc     C7   8603 0.32800000  12.010000   ; qtot -212.706590
 8604         h1    297    ccc    H11   8604 -0.07120000   1.008000   ; qtot -212.777790
 8605         h1    297    ccc    H12   8605 -0.07120000   1.008000   ; qtot -212.848990
 8606         c3    297    ccc     C8   8606 -0.39330000  12.010000   ; qtot -213.242290
 8607         hc    297    ccc    H13   8607 0.08130000   1.008000   ; qtot -213.160990
 8608         hc    297    ccc    H14   8608 0.08130000   1.008000   ; qtot -213.079690
 8609          c    297    ccc     C9   8609 1.08970000  12.010000   ; qtot -211.989990
 8610          o    297    ccc     O4   8610 -0.96050000  16.000000   ; qtot -212.950490
 8611          o    297    ccc     O5   8611 -0.96050000  16.000000   ; qtot -213.910990
 8612         os    297    ccc     O1   8612 -0.11060000  16.000000   ; qtot -214.021590
; residue  298 ccc rtp ccc q -2.0
 8613         c3    298    ccc     C3   8613 -0.04070000  12.010000   ; qtot -214.062290
 8614         h1    298    ccc     H5   8614 0.04610000   1.008000   ; qtot -214.016190
 8615         h1    298    ccc     H6   8615 0.04610000   1.008000   ; qtot -213.970090
 8616         c3    298    ccc     C2   8616 -0.02540000  12.010000   ; qtot -213.995490
 8617         hc    298    ccc     H3   8617 0.00850000   1.008000   ; qtot -213.986990
 8618         hc    298    ccc     H4   8618 0.00850000   1.008000   ; qtot -213.978490
 8619         c3    298    ccc     C1   8619 0.60210000  12.010000   ; qtot -213.376390
 8620         h1    298    ccc     H1   8620 -0.09250000   1.008000   ; qtot -213.468890
 8621         h1    298    ccc     H2   8621 -0.09250000   1.008000   ; qtot -213.561390
 8622         n3    298    ccc     N1   8622 -0.59700000  14.010000   ; qtot -214.158390
 8623         c3    298    ccc     C4   8623 0.32800000  12.010000   ; qtot -213.830390
 8624         h1    298    ccc     H7   8624 -0.07120000   1.008000   ; qtot -213.901590
 8625         h1    298    ccc     H8   8625 -0.07120000   1.008000   ; qtot -213.972790
 8626         c3    298    ccc     C5   8626 -0.39330000  12.010000   ; qtot -214.366090
 8627         hc    298    ccc     H9   8627 0.08130000   1.008000   ; qtot -214.284790
 8628         hc    298    ccc    H10   8628 0.08130000   1.008000   ; qtot -214.203490
 8629          c    298    ccc     C6   8629 1.08970000  12.010000   ; qtot -213.113790
 8630          o    298    ccc     O2   8630 -0.96050000  16.000000   ; qtot -214.074290
 8631          o    298    ccc     O3   8631 -0.96050000  16.000000   ; qtot -215.034790
 8632         c3    298    ccc     C7   8632 0.32800000  12.010000   ; qtot -214.706790
 8633         h1    298    ccc    H11   8633 -0.07120000   1.008000   ; qtot -214.777990
 8634         h1    298    ccc    H12   8634 -0.07120000   1.008000   ; qtot -214.849190
 8635         c3    298    ccc     C8   8635 -0.39330000  12.010000   ; qtot -215.242490
 8636         hc    298    ccc    H13   8636 0.08130000   1.008000   ; qtot -215.161190
 8637         hc    298    ccc    H14   8637 0.08130000   1.008000   ; qtot -215.079890
 8638          c    298    ccc     C9   8638 1.08970000  12.010000   ; qtot -213.990190
 8639          o    298    ccc     O4   8639 -0.96050000  16.000000   ; qtot -214.950690
 8640          o    298    ccc     O5   8640 -0.96050000  16.000000   ; qtot -215.911190
 8641         os    298    ccc     O1   8641 -0.11060000  16.000000   ; qtot -216.021790
; residue  299 ccc rtp ccc q -2.0
 8642         c3    299    ccc     C3   8642 -0.04070000  12.010000   ; qtot -216.062490
 8643         h1    299    ccc     H5   8643 0.04610000   1.008000   ; qtot -216.016390
 8644         h1    299    ccc     H6   8644 0.04610000   1.008000   ; qtot -215.970290
 8645         c3    299    ccc     C2   8645 -0.02540000  12.010000   ; qtot -215.995690
 8646         hc    299    ccc     H3   8646 0.00850000   1.008000   ; qtot -215.987190
 8647         hc    299    ccc     H4   8647 0.00850000   1.008000   ; qtot -215.978690
 8648         c3    299    ccc     C1   8648 0.60210000  12.010000   ; qtot -215.376590
 8649         h1    299    ccc     H1   8649 -0.09250000   1.008000   ; qtot -215.469090
 8650         h1    299    ccc     H2   8650 -0.09250000   1.008000   ; qtot -215.561590
 8651         n3    299    ccc     N1   8651 -0.59700000  14.010000   ; qtot -216.158590
 8652         c3    299    ccc     C4   8652 0.32800000  12.010000   ; qtot -215.830590
 8653         h1    299    ccc     H7   8653 -0.07120000   1.008000   ; qtot -215.901790
 8654         h1    299    ccc     H8   8654 -0.07120000   1.008000   ; qtot -215.972990
 8655         c3    299    ccc     C5   8655 -0.39330000  12.010000   ; qtot -216.366290
 8656         hc    299    ccc     H9   8656 0.08130000   1.008000   ; qtot -216.284990
 8657         hc    299    ccc    H10   8657 0.08130000   1.008000   ; qtot -216.203690
 8658          c    299    ccc     C6   8658 1.08970000  12.010000   ; qtot -215.113990
 8659          o    299    ccc     O2   8659 -0.96050000  16.000000   ; qtot -216.074490
 8660          o    299    ccc     O3   8660 -0.96050000  16.000000   ; qtot -217.034990
 8661         c3    299    ccc     C7   8661 0.32800000  12.010000   ; qtot -216.706990
 8662         h1    299    ccc    H11   8662 -0.07120000   1.008000   ; qtot -216.778190
 8663         h1    299    ccc    H12   8663 -0.07120000   1.008000   ; qtot -216.849390
 8664         c3    299    ccc     C8   8664 -0.39330000  12.010000   ; qtot -217.242690
 8665         hc    299    ccc    H13   8665 0.08130000   1.008000   ; qtot -217.161390
 8666         hc    299    ccc    H14   8666 0.08130000   1.008000   ; qtot -217.080090
 8667          c    299    ccc     C9   8667 1.08970000  12.010000   ; qtot -215.990390
 8668          o    299    ccc     O4   8668 -0.96050000  16.000000   ; qtot -216.950890
 8669          o    299    ccc     O5   8669 -0.96050000  16.000000   ; qtot -217.911390
 8670         os    299    ccc     O1   8670 -0.11060000  16.000000   ; qtot -218.021990
; residue  300 ccc rtp ccc q -2.0
 8671         c3    300    ccc     C3   8671 -0.04070000  12.010000   ; qtot -218.062690
 8672         h1    300    ccc     H5   8672 0.04610000   1.008000   ; qtot -218.016590
 8673         h1    300    ccc     H6   8673 0.04610000   1.008000   ; qtot -217.970490
 8674         c3    300    ccc     C2   8674 -0.02540000  12.010000   ; qtot -217.995890
 8675         hc    300    ccc     H3   8675 0.00850000   1.008000   ; qtot -217.987390
 8676         hc    300    ccc     H4   8676 0.00850000   1.008000   ; qtot -217.978890
 8677         c3    300    ccc     C1   8677 0.60210000  12.010000   ; qtot -217.376790
 8678         h1    300    ccc     H1   8678 -0.09250000   1.008000   ; qtot -217.469290
 8679         h1    300    ccc     H2   8679 -0.09250000   1.008000   ; qtot -217.561790
 8680         n3    300    ccc     N1   8680 -0.59700000  14.010000   ; qtot -218.158790
 8681         c3    300    ccc     C4   8681 0.32800000  12.010000   ; qtot -217.830790
 8682         h1    300    ccc     H7   8682 -0.07120000   1.008000   ; qtot -217.901990
 8683         h1    300    ccc     H8   8683 -0.07120000   1.008000   ; qtot -217.973190
 8684         c3    300    ccc     C5   8684 -0.39330000  12.010000   ; qtot -218.366490
 8685         hc    300    ccc     H9   8685 0.08130000   1.008000   ; qtot -218.285190
 8686         hc    300    ccc    H10   8686 0.08130000   1.008000   ; qtot -218.203890
 8687          c    300    ccc     C6   8687 1.08970000  12.010000   ; qtot -217.114190
 8688          o    300    ccc     O2   8688 -0.96050000  16.000000   ; qtot -218.074690
 8689          o    300    ccc     O3   8689 -0.96050000  16.000000   ; qtot -219.035190
 8690         c3    300    ccc     C7   8690 0.32800000  12.010000   ; qtot -218.707190
 8691         h1    300    ccc    H11   8691 -0.07120000   1.008000   ; qtot -218.778390
 8692         h1    300    ccc    H12   8692 -0.07120000   1.008000   ; qtot -218.849590
 8693         c3    300    ccc     C8   8693 -0.39330000  12.010000   ; qtot -219.242890
 8694         hc    300    ccc    H13   8694 0.08130000   1.008000   ; qtot -219.161590
 8695         hc    300    ccc    H14   8695 0.08130000   1.008000   ; qtot -219.080290
 8696          c    300    ccc     C9   8696 1.08970000  12.010000   ; qtot -217.990590
 8697          o    300    ccc     O4   8697 -0.96050000  16.000000   ; qtot -218.951090
 8698          o    300    ccc     O5   8698 -0.96050000  16.000000   ; qtot -219.911590
 8699         os    300    ccc     O1   8699 -0.11060000  16.000000   ; qtot -220.022190
; residue  301 ccc rtp ccc q -2.0
 8700         c3    301    ccc     C3   8700 -0.04070000  12.010000   ; qtot -220.062890
 8701         h1    301    ccc     H5   8701 0.04610000   1.008000   ; qtot -220.016790
 8702         h1    301    ccc     H6   8702 0.04610000   1.008000   ; qtot -219.970690
 8703         c3    301    ccc     C2   8703 -0.02540000  12.010000   ; qtot -219.996090
 8704         hc    301    ccc     H3   8704 0.00850000   1.008000   ; qtot -219.987590
 8705         hc    301    ccc     H4   8705 0.00850000   1.008000   ; qtot -219.979090
 8706         c3    301    ccc     C1   8706 0.60210000  12.010000   ; qtot -219.376990
 8707         h1    301    ccc     H1   8707 -0.09250000   1.008000   ; qtot -219.469490
 8708         h1    301    ccc     H2   8708 -0.09250000   1.008000   ; qtot -219.561990
 8709         n3    301    ccc     N1   8709 -0.59700000  14.010000   ; qtot -220.158990
 8710         c3    301    ccc     C4   8710 0.32800000  12.010000   ; qtot -219.830990
 8711         h1    301    ccc     H7   8711 -0.07120000   1.008000   ; qtot -219.902190
 8712         h1    301    ccc     H8   8712 -0.07120000   1.008000   ; qtot -219.973390
 8713         c3    301    ccc     C5   8713 -0.39330000  12.010000   ; qtot -220.366690
 8714         hc    301    ccc     H9   8714 0.08130000   1.008000   ; qtot -220.285390
 8715         hc    301    ccc    H10   8715 0.08130000   1.008000   ; qtot -220.204090
 8716          c    301    ccc     C6   8716 1.08970000  12.010000   ; qtot -219.114390
 8717          o    301    ccc     O2   8717 -0.96050000  16.000000   ; qtot -220.074890
 8718          o    301    ccc     O3   8718 -0.96050000  16.000000   ; qtot -221.035390
 8719         c3    301    ccc     C7   8719 0.32800000  12.010000   ; qtot -220.707390
 8720         h1    301    ccc    H11   8720 -0.07120000   1.008000   ; qtot -220.778590
 8721         h1    301    ccc    H12   8721 -0.07120000   1.008000   ; qtot -220.849790
 8722         c3    301    ccc     C8   8722 -0.39330000  12.010000   ; qtot -221.243090
 8723         hc    301    ccc    H13   8723 0.08130000   1.008000   ; qtot -221.161790
 8724         hc    301    ccc    H14   8724 0.08130000   1.008000   ; qtot -221.080490
 8725          c    301    ccc     C9   8725 1.08970000  12.010000   ; qtot -219.990790
 8726          o    301    ccc     O4   8726 -0.96050000  16.000000   ; qtot -220.951290
 8727          o    301    ccc     O5   8727 -0.96050000  16.000000   ; qtot -221.911790
 8728         os    301    ccc     O1   8728 -0.11060000  16.000000   ; qtot -222.022390
; residue  302 ccc rtp ccc q -2.0
 8729         c3    302    ccc     C3   8729 -0.04070000  12.010000   ; qtot -222.063090
 8730         h1    302    ccc     H5   8730 0.04610000   1.008000   ; qtot -222.016990
 8731         h1    302    ccc     H6   8731 0.04610000   1.008000   ; qtot -221.970890
 8732         c3    302    ccc     C2   8732 -0.02540000  12.010000   ; qtot -221.996290
 8733         hc    302    ccc     H3   8733 0.00850000   1.008000   ; qtot -221.987790
 8734         hc    302    ccc     H4   8734 0.00850000   1.008000   ; qtot -221.979290
 8735         c3    302    ccc     C1   8735 0.60210000  12.010000   ; qtot -221.377190
 8736         h1    302    ccc     H1   8736 -0.09250000   1.008000   ; qtot -221.469690
 8737         h1    302    ccc     H2   8737 -0.09250000   1.008000   ; qtot -221.562190
 8738         n3    302    ccc     N1   8738 -0.59700000  14.010000   ; qtot -222.159190
 8739         c3    302    ccc     C4   8739 0.32800000  12.010000   ; qtot -221.831190
 8740         h1    302    ccc     H7   8740 -0.07120000   1.008000   ; qtot -221.902390
 8741         h1    302    ccc     H8   8741 -0.07120000   1.008000   ; qtot -221.973590
 8742         c3    302    ccc     C5   8742 -0.39330000  12.010000   ; qtot -222.366890
 8743         hc    302    ccc     H9   8743 0.08130000   1.008000   ; qtot -222.285590
 8744         hc    302    ccc    H10   8744 0.08130000   1.008000   ; qtot -222.204290
 8745          c    302    ccc     C6   8745 1.08970000  12.010000   ; qtot -221.114590
 8746          o    302    ccc     O2   8746 -0.96050000  16.000000   ; qtot -222.075090
 8747          o    302    ccc     O3   8747 -0.96050000  16.000000   ; qtot -223.035590
 8748         c3    302    ccc     C7   8748 0.32800000  12.010000   ; qtot -222.707590
 8749         h1    302    ccc    H11   8749 -0.07120000   1.008000   ; qtot -222.778790
 8750         h1    302    ccc    H12   8750 -0.07120000   1.008000   ; qtot -222.849990
 8751         c3    302    ccc     C8   8751 -0.39330000  12.010000   ; qtot -223.243290
 8752         hc    302    ccc    H13   8752 0.08130000   1.008000   ; qtot -223.161990
 8753         hc    302    ccc    H14   8753 0.08130000   1.008000   ; qtot -223.080690
 8754          c    302    ccc     C9   8754 1.08970000  12.010000   ; qtot -221.990990
 8755          o    302    ccc     O4   8755 -0.96050000  16.000000   ; qtot -222.951490
 8756          o    302    ccc     O5   8756 -0.96050000  16.000000   ; qtot -223.911990
 8757         os    302    ccc     O1   8757 -0.11060000  16.000000   ; qtot -224.022590
; residue  303 ccc rtp ccc q -2.0
 8758         c3    303    ccc     C3   8758 -0.04070000  12.010000   ; qtot -224.063290
 8759         h1    303    ccc     H5   8759 0.04610000   1.008000   ; qtot -224.017190
 8760         h1    303    ccc     H6   8760 0.04610000   1.008000   ; qtot -223.971090
 8761         c3    303    ccc     C2   8761 -0.02540000  12.010000   ; qtot -223.996490
 8762         hc    303    ccc     H3   8762 0.00850000   1.008000   ; qtot -223.987990
 8763         hc    303    ccc     H4   8763 0.00850000   1.008000   ; qtot -223.979490
 8764         c3    303    ccc     C1   8764 0.60210000  12.010000   ; qtot -223.377390
 8765         h1    303    ccc     H1   8765 -0.09250000   1.008000   ; qtot -223.469890
 8766         h1    303    ccc     H2   8766 -0.09250000   1.008000   ; qtot -223.562390
 8767         n3    303    ccc     N1   8767 -0.59700000  14.010000   ; qtot -224.159390
 8768         c3    303    ccc     C4   8768 0.32800000  12.010000   ; qtot -223.831390
 8769         h1    303    ccc     H7   8769 -0.07120000   1.008000   ; qtot -223.902590
 8770         h1    303    ccc     H8   8770 -0.07120000   1.008000   ; qtot -223.973790
 8771         c3    303    ccc     C5   8771 -0.39330000  12.010000   ; qtot -224.367090
 8772         hc    303    ccc     H9   8772 0.08130000   1.008000   ; qtot -224.285790
 8773         hc    303    ccc    H10   8773 0.08130000   1.008000   ; qtot -224.204490
 8774          c    303    ccc     C6   8774 1.08970000  12.010000   ; qtot -223.114790
 8775          o    303    ccc     O2   8775 -0.96050000  16.000000   ; qtot -224.075290
 8776          o    303    ccc     O3   8776 -0.96050000  16.000000   ; qtot -225.035790
 8777         c3    303    ccc     C7   8777 0.32800000  12.010000   ; qtot -224.707790
 8778         h1    303    ccc    H11   8778 -0.07120000   1.008000   ; qtot -224.778990
 8779         h1    303    ccc    H12   8779 -0.07120000   1.008000   ; qtot -224.850190
 8780         c3    303    ccc     C8   8780 -0.39330000  12.010000   ; qtot -225.243490
 8781         hc    303    ccc    H13   8781 0.08130000   1.008000   ; qtot -225.162190
 8782         hc    303    ccc    H14   8782 0.08130000   1.008000   ; qtot -225.080890
 8783          c    303    ccc     C9   8783 1.08970000  12.010000   ; qtot -223.991190
 8784          o    303    ccc     O4   8784 -0.96050000  16.000000   ; qtot -224.951690
 8785          o    303    ccc     O5   8785 -0.96050000  16.000000   ; qtot -225.912190
 8786         os    303    ccc     O1   8786 -0.11060000  16.000000   ; qtot -226.022790
; residue  304 ccc rtp ccc q -2.0
 8787         c3    304    ccc     C3   8787 -0.04070000  12.010000   ; qtot -226.063490
 8788         h1    304    ccc     H5   8788 0.04610000   1.008000   ; qtot -226.017390
 8789         h1    304    ccc     H6   8789 0.04610000   1.008000   ; qtot -225.971290
 8790         c3    304    ccc     C2   8790 -0.02540000  12.010000   ; qtot -225.996690
 8791         hc    304    ccc     H3   8791 0.00850000   1.008000   ; qtot -225.988190
 8792         hc    304    ccc     H4   8792 0.00850000   1.008000   ; qtot -225.979690
 8793         c3    304    ccc     C1   8793 0.60210000  12.010000   ; qtot -225.377590
 8794         h1    304    ccc     H1   8794 -0.09250000   1.008000   ; qtot -225.470090
 8795         h1    304    ccc     H2   8795 -0.09250000   1.008000   ; qtot -225.562590
 8796         n3    304    ccc     N1   8796 -0.59700000  14.010000   ; qtot -226.159590
 8797         c3    304    ccc     C4   8797 0.32800000  12.010000   ; qtot -225.831590
 8798         h1    304    ccc     H7   8798 -0.07120000   1.008000   ; qtot -225.902790
 8799         h1    304    ccc     H8   8799 -0.07120000   1.008000   ; qtot -225.973990
 8800         c3    304    ccc     C5   8800 -0.39330000  12.010000   ; qtot -226.367290
 8801         hc    304    ccc     H9   8801 0.08130000   1.008000   ; qtot -226.285990
 8802         hc    304    ccc    H10   8802 0.08130000   1.008000   ; qtot -226.204690
 8803          c    304    ccc     C6   8803 1.08970000  12.010000   ; qtot -225.114990
 8804          o    304    ccc     O2   8804 -0.96050000  16.000000   ; qtot -226.075490
 8805          o    304    ccc     O3   8805 -0.96050000  16.000000   ; qtot -227.035990
 8806         c3    304    ccc     C7   8806 0.32800000  12.010000   ; qtot -226.707990
 8807         h1    304    ccc    H11   8807 -0.07120000   1.008000   ; qtot -226.779190
 8808         h1    304    ccc    H12   8808 -0.07120000   1.008000   ; qtot -226.850390
 8809         c3    304    ccc     C8   8809 -0.39330000  12.010000   ; qtot -227.243690
 8810         hc    304    ccc    H13   8810 0.08130000   1.008000   ; qtot -227.162390
 8811         hc    304    ccc    H14   8811 0.08130000   1.008000   ; qtot -227.081090
 8812          c    304    ccc     C9   8812 1.08970000  12.010000   ; qtot -225.991390
 8813          o    304    ccc     O4   8813 -0.96050000  16.000000   ; qtot -226.951890
 8814          o    304    ccc     O5   8814 -0.96050000  16.000000   ; qtot -227.912390
 8815         os    304    ccc     O1   8815 -0.11060000  16.000000   ; qtot -228.022990
; residue  305 ccc rtp ccc q -2.0
 8816         c3    305    ccc     C3   8816 -0.04070000  12.010000   ; qtot -228.063690
 8817         h1    305    ccc     H5   8817 0.04610000   1.008000   ; qtot -228.017590
 8818         h1    305    ccc     H6   8818 0.04610000   1.008000   ; qtot -227.971490
 8819         c3    305    ccc     C2   8819 -0.02540000  12.010000   ; qtot -227.996890
 8820         hc    305    ccc     H3   8820 0.00850000   1.008000   ; qtot -227.988390
 8821         hc    305    ccc     H4   8821 0.00850000   1.008000   ; qtot -227.979890
 8822         c3    305    ccc     C1   8822 0.60210000  12.010000   ; qtot -227.377790
 8823         h1    305    ccc     H1   8823 -0.09250000   1.008000   ; qtot -227.470290
 8824         h1    305    ccc     H2   8824 -0.09250000   1.008000   ; qtot -227.562790
 8825         n3    305    ccc     N1   8825 -0.59700000  14.010000   ; qtot -228.159790
 8826         c3    305    ccc     C4   8826 0.32800000  12.010000   ; qtot -227.831790
 8827         h1    305    ccc     H7   8827 -0.07120000   1.008000   ; qtot -227.902990
 8828         h1    305    ccc     H8   8828 -0.07120000   1.008000   ; qtot -227.974190
 8829         c3    305    ccc     C5   8829 -0.39330000  12.010000   ; qtot -228.367490
 8830         hc    305    ccc     H9   8830 0.08130000   1.008000   ; qtot -228.286190
 8831         hc    305    ccc    H10   8831 0.08130000   1.008000   ; qtot -228.204890
 8832          c    305    ccc     C6   8832 1.08970000  12.010000   ; qtot -227.115190
 8833          o    305    ccc     O2   8833 -0.96050000  16.000000   ; qtot -228.075690
 8834          o    305    ccc     O3   8834 -0.96050000  16.000000   ; qtot -229.036190
 8835         c3    305    ccc     C7   8835 0.32800000  12.010000   ; qtot -228.708190
 8836         h1    305    ccc    H11   8836 -0.07120000   1.008000   ; qtot -228.779390
 8837         h1    305    ccc    H12   8837 -0.07120000   1.008000   ; qtot -228.850590
 8838         c3    305    ccc     C8   8838 -0.39330000  12.010000   ; qtot -229.243890
 8839         hc    305    ccc    H13   8839 0.08130000   1.008000   ; qtot -229.162590
 8840         hc    305    ccc    H14   8840 0.08130000   1.008000   ; qtot -229.081290
 8841          c    305    ccc     C9   8841 1.08970000  12.010000   ; qtot -227.991590
 8842          o    305    ccc     O4   8842 -0.96050000  16.000000   ; qtot -228.952090
 8843          o    305    ccc     O5   8843 -0.96050000  16.000000   ; qtot -229.912590
 8844         os    305    ccc     O1   8844 -0.11060000  16.000000   ; qtot -230.023190
; residue  306 ccc rtp ccc q -2.0
 8845         c3    306    ccc     C3   8845 -0.04070000  12.010000   ; qtot -230.063890
 8846         h1    306    ccc     H5   8846 0.04610000   1.008000   ; qtot -230.017790
 8847         h1    306    ccc     H6   8847 0.04610000   1.008000   ; qtot -229.971690
 8848         c3    306    ccc     C2   8848 -0.02540000  12.010000   ; qtot -229.997090
 8849         hc    306    ccc     H3   8849 0.00850000   1.008000   ; qtot -229.988590
 8850         hc    306    ccc     H4   8850 0.00850000   1.008000   ; qtot -229.980090
 8851         c3    306    ccc     C1   8851 0.60210000  12.010000   ; qtot -229.377990
 8852         h1    306    ccc     H1   8852 -0.09250000   1.008000   ; qtot -229.470490
 8853         h1    306    ccc     H2   8853 -0.09250000   1.008000   ; qtot -229.562990
 8854         n3    306    ccc     N1   8854 -0.59700000  14.010000   ; qtot -230.159990
 8855         c3    306    ccc     C4   8855 0.32800000  12.010000   ; qtot -229.831990
 8856         h1    306    ccc     H7   8856 -0.07120000   1.008000   ; qtot -229.903190
 8857         h1    306    ccc     H8   8857 -0.07120000   1.008000   ; qtot -229.974390
 8858         c3    306    ccc     C5   8858 -0.39330000  12.010000   ; qtot -230.367690
 8859         hc    306    ccc     H9   8859 0.08130000   1.008000   ; qtot -230.286390
 8860         hc    306    ccc    H10   8860 0.08130000   1.008000   ; qtot -230.205090
 8861          c    306    ccc     C6   8861 1.08970000  12.010000   ; qtot -229.115390
 8862          o    306    ccc     O2   8862 -0.96050000  16.000000   ; qtot -230.075890
 8863          o    306    ccc     O3   8863 -0.96050000  16.000000   ; qtot -231.036390
 8864         c3    306    ccc     C7   8864 0.32800000  12.010000   ; qtot -230.708390
 8865         h1    306    ccc    H11   8865 -0.07120000   1.008000   ; qtot -230.779590
 8866         h1    306    ccc    H12   8866 -0.07120000   1.008000   ; qtot -230.850790
 8867         c3    306    ccc     C8   8867 -0.39330000  12.010000   ; qtot -231.244090
 8868         hc    306    ccc    H13   8868 0.08130000   1.008000   ; qtot -231.162790
 8869         hc    306    ccc    H14   8869 0.08130000   1.008000   ; qtot -231.081490
 8870          c    306    ccc     C9   8870 1.08970000  12.010000   ; qtot -229.991790
 8871          o    306    ccc     O4   8871 -0.96050000  16.000000   ; qtot -230.952290
 8872          o    306    ccc     O5   8872 -0.96050000  16.000000   ; qtot -231.912790
 8873         os    306    ccc     O1   8873 -0.11060000  16.000000   ; qtot -232.023390
; residue  307 ccc rtp ccc q -2.0
 8874         c3    307    ccc     C3   8874 -0.04070000  12.010000   ; qtot -232.064090
 8875         h1    307    ccc     H5   8875 0.04610000   1.008000   ; qtot -232.017990
 8876         h1    307    ccc     H6   8876 0.04610000   1.008000   ; qtot -231.971890
 8877         c3    307    ccc     C2   8877 -0.02540000  12.010000   ; qtot -231.997290
 8878         hc    307    ccc     H3   8878 0.00850000   1.008000   ; qtot -231.988790
 8879         hc    307    ccc     H4   8879 0.00850000   1.008000   ; qtot -231.980290
 8880         c3    307    ccc     C1   8880 0.60210000  12.010000   ; qtot -231.378190
 8881         h1    307    ccc     H1   8881 -0.09250000   1.008000   ; qtot -231.470690
 8882         h1    307    ccc     H2   8882 -0.09250000   1.008000   ; qtot -231.563190
 8883         n3    307    ccc     N1   8883 -0.59700000  14.010000   ; qtot -232.160190
 8884         c3    307    ccc     C4   8884 0.32800000  12.010000   ; qtot -231.832190
 8885         h1    307    ccc     H7   8885 -0.07120000   1.008000   ; qtot -231.903390
 8886         h1    307    ccc     H8   8886 -0.07120000   1.008000   ; qtot -231.974590
 8887         c3    307    ccc     C5   8887 -0.39330000  12.010000   ; qtot -232.367890
 8888         hc    307    ccc     H9   8888 0.08130000   1.008000   ; qtot -232.286590
 8889         hc    307    ccc    H10   8889 0.08130000   1.008000   ; qtot -232.205290
 8890          c    307    ccc     C6   8890 1.08970000  12.010000   ; qtot -231.115590
 8891          o    307    ccc     O2   8891 -0.96050000  16.000000   ; qtot -232.076090
 8892          o    307    ccc     O3   8892 -0.96050000  16.000000   ; qtot -233.036590
 8893         c3    307    ccc     C7   8893 0.32800000  12.010000   ; qtot -232.708590
 8894         h1    307    ccc    H11   8894 -0.07120000   1.008000   ; qtot -232.779790
 8895         h1    307    ccc    H12   8895 -0.07120000   1.008000   ; qtot -232.850990
 8896         c3    307    ccc     C8   8896 -0.39330000  12.010000   ; qtot -233.244290
 8897         hc    307    ccc    H13   8897 0.08130000   1.008000   ; qtot -233.162990
 8898         hc    307    ccc    H14   8898 0.08130000   1.008000   ; qtot -233.081690
 8899          c    307    ccc     C9   8899 1.08970000  12.010000   ; qtot -231.991990
 8900          o    307    ccc     O4   8900 -0.96050000  16.000000   ; qtot -232.952490
 8901          o    307    ccc     O5   8901 -0.96050000  16.000000   ; qtot -233.912990
 8902         os    307    ccc     O1   8902 -0.11060000  16.000000   ; qtot -234.023590
; residue  308 ccc rtp ccc q -2.0
 8903         c3    308    ccc     C3   8903 -0.04070000  12.010000   ; qtot -234.064290
 8904         h1    308    ccc     H5   8904 0.04610000   1.008000   ; qtot -234.018190
 8905         h1    308    ccc     H6   8905 0.04610000   1.008000   ; qtot -233.972090
 8906         c3    308    ccc     C2   8906 -0.02540000  12.010000   ; qtot -233.997490
 8907         hc    308    ccc     H3   8907 0.00850000   1.008000   ; qtot -233.988990
 8908         hc    308    ccc     H4   8908 0.00850000   1.008000   ; qtot -233.980490
 8909         c3    308    ccc     C1   8909 0.60210000  12.010000   ; qtot -233.378390
 8910         h1    308    ccc     H1   8910 -0.09250000   1.008000   ; qtot -233.470890
 8911         h1    308    ccc     H2   8911 -0.09250000   1.008000   ; qtot -233.563390
 8912         n3    308    ccc     N1   8912 -0.59700000  14.010000   ; qtot -234.160390
 8913         c3    308    ccc     C4   8913 0.32800000  12.010000   ; qtot -233.832390
 8914         h1    308    ccc     H7   8914 -0.07120000   1.008000   ; qtot -233.903590
 8915         h1    308    ccc     H8   8915 -0.07120000   1.008000   ; qtot -233.974790
 8916         c3    308    ccc     C5   8916 -0.39330000  12.010000   ; qtot -234.368090
 8917         hc    308    ccc     H9   8917 0.08130000   1.008000   ; qtot -234.286790
 8918         hc    308    ccc    H10   8918 0.08130000   1.008000   ; qtot -234.205490
 8919          c    308    ccc     C6   8919 1.08970000  12.010000   ; qtot -233.115790
 8920          o    308    ccc     O2   8920 -0.96050000  16.000000   ; qtot -234.076290
 8921          o    308    ccc     O3   8921 -0.96050000  16.000000   ; qtot -235.036790
 8922         c3    308    ccc     C7   8922 0.32800000  12.010000   ; qtot -234.708790
 8923         h1    308    ccc    H11   8923 -0.07120000   1.008000   ; qtot -234.779990
 8924         h1    308    ccc    H12   8924 -0.07120000   1.008000   ; qtot -234.851190
 8925         c3    308    ccc     C8   8925 -0.39330000  12.010000   ; qtot -235.244490
 8926         hc    308    ccc    H13   8926 0.08130000   1.008000   ; qtot -235.163190
 8927         hc    308    ccc    H14   8927 0.08130000   1.008000   ; qtot -235.081890
 8928          c    308    ccc     C9   8928 1.08970000  12.010000   ; qtot -233.992190
 8929          o    308    ccc     O4   8929 -0.96050000  16.000000   ; qtot -234.952690
 8930          o    308    ccc     O5   8930 -0.96050000  16.000000   ; qtot -235.913190
 8931         os    308    ccc     O1   8931 -0.11060000  16.000000   ; qtot -236.023790
; residue  309 ccc rtp ccc q -2.0
 8932         c3    309    ccc     C3   8932 -0.04070000  12.010000   ; qtot -236.064490
 8933         h1    309    ccc     H5   8933 0.04610000   1.008000   ; qtot -236.018390
 8934         h1    309    ccc     H6   8934 0.04610000   1.008000   ; qtot -235.972290
 8935         c3    309    ccc     C2   8935 -0.02540000  12.010000   ; qtot -235.997690
 8936         hc    309    ccc     H3   8936 0.00850000   1.008000   ; qtot -235.989190
 8937         hc    309    ccc     H4   8937 0.00850000   1.008000   ; qtot -235.980690
 8938         c3    309    ccc     C1   8938 0.60210000  12.010000   ; qtot -235.378590
 8939         h1    309    ccc     H1   8939 -0.09250000   1.008000   ; qtot -235.471090
 8940         h1    309    ccc     H2   8940 -0.09250000   1.008000   ; qtot -235.563590
 8941         n3    309    ccc     N1   8941 -0.59700000  14.010000   ; qtot -236.160590
 8942         c3    309    ccc     C4   8942 0.32800000  12.010000   ; qtot -235.832590
 8943         h1    309    ccc     H7   8943 -0.07120000   1.008000   ; qtot -235.903790
 8944         h1    309    ccc     H8   8944 -0.07120000   1.008000   ; qtot -235.974990
 8945         c3    309    ccc     C5   8945 -0.39330000  12.010000   ; qtot -236.368290
 8946         hc    309    ccc     H9   8946 0.08130000   1.008000   ; qtot -236.286990
 8947         hc    309    ccc    H10   8947 0.08130000   1.008000   ; qtot -236.205690
 8948          c    309    ccc     C6   8948 1.08970000  12.010000   ; qtot -235.115990
 8949          o    309    ccc     O2   8949 -0.96050000  16.000000   ; qtot -236.076490
 8950          o    309    ccc     O3   8950 -0.96050000  16.000000   ; qtot -237.036990
 8951         c3    309    ccc     C7   8951 0.32800000  12.010000   ; qtot -236.708990
 8952         h1    309    ccc    H11   8952 -0.07120000   1.008000   ; qtot -236.780190
 8953         h1    309    ccc    H12   8953 -0.07120000   1.008000   ; qtot -236.851390
 8954         c3    309    ccc     C8   8954 -0.39330000  12.010000   ; qtot -237.244690
 8955         hc    309    ccc    H13   8955 0.08130000   1.008000   ; qtot -237.163390
 8956         hc    309    ccc    H14   8956 0.08130000   1.008000   ; qtot -237.082090
 8957          c    309    ccc     C9   8957 1.08970000  12.010000   ; qtot -235.992390
 8958          o    309    ccc     O4   8958 -0.96050000  16.000000   ; qtot -236.952890
 8959          o    309    ccc     O5   8959 -0.96050000  16.000000   ; qtot -237.913390
 8960         os    309    ccc     O1   8960 -0.11060000  16.000000   ; qtot -238.023990
; residue  310 ccc rtp ccc q -2.0
 8961         c3    310    ccc     C3   8961 -0.04070000  12.010000   ; qtot -238.064690
 8962         h1    310    ccc     H5   8962 0.04610000   1.008000   ; qtot -238.018590
 8963         h1    310    ccc     H6   8963 0.04610000   1.008000   ; qtot -237.972490
 8964         c3    310    ccc     C2   8964 -0.02540000  12.010000   ; qtot -237.997890
 8965         hc    310    ccc     H3   8965 0.00850000   1.008000   ; qtot -237.989390
 8966         hc    310    ccc     H4   8966 0.00850000   1.008000   ; qtot -237.980890
 8967         c3    310    ccc     C1   8967 0.60210000  12.010000   ; qtot -237.378790
 8968         h1    310    ccc     H1   8968 -0.09250000   1.008000   ; qtot -237.471290
 8969         h1    310    ccc     H2   8969 -0.09250000   1.008000   ; qtot -237.563790
 8970         n3    310    ccc     N1   8970 -0.59700000  14.010000   ; qtot -238.160790
 8971         c3    310    ccc     C4   8971 0.32800000  12.010000   ; qtot -237.832790
 8972         h1    310    ccc     H7   8972 -0.07120000   1.008000   ; qtot -237.903990
 8973         h1    310    ccc     H8   8973 -0.07120000   1.008000   ; qtot -237.975190
 8974         c3    310    ccc     C5   8974 -0.39330000  12.010000   ; qtot -238.368490
 8975         hc    310    ccc     H9   8975 0.08130000   1.008000   ; qtot -238.287190
 8976         hc    310    ccc    H10   8976 0.08130000   1.008000   ; qtot -238.205890
 8977          c    310    ccc     C6   8977 1.08970000  12.010000   ; qtot -237.116190
 8978          o    310    ccc     O2   8978 -0.96050000  16.000000   ; qtot -238.076690
 8979          o    310    ccc     O3   8979 -0.96050000  16.000000   ; qtot -239.037190
 8980         c3    310    ccc     C7   8980 0.32800000  12.010000   ; qtot -238.709190
 8981         h1    310    ccc    H11   8981 -0.07120000   1.008000   ; qtot -238.780390
 8982         h1    310    ccc    H12   8982 -0.07120000   1.008000   ; qtot -238.851590
 8983         c3    310    ccc     C8   8983 -0.39330000  12.010000   ; qtot -239.244890
 8984         hc    310    ccc    H13   8984 0.08130000   1.008000   ; qtot -239.163590
 8985         hc    310    ccc    H14   8985 0.08130000   1.008000   ; qtot -239.082290
 8986          c    310    ccc     C9   8986 1.08970000  12.010000   ; qtot -237.992590
 8987          o    310    ccc     O4   8987 -0.96050000  16.000000   ; qtot -238.953090
 8988          o    310    ccc     O5   8988 -0.96050000  16.000000   ; qtot -239.913590
 8989         os    310    ccc     O1   8989 -0.11060000  16.000000   ; qtot -240.024190
; residue  311 ccc rtp ccc q -2.0
 8990         c3    311    ccc     C3   8990 -0.04070000  12.010000   ; qtot -240.064890
 8991         h1    311    ccc     H5   8991 0.04610000   1.008000   ; qtot -240.018790
 8992         h1    311    ccc     H6   8992 0.04610000   1.008000   ; qtot -239.972690
 8993         c3    311    ccc     C2   8993 -0.02540000  12.010000   ; qtot -239.998090
 8994         hc    311    ccc     H3   8994 0.00850000   1.008000   ; qtot -239.989590
 8995         hc    311    ccc     H4   8995 0.00850000   1.008000   ; qtot -239.981090
 8996         c3    311    ccc     C1   8996 0.60210000  12.010000   ; qtot -239.378990
 8997         h1    311    ccc     H1   8997 -0.09250000   1.008000   ; qtot -239.471490
 8998         h1    311    ccc     H2   8998 -0.09250000   1.008000   ; qtot -239.563990
 8999         n3    311    ccc     N1   8999 -0.59700000  14.010000   ; qtot -240.160990
 9000         c3    311    ccc     C4   9000 0.32800000  12.010000   ; qtot -239.832990
 9001         h1    311    ccc     H7   9001 -0.07120000   1.008000   ; qtot -239.904190
 9002         h1    311    ccc     H8   9002 -0.07120000   1.008000   ; qtot -239.975390
 9003         c3    311    ccc     C5   9003 -0.39330000  12.010000   ; qtot -240.368690
 9004         hc    311    ccc     H9   9004 0.08130000   1.008000   ; qtot -240.287390
 9005         hc    311    ccc    H10   9005 0.08130000   1.008000   ; qtot -240.206090
 9006          c    311    ccc     C6   9006 1.08970000  12.010000   ; qtot -239.116390
 9007          o    311    ccc     O2   9007 -0.96050000  16.000000   ; qtot -240.076890
 9008          o    311    ccc     O3   9008 -0.96050000  16.000000   ; qtot -241.037390
 9009         c3    311    ccc     C7   9009 0.32800000  12.010000   ; qtot -240.709390
 9010         h1    311    ccc    H11   9010 -0.07120000   1.008000   ; qtot -240.780590
 9011         h1    311    ccc    H12   9011 -0.07120000   1.008000   ; qtot -240.851790
 9012         c3    311    ccc     C8   9012 -0.39330000  12.010000   ; qtot -241.245090
 9013         hc    311    ccc    H13   9013 0.08130000   1.008000   ; qtot -241.163790
 9014         hc    311    ccc    H14   9014 0.08130000   1.008000   ; qtot -241.082490
 9015          c    311    ccc     C9   9015 1.08970000  12.010000   ; qtot -239.992790
 9016          o    311    ccc     O4   9016 -0.96050000  16.000000   ; qtot -240.953290
 9017          o    311    ccc     O5   9017 -0.96050000  16.000000   ; qtot -241.913790
 9018         os    311    ccc     O1   9018 -0.11060000  16.000000   ; qtot -242.024390
; residue  312 ccc rtp ccc q -2.0
 9019         c3    312    ccc     C3   9019 -0.04070000  12.010000   ; qtot -242.065090
 9020         h1    312    ccc     H5   9020 0.04610000   1.008000   ; qtot -242.018990
 9021         h1    312    ccc     H6   9021 0.04610000   1.008000   ; qtot -241.972890
 9022         c3    312    ccc     C2   9022 -0.02540000  12.010000   ; qtot -241.998290
 9023         hc    312    ccc     H3   9023 0.00850000   1.008000   ; qtot -241.989790
 9024         hc    312    ccc     H4   9024 0.00850000   1.008000   ; qtot -241.981290
 9025         c3    312    ccc     C1   9025 0.60210000  12.010000   ; qtot -241.379190
 9026         h1    312    ccc     H1   9026 -0.09250000   1.008000   ; qtot -241.471690
 9027         h1    312    ccc     H2   9027 -0.09250000   1.008000   ; qtot -241.564190
 9028         n3    312    ccc     N1   9028 -0.59700000  14.010000   ; qtot -242.161190
 9029         c3    312    ccc     C4   9029 0.32800000  12.010000   ; qtot -241.833190
 9030         h1    312    ccc     H7   9030 -0.07120000   1.008000   ; qtot -241.904390
 9031         h1    312    ccc     H8   9031 -0.07120000   1.008000   ; qtot -241.975590
 9032         c3    312    ccc     C5   9032 -0.39330000  12.010000   ; qtot -242.368890
 9033         hc    312    ccc     H9   9033 0.08130000   1.008000   ; qtot -242.287590
 9034         hc    312    ccc    H10   9034 0.08130000   1.008000   ; qtot -242.206290
 9035          c    312    ccc     C6   9035 1.08970000  12.010000   ; qtot -241.116590
 9036          o    312    ccc     O2   9036 -0.96050000  16.000000   ; qtot -242.077090
 9037          o    312    ccc     O3   9037 -0.96050000  16.000000   ; qtot -243.037590
 9038         c3    312    ccc     C7   9038 0.32800000  12.010000   ; qtot -242.709590
 9039         h1    312    ccc    H11   9039 -0.07120000   1.008000   ; qtot -242.780790
 9040         h1    312    ccc    H12   9040 -0.07120000   1.008000   ; qtot -242.851990
 9041         c3    312    ccc     C8   9041 -0.39330000  12.010000   ; qtot -243.245290
 9042         hc    312    ccc    H13   9042 0.08130000   1.008000   ; qtot -243.163990
 9043         hc    312    ccc    H14   9043 0.08130000   1.008000   ; qtot -243.082690
 9044          c    312    ccc     C9   9044 1.08970000  12.010000   ; qtot -241.992990
 9045          o    312    ccc     O4   9045 -0.96050000  16.000000   ; qtot -242.953490
 9046          o    312    ccc     O5   9046 -0.96050000  16.000000   ; qtot -243.913990
 9047         os    312    ccc     O1   9047 -0.11060000  16.000000   ; qtot -244.024590
; residue  313 ccc rtp ccc q -2.0
 9048         c3    313    ccc     C3   9048 -0.04070000  12.010000   ; qtot -244.065290
 9049         h1    313    ccc     H5   9049 0.04610000   1.008000   ; qtot -244.019190
 9050         h1    313    ccc     H6   9050 0.04610000   1.008000   ; qtot -243.973090
 9051         c3    313    ccc     C2   9051 -0.02540000  12.010000   ; qtot -243.998490
 9052         hc    313    ccc     H3   9052 0.00850000   1.008000   ; qtot -243.989990
 9053         hc    313    ccc     H4   9053 0.00850000   1.008000   ; qtot -243.981490
 9054         c3    313    ccc     C1   9054 0.60210000  12.010000   ; qtot -243.379390
 9055         h1    313    ccc     H1   9055 -0.09250000   1.008000   ; qtot -243.471890
 9056         h1    313    ccc     H2   9056 -0.09250000   1.008000   ; qtot -243.564390
 9057         n3    313    ccc     N1   9057 -0.59700000  14.010000   ; qtot -244.161390
 9058         c3    313    ccc     C4   9058 0.32800000  12.010000   ; qtot -243.833390
 9059         h1    313    ccc     H7   9059 -0.07120000   1.008000   ; qtot -243.904590
 9060         h1    313    ccc     H8   9060 -0.07120000   1.008000   ; qtot -243.975790
 9061         c3    313    ccc     C5   9061 -0.39330000  12.010000   ; qtot -244.369090
 9062         hc    313    ccc     H9   9062 0.08130000   1.008000   ; qtot -244.287790
 9063         hc    313    ccc    H10   9063 0.08130000   1.008000   ; qtot -244.206490
 9064          c    313    ccc     C6   9064 1.08970000  12.010000   ; qtot -243.116790
 9065          o    313    ccc     O2   9065 -0.96050000  16.000000   ; qtot -244.077290
 9066          o    313    ccc     O3   9066 -0.96050000  16.000000   ; qtot -245.037790
 9067         c3    313    ccc     C7   9067 0.32800000  12.010000   ; qtot -244.709790
 9068         h1    313    ccc    H11   9068 -0.07120000   1.008000   ; qtot -244.780990
 9069         h1    313    ccc    H12   9069 -0.07120000   1.008000   ; qtot -244.852190
 9070         c3    313    ccc     C8   9070 -0.39330000  12.010000   ; qtot -245.245490
 9071         hc    313    ccc    H13   9071 0.08130000   1.008000   ; qtot -245.164190
 9072         hc    313    ccc    H14   9072 0.08130000   1.008000   ; qtot -245.082890
 9073          c    313    ccc     C9   9073 1.08970000  12.010000   ; qtot -243.993190
 9074          o    313    ccc     O4   9074 -0.96050000  16.000000   ; qtot -244.953690
 9075          o    313    ccc     O5   9075 -0.96050000  16.000000   ; qtot -245.914190
 9076         os    313    ccc     O1   9076 -0.11060000  16.000000   ; qtot -246.024790
; residue  314 ccc rtp ccc q -2.0
 9077         c3    314    ccc     C3   9077 -0.04070000  12.010000   ; qtot -246.065490
 9078         h1    314    ccc     H5   9078 0.04610000   1.008000   ; qtot -246.019390
 9079         h1    314    ccc     H6   9079 0.04610000   1.008000   ; qtot -245.973290
 9080         c3    314    ccc     C2   9080 -0.02540000  12.010000   ; qtot -245.998690
 9081         hc    314    ccc     H3   9081 0.00850000   1.008000   ; qtot -245.990190
 9082         hc    314    ccc     H4   9082 0.00850000   1.008000   ; qtot -245.981690
 9083         c3    314    ccc     C1   9083 0.60210000  12.010000   ; qtot -245.379590
 9084         h1    314    ccc     H1   9084 -0.09250000   1.008000   ; qtot -245.472090
 9085         h1    314    ccc     H2   9085 -0.09250000   1.008000   ; qtot -245.564590
 9086         n3    314    ccc     N1   9086 -0.59700000  14.010000   ; qtot -246.161590
 9087         c3    314    ccc     C4   9087 0.32800000  12.010000   ; qtot -245.833590
 9088         h1    314    ccc     H7   9088 -0.07120000   1.008000   ; qtot -245.904790
 9089         h1    314    ccc     H8   9089 -0.07120000   1.008000   ; qtot -245.975990
 9090         c3    314    ccc     C5   9090 -0.39330000  12.010000   ; qtot -246.369290
 9091         hc    314    ccc     H9   9091 0.08130000   1.008000   ; qtot -246.287990
 9092         hc    314    ccc    H10   9092 0.08130000   1.008000   ; qtot -246.206690
 9093          c    314    ccc     C6   9093 1.08970000  12.010000   ; qtot -245.116990
 9094          o    314    ccc     O2   9094 -0.96050000  16.000000   ; qtot -246.077490
 9095          o    314    ccc     O3   9095 -0.96050000  16.000000   ; qtot -247.037990
 9096         c3    314    ccc     C7   9096 0.32800000  12.010000   ; qtot -246.709990
 9097         h1    314    ccc    H11   9097 -0.07120000   1.008000   ; qtot -246.781190
 9098         h1    314    ccc    H12   9098 -0.07120000   1.008000   ; qtot -246.852390
 9099         c3    314    ccc     C8   9099 -0.39330000  12.010000   ; qtot -247.245690
 9100         hc    314    ccc    H13   9100 0.08130000   1.008000   ; qtot -247.164390
 9101         hc    314    ccc    H14   9101 0.08130000   1.008000   ; qtot -247.083090
 9102          c    314    ccc     C9   9102 1.08970000  12.010000   ; qtot -245.993390
 9103          o    314    ccc     O4   9103 -0.96050000  16.000000   ; qtot -246.953890
 9104          o    314    ccc     O5   9104 -0.96050000  16.000000   ; qtot -247.914390
 9105         os    314    ccc     O1   9105 -0.11060000  16.000000   ; qtot -248.024990
; residue  315 ccc rtp ccc q -2.0
 9106         c3    315    ccc     C3   9106 -0.04070000  12.010000   ; qtot -248.065690
 9107         h1    315    ccc     H5   9107 0.04610000   1.008000   ; qtot -248.019590
 9108         h1    315    ccc     H6   9108 0.04610000   1.008000   ; qtot -247.973490
 9109         c3    315    ccc     C2   9109 -0.02540000  12.010000   ; qtot -247.998890
 9110         hc    315    ccc     H3   9110 0.00850000   1.008000   ; qtot -247.990390
 9111         hc    315    ccc     H4   9111 0.00850000   1.008000   ; qtot -247.981890
 9112         c3    315    ccc     C1   9112 0.60210000  12.010000   ; qtot -247.379790
 9113         h1    315    ccc     H1   9113 -0.09250000   1.008000   ; qtot -247.472290
 9114         h1    315    ccc     H2   9114 -0.09250000   1.008000   ; qtot -247.564790
 9115         n3    315    ccc     N1   9115 -0.59700000  14.010000   ; qtot -248.161790
 9116         c3    315    ccc     C4   9116 0.32800000  12.010000   ; qtot -247.833790
 9117         h1    315    ccc     H7   9117 -0.07120000   1.008000   ; qtot -247.904990
 9118         h1    315    ccc     H8   9118 -0.07120000   1.008000   ; qtot -247.976190
 9119         c3    315    ccc     C5   9119 -0.39330000  12.010000   ; qtot -248.369490
 9120         hc    315    ccc     H9   9120 0.08130000   1.008000   ; qtot -248.288190
 9121         hc    315    ccc    H10   9121 0.08130000   1.008000   ; qtot -248.206890
 9122          c    315    ccc     C6   9122 1.08970000  12.010000   ; qtot -247.117190
 9123          o    315    ccc     O2   9123 -0.96050000  16.000000   ; qtot -248.077690
 9124          o    315    ccc     O3   9124 -0.96050000  16.000000   ; qtot -249.038190
 9125         c3    315    ccc     C7   9125 0.32800000  12.010000   ; qtot -248.710190
 9126         h1    315    ccc    H11   9126 -0.07120000   1.008000   ; qtot -248.781390
 9127         h1    315    ccc    H12   9127 -0.07120000   1.008000   ; qtot -248.852590
 9128         c3    315    ccc     C8   9128 -0.39330000  12.010000   ; qtot -249.245890
 9129         hc    315    ccc    H13   9129 0.08130000   1.008000   ; qtot -249.164590
 9130         hc    315    ccc    H14   9130 0.08130000   1.008000   ; qtot -249.083290
 9131          c    315    ccc     C9   9131 1.08970000  12.010000   ; qtot -247.993590
 9132          o    315    ccc     O4   9132 -0.96050000  16.000000   ; qtot -248.954090
 9133          o    315    ccc     O5   9133 -0.96050000  16.000000   ; qtot -249.914590
 9134         os    315    ccc     O1   9134 -0.11060000  16.000000   ; qtot -250.025190
; residue  316 ccc rtp ccc q -2.0
 9135         c3    316    ccc     C3   9135 -0.04070000  12.010000   ; qtot -250.065890
 9136         h1    316    ccc     H5   9136 0.04610000   1.008000   ; qtot -250.019790
 9137         h1    316    ccc     H6   9137 0.04610000   1.008000   ; qtot -249.973690
 9138         c3    316    ccc     C2   9138 -0.02540000  12.010000   ; qtot -249.999090
 9139         hc    316    ccc     H3   9139 0.00850000   1.008000   ; qtot -249.990590
 9140         hc    316    ccc     H4   9140 0.00850000   1.008000   ; qtot -249.982090
 9141         c3    316    ccc     C1   9141 0.60210000  12.010000   ; qtot -249.379990
 9142         h1    316    ccc     H1   9142 -0.09250000   1.008000   ; qtot -249.472490
 9143         h1    316    ccc     H2   9143 -0.09250000   1.008000   ; qtot -249.564990
 9144         n3    316    ccc     N1   9144 -0.59700000  14.010000   ; qtot -250.161990
 9145         c3    316    ccc     C4   9145 0.32800000  12.010000   ; qtot -249.833990
 9146         h1    316    ccc     H7   9146 -0.07120000   1.008000   ; qtot -249.905190
 9147         h1    316    ccc     H8   9147 -0.07120000   1.008000   ; qtot -249.976390
 9148         c3    316    ccc     C5   9148 -0.39330000  12.010000   ; qtot -250.369690
 9149         hc    316    ccc     H9   9149 0.08130000   1.008000   ; qtot -250.288390
 9150         hc    316    ccc    H10   9150 0.08130000   1.008000   ; qtot -250.207090
 9151          c    316    ccc     C6   9151 1.08970000  12.010000   ; qtot -249.117390
 9152          o    316    ccc     O2   9152 -0.96050000  16.000000   ; qtot -250.077890
 9153          o    316    ccc     O3   9153 -0.96050000  16.000000   ; qtot -251.038390
 9154         c3    316    ccc     C7   9154 0.32800000  12.010000   ; qtot -250.710390
 9155         h1    316    ccc    H11   9155 -0.07120000   1.008000   ; qtot -250.781590
 9156         h1    316    ccc    H12   9156 -0.07120000   1.008000   ; qtot -250.852790
 9157         c3    316    ccc     C8   9157 -0.39330000  12.010000   ; qtot -251.246090
 9158         hc    316    ccc    H13   9158 0.08130000   1.008000   ; qtot -251.164790
 9159         hc    316    ccc    H14   9159 0.08130000   1.008000   ; qtot -251.083490
 9160          c    316    ccc     C9   9160 1.08970000  12.010000   ; qtot -249.993790
 9161          o    316    ccc     O4   9161 -0.96050000  16.000000   ; qtot -250.954290
 9162          o    316    ccc     O5   9162 -0.96050000  16.000000   ; qtot -251.914790
 9163         os    316    ccc     O1   9163 -0.11060000  16.000000   ; qtot -252.025390
; residue  317 ccc rtp ccc q -2.0
 9164         c3    317    ccc     C3   9164 -0.04070000  12.010000   ; qtot -252.066090
 9165         h1    317    ccc     H5   9165 0.04610000   1.008000   ; qtot -252.019990
 9166         h1    317    ccc     H6   9166 0.04610000   1.008000   ; qtot -251.973890
 9167         c3    317    ccc     C2   9167 -0.02540000  12.010000   ; qtot -251.999290
 9168         hc    317    ccc     H3   9168 0.00850000   1.008000   ; qtot -251.990790
 9169         hc    317    ccc     H4   9169 0.00850000   1.008000   ; qtot -251.982290
 9170         c3    317    ccc     C1   9170 0.60210000  12.010000   ; qtot -251.380190
 9171         h1    317    ccc     H1   9171 -0.09250000   1.008000   ; qtot -251.472690
 9172         h1    317    ccc     H2   9172 -0.09250000   1.008000   ; qtot -251.565190
 9173         n3    317    ccc     N1   9173 -0.59700000  14.010000   ; qtot -252.162190
 9174         c3    317    ccc     C4   9174 0.32800000  12.010000   ; qtot -251.834190
 9175         h1    317    ccc     H7   9175 -0.07120000   1.008000   ; qtot -251.905390
 9176         h1    317    ccc     H8   9176 -0.07120000   1.008000   ; qtot -251.976590
 9177         c3    317    ccc     C5   9177 -0.39330000  12.010000   ; qtot -252.369890
 9178         hc    317    ccc     H9   9178 0.08130000   1.008000   ; qtot -252.288590
 9179         hc    317    ccc    H10   9179 0.08130000   1.008000   ; qtot -252.207290
 9180          c    317    ccc     C6   9180 1.08970000  12.010000   ; qtot -251.117590
 9181          o    317    ccc     O2   9181 -0.96050000  16.000000   ; qtot -252.078090
 9182          o    317    ccc     O3   9182 -0.96050000  16.000000   ; qtot -253.038590
 9183         c3    317    ccc     C7   9183 0.32800000  12.010000   ; qtot -252.710590
 9184         h1    317    ccc    H11   9184 -0.07120000   1.008000   ; qtot -252.781790
 9185         h1    317    ccc    H12   9185 -0.07120000   1.008000   ; qtot -252.852990
 9186         c3    317    ccc     C8   9186 -0.39330000  12.010000   ; qtot -253.246290
 9187         hc    317    ccc    H13   9187 0.08130000   1.008000   ; qtot -253.164990
 9188         hc    317    ccc    H14   9188 0.08130000   1.008000   ; qtot -253.083690
 9189          c    317    ccc     C9   9189 1.08970000  12.010000   ; qtot -251.993990
 9190          o    317    ccc     O4   9190 -0.96050000  16.000000   ; qtot -252.954490
 9191          o    317    ccc     O5   9191 -0.96050000  16.000000   ; qtot -253.914990
 9192         os    317    ccc     O1   9192 -0.11060000  16.000000   ; qtot -254.025590
; residue  318 ccc rtp ccc q -2.0
 9193         c3    318    ccc     C3   9193 -0.04070000  12.010000   ; qtot -254.066290
 9194         h1    318    ccc     H5   9194 0.04610000   1.008000   ; qtot -254.020190
 9195         h1    318    ccc     H6   9195 0.04610000   1.008000   ; qtot -253.974090
 9196         c3    318    ccc     C2   9196 -0.02540000  12.010000   ; qtot -253.999490
 9197         hc    318    ccc     H3   9197 0.00850000   1.008000   ; qtot -253.990990
 9198         hc    318    ccc     H4   9198 0.00850000   1.008000   ; qtot -253.982490
 9199         c3    318    ccc     C1   9199 0.60210000  12.010000   ; qtot -253.380390
 9200         h1    318    ccc     H1   9200 -0.09250000   1.008000   ; qtot -253.472890
 9201         h1    318    ccc     H2   9201 -0.09250000   1.008000   ; qtot -253.565390
 9202         n3    318    ccc     N1   9202 -0.59700000  14.010000   ; qtot -254.162390
 9203         c3    318    ccc     C4   9203 0.32800000  12.010000   ; qtot -253.834390
 9204         h1    318    ccc     H7   9204 -0.07120000   1.008000   ; qtot -253.905590
 9205         h1    318    ccc     H8   9205 -0.07120000   1.008000   ; qtot -253.976790
 9206         c3    318    ccc     C5   9206 -0.39330000  12.010000   ; qtot -254.370090
 9207         hc    318    ccc     H9   9207 0.08130000   1.008000   ; qtot -254.288790
 9208         hc    318    ccc    H10   9208 0.08130000   1.008000   ; qtot -254.207490
 9209          c    318    ccc     C6   9209 1.08970000  12.010000   ; qtot -253.117790
 9210          o    318    ccc     O2   9210 -0.96050000  16.000000   ; qtot -254.078290
 9211          o    318    ccc     O3   9211 -0.96050000  16.000000   ; qtot -255.038790
 9212         c3    318    ccc     C7   9212 0.32800000  12.010000   ; qtot -254.710790
 9213         h1    318    ccc    H11   9213 -0.07120000   1.008000   ; qtot -254.781990
 9214         h1    318    ccc    H12   9214 -0.07120000   1.008000   ; qtot -254.853190
 9215         c3    318    ccc     C8   9215 -0.39330000  12.010000   ; qtot -255.246490
 9216         hc    318    ccc    H13   9216 0.08130000   1.008000   ; qtot -255.165190
 9217         hc    318    ccc    H14   9217 0.08130000   1.008000   ; qtot -255.083890
 9218          c    318    ccc     C9   9218 1.08970000  12.010000   ; qtot -253.994190
 9219          o    318    ccc     O4   9219 -0.96050000  16.000000   ; qtot -254.954690
 9220          o    318    ccc     O5   9220 -0.96050000  16.000000   ; qtot -255.915190
 9221         os    318    ccc     O1   9221 -0.11060000  16.000000   ; qtot -256.025790
; residue  319 ccc rtp ccc q -2.0
 9222         c3    319    ccc     C3   9222 -0.04070000  12.010000   ; qtot -256.066490
 9223         h1    319    ccc     H5   9223 0.04610000   1.008000   ; qtot -256.020390
 9224         h1    319    ccc     H6   9224 0.04610000   1.008000   ; qtot -255.974290
 9225         c3    319    ccc     C2   9225 -0.02540000  12.010000   ; qtot -255.999690
 9226         hc    319    ccc     H3   9226 0.00850000   1.008000   ; qtot -255.991190
 9227         hc    319    ccc     H4   9227 0.00850000   1.008000   ; qtot -255.982690
 9228         c3    319    ccc     C1   9228 0.60210000  12.010000   ; qtot -255.380590
 9229         h1    319    ccc     H1   9229 -0.09250000   1.008000   ; qtot -255.473090
 9230         h1    319    ccc     H2   9230 -0.09250000   1.008000   ; qtot -255.565590
 9231         n3    319    ccc     N1   9231 -0.59700000  14.010000   ; qtot -256.162590
 9232         c3    319    ccc     C4   9232 0.32800000  12.010000   ; qtot -255.834590
 9233         h1    319    ccc     H7   9233 -0.07120000   1.008000   ; qtot -255.905790
 9234         h1    319    ccc     H8   9234 -0.07120000   1.008000   ; qtot -255.976990
 9235         c3    319    ccc     C5   9235 -0.39330000  12.010000   ; qtot -256.370290
 9236         hc    319    ccc     H9   9236 0.08130000   1.008000   ; qtot -256.288990
 9237         hc    319    ccc    H10   9237 0.08130000   1.008000   ; qtot -256.207690
 9238          c    319    ccc     C6   9238 1.08970000  12.010000   ; qtot -255.117990
 9239          o    319    ccc     O2   9239 -0.96050000  16.000000   ; qtot -256.078490
 9240          o    319    ccc     O3   9240 -0.96050000  16.000000   ; qtot -257.038990
 9241         c3    319    ccc     C7   9241 0.32800000  12.010000   ; qtot -256.710990
 9242         h1    319    ccc    H11   9242 -0.07120000   1.008000   ; qtot -256.782190
 9243         h1    319    ccc    H12   9243 -0.07120000   1.008000   ; qtot -256.853390
 9244         c3    319    ccc     C8   9244 -0.39330000  12.010000   ; qtot -257.246690
 9245         hc    319    ccc    H13   9245 0.08130000   1.008000   ; qtot -257.165390
 9246         hc    319    ccc    H14   9246 0.08130000   1.008000   ; qtot -257.084090
 9247          c    319    ccc     C9   9247 1.08970000  12.010000   ; qtot -255.994390
 9248          o    319    ccc     O4   9248 -0.96050000  16.000000   ; qtot -256.954890
 9249          o    319    ccc     O5   9249 -0.96050000  16.000000   ; qtot -257.915390
 9250         os    319    ccc     O1   9250 -0.11060000  16.000000   ; qtot -258.025990
; residue  320 ccc rtp ccc q -2.0
 9251         c3    320    ccc     C3   9251 -0.04070000  12.010000   ; qtot -258.066690
 9252         h1    320    ccc     H5   9252 0.04610000   1.008000   ; qtot -258.020590
 9253         h1    320    ccc     H6   9253 0.04610000   1.008000   ; qtot -257.974490
 9254         c3    320    ccc     C2   9254 -0.02540000  12.010000   ; qtot -257.999890
 9255         hc    320    ccc     H3   9255 0.00850000   1.008000   ; qtot -257.991390
 9256         hc    320    ccc     H4   9256 0.00850000   1.008000   ; qtot -257.982890
 9257         c3    320    ccc     C1   9257 0.60210000  12.010000   ; qtot -257.380790
 9258         h1    320    ccc     H1   9258 -0.09250000   1.008000   ; qtot -257.473290
 9259         h1    320    ccc     H2   9259 -0.09250000   1.008000   ; qtot -257.565790
 9260         n3    320    ccc     N1   9260 -0.59700000  14.010000   ; qtot -258.162790
 9261         c3    320    ccc     C4   9261 0.32800000  12.010000   ; qtot -257.834790
 9262         h1    320    ccc     H7   9262 -0.07120000   1.008000   ; qtot -257.905990
 9263         h1    320    ccc     H8   9263 -0.07120000   1.008000   ; qtot -257.977190
 9264         c3    320    ccc     C5   9264 -0.39330000  12.010000   ; qtot -258.370490
 9265         hc    320    ccc     H9   9265 0.08130000   1.008000   ; qtot -258.289190
 9266         hc    320    ccc    H10   9266 0.08130000   1.008000   ; qtot -258.207890
 9267          c    320    ccc     C6   9267 1.08970000  12.010000   ; qtot -257.118190
 9268          o    320    ccc     O2   9268 -0.96050000  16.000000   ; qtot -258.078690
 9269          o    320    ccc     O3   9269 -0.96050000  16.000000   ; qtot -259.039190
 9270         c3    320    ccc     C7   9270 0.32800000  12.010000   ; qtot -258.711190
 9271         h1    320    ccc    H11   9271 -0.07120000   1.008000   ; qtot -258.782390
 9272         h1    320    ccc    H12   9272 -0.07120000   1.008000   ; qtot -258.853590
 9273         c3    320    ccc     C8   9273 -0.39330000  12.010000   ; qtot -259.246890
 9274         hc    320    ccc    H13   9274 0.08130000   1.008000   ; qtot -259.165590
 9275         hc    320    ccc    H14   9275 0.08130000   1.008000   ; qtot -259.084290
 9276          c    320    ccc     C9   9276 1.08970000  12.010000   ; qtot -257.994590
 9277          o    320    ccc     O4   9277 -0.96050000  16.000000   ; qtot -258.955090
 9278          o    320    ccc     O5   9278 -0.96050000  16.000000   ; qtot -259.915590
 9279         os    320    ccc     O1   9279 -0.11060000  16.000000   ; qtot -260.026190
; residue  321 ccc rtp ccc q -2.0
 9280         c3    321    ccc     C3   9280 -0.04070000  12.010000   ; qtot -260.066890
 9281         h1    321    ccc     H5   9281 0.04610000   1.008000   ; qtot -260.020790
 9282         h1    321    ccc     H6   9282 0.04610000   1.008000   ; qtot -259.974690
 9283         c3    321    ccc     C2   9283 -0.02540000  12.010000   ; qtot -260.000090
 9284         hc    321    ccc     H3   9284 0.00850000   1.008000   ; qtot -259.991590
 9285         hc    321    ccc     H4   9285 0.00850000   1.008000   ; qtot -259.983090
 9286         c3    321    ccc     C1   9286 0.60210000  12.010000   ; qtot -259.380990
 9287         h1    321    ccc     H1   9287 -0.09250000   1.008000   ; qtot -259.473490
 9288         h1    321    ccc     H2   9288 -0.09250000   1.008000   ; qtot -259.565990
 9289         n3    321    ccc     N1   9289 -0.59700000  14.010000   ; qtot -260.162990
 9290         c3    321    ccc     C4   9290 0.32800000  12.010000   ; qtot -259.834990
 9291         h1    321    ccc     H7   9291 -0.07120000   1.008000   ; qtot -259.906190
 9292         h1    321    ccc     H8   9292 -0.07120000   1.008000   ; qtot -259.977390
 9293         c3    321    ccc     C5   9293 -0.39330000  12.010000   ; qtot -260.370690
 9294         hc    321    ccc     H9   9294 0.08130000   1.008000   ; qtot -260.289390
 9295         hc    321    ccc    H10   9295 0.08130000   1.008000   ; qtot -260.208090
 9296          c    321    ccc     C6   9296 1.08970000  12.010000   ; qtot -259.118390
 9297          o    321    ccc     O2   9297 -0.96050000  16.000000   ; qtot -260.078890
 9298          o    321    ccc     O3   9298 -0.96050000  16.000000   ; qtot -261.039390
 9299         c3    321    ccc     C7   9299 0.32800000  12.010000   ; qtot -260.711390
 9300         h1    321    ccc    H11   9300 -0.07120000   1.008000   ; qtot -260.782590
 9301         h1    321    ccc    H12   9301 -0.07120000   1.008000   ; qtot -260.853790
 9302         c3    321    ccc     C8   9302 -0.39330000  12.010000   ; qtot -261.247090
 9303         hc    321    ccc    H13   9303 0.08130000   1.008000   ; qtot -261.165790
 9304         hc    321    ccc    H14   9304 0.08130000   1.008000   ; qtot -261.084490
 9305          c    321    ccc     C9   9305 1.08970000  12.010000   ; qtot -259.994790
 9306          o    321    ccc     O4   9306 -0.96050000  16.000000   ; qtot -260.955290
 9307          o    321    ccc     O5   9307 -0.96050000  16.000000   ; qtot -261.915790
 9308         os    321    ccc     O1   9308 -0.11060000  16.000000   ; qtot -262.026390
; residue  322 ccc rtp ccc q -2.0
 9309         c3    322    ccc     C3   9309 -0.04070000  12.010000   ; qtot -262.067090
 9310         h1    322    ccc     H5   9310 0.04610000   1.008000   ; qtot -262.020990
 9311         h1    322    ccc     H6   9311 0.04610000   1.008000   ; qtot -261.974890
 9312         c3    322    ccc     C2   9312 -0.02540000  12.010000   ; qtot -262.000290
 9313         hc    322    ccc     H3   9313 0.00850000   1.008000   ; qtot -261.991790
 9314         hc    322    ccc     H4   9314 0.00850000   1.008000   ; qtot -261.983290
 9315         c3    322    ccc     C1   9315 0.60210000  12.010000   ; qtot -261.381190
 9316         h1    322    ccc     H1   9316 -0.09250000   1.008000   ; qtot -261.473690
 9317         h1    322    ccc     H2   9317 -0.09250000   1.008000   ; qtot -261.566190
 9318         n3    322    ccc     N1   9318 -0.59700000  14.010000   ; qtot -262.163190
 9319         c3    322    ccc     C4   9319 0.32800000  12.010000   ; qtot -261.835190
 9320         h1    322    ccc     H7   9320 -0.07120000   1.008000   ; qtot -261.906390
 9321         h1    322    ccc     H8   9321 -0.07120000   1.008000   ; qtot -261.977590
 9322         c3    322    ccc     C5   9322 -0.39330000  12.010000   ; qtot -262.370890
 9323         hc    322    ccc     H9   9323 0.08130000   1.008000   ; qtot -262.289590
 9324         hc    322    ccc    H10   9324 0.08130000   1.008000   ; qtot -262.208290
 9325          c    322    ccc     C6   9325 1.08970000  12.010000   ; qtot -261.118590
 9326          o    322    ccc     O2   9326 -0.96050000  16.000000   ; qtot -262.079090
 9327          o    322    ccc     O3   9327 -0.96050000  16.000000   ; qtot -263.039590
 9328         c3    322    ccc     C7   9328 0.32800000  12.010000   ; qtot -262.711590
 9329         h1    322    ccc    H11   9329 -0.07120000   1.008000   ; qtot -262.782790
 9330         h1    322    ccc    H12   9330 -0.07120000   1.008000   ; qtot -262.853990
 9331         c3    322    ccc     C8   9331 -0.39330000  12.010000   ; qtot -263.247290
 9332         hc    322    ccc    H13   9332 0.08130000   1.008000   ; qtot -263.165990
 9333         hc    322    ccc    H14   9333 0.08130000   1.008000   ; qtot -263.084690
 9334          c    322    ccc     C9   9334 1.08970000  12.010000   ; qtot -261.994990
 9335          o    322    ccc     O4   9335 -0.96050000  16.000000   ; qtot -262.955490
 9336          o    322    ccc     O5   9336 -0.96050000  16.000000   ; qtot -263.915990
 9337         os    322    ccc     O1   9337 -0.11060000  16.000000   ; qtot -264.026590
; residue  323 ccc rtp ccc q -2.0
 9338         c3    323    ccc     C3   9338 -0.04070000  12.010000   ; qtot -264.067290
 9339         h1    323    ccc     H5   9339 0.04610000   1.008000   ; qtot -264.021190
 9340         h1    323    ccc     H6   9340 0.04610000   1.008000   ; qtot -263.975090
 9341         c3    323    ccc     C2   9341 -0.02540000  12.010000   ; qtot -264.000490
 9342         hc    323    ccc     H3   9342 0.00850000   1.008000   ; qtot -263.991990
 9343         hc    323    ccc     H4   9343 0.00850000   1.008000   ; qtot -263.983490
 9344         c3    323    ccc     C1   9344 0.60210000  12.010000   ; qtot -263.381390
 9345         h1    323    ccc     H1   9345 -0.09250000   1.008000   ; qtot -263.473890
 9346         h1    323    ccc     H2   9346 -0.09250000   1.008000   ; qtot -263.566390
 9347         n3    323    ccc     N1   9347 -0.59700000  14.010000   ; qtot -264.163390
 9348         c3    323    ccc     C4   9348 0.32800000  12.010000   ; qtot -263.835390
 9349         h1    323    ccc     H7   9349 -0.07120000   1.008000   ; qtot -263.906590
 9350         h1    323    ccc     H8   9350 -0.07120000   1.008000   ; qtot -263.977790
 9351         c3    323    ccc     C5   9351 -0.39330000  12.010000   ; qtot -264.371090
 9352         hc    323    ccc     H9   9352 0.08130000   1.008000   ; qtot -264.289790
 9353         hc    323    ccc    H10   9353 0.08130000   1.008000   ; qtot -264.208490
 9354          c    323    ccc     C6   9354 1.08970000  12.010000   ; qtot -263.118790
 9355          o    323    ccc     O2   9355 -0.96050000  16.000000   ; qtot -264.079290
 9356          o    323    ccc     O3   9356 -0.96050000  16.000000   ; qtot -265.039790
 9357         c3    323    ccc     C7   9357 0.32800000  12.010000   ; qtot -264.711790
 9358         h1    323    ccc    H11   9358 -0.07120000   1.008000   ; qtot -264.782990
 9359         h1    323    ccc    H12   9359 -0.07120000   1.008000   ; qtot -264.854190
 9360         c3    323    ccc     C8   9360 -0.39330000  12.010000   ; qtot -265.247490
 9361         hc    323    ccc    H13   9361 0.08130000   1.008000   ; qtot -265.166190
 9362         hc    323    ccc    H14   9362 0.08130000   1.008000   ; qtot -265.084890
 9363          c    323    ccc     C9   9363 1.08970000  12.010000   ; qtot -263.995190
 9364          o    323    ccc     O4   9364 -0.96050000  16.000000   ; qtot -264.955690
 9365          o    323    ccc     O5   9365 -0.96050000  16.000000   ; qtot -265.916190
 9366         os    323    ccc     O1   9366 -0.11060000  16.000000   ; qtot -266.026790
; residue  324 ccc rtp ccc q -2.0
 9367         c3    324    ccc     C3   9367 -0.04070000  12.010000   ; qtot -266.067490
 9368         h1    324    ccc     H5   9368 0.04610000   1.008000   ; qtot -266.021390
 9369         h1    324    ccc     H6   9369 0.04610000   1.008000   ; qtot -265.975290
 9370         c3    324    ccc     C2   9370 -0.02540000  12.010000   ; qtot -266.000690
 9371         hc    324    ccc     H3   9371 0.00850000   1.008000   ; qtot -265.992190
 9372         hc    324    ccc     H4   9372 0.00850000   1.008000   ; qtot -265.983690
 9373         c3    324    ccc     C1   9373 0.60210000  12.010000   ; qtot -265.381590
 9374         h1    324    ccc     H1   9374 -0.09250000   1.008000   ; qtot -265.474090
 9375         h1    324    ccc     H2   9375 -0.09250000   1.008000   ; qtot -265.566590
 9376         n3    324    ccc     N1   9376 -0.59700000  14.010000   ; qtot -266.163590
 9377         c3    324    ccc     C4   9377 0.32800000  12.010000   ; qtot -265.835590
 9378         h1    324    ccc     H7   9378 -0.07120000   1.008000   ; qtot -265.906790
 9379         h1    324    ccc     H8   9379 -0.07120000   1.008000   ; qtot -265.977990
 9380         c3    324    ccc     C5   9380 -0.39330000  12.010000   ; qtot -266.371290
 9381         hc    324    ccc     H9   9381 0.08130000   1.008000   ; qtot -266.289990
 9382         hc    324    ccc    H10   9382 0.08130000   1.008000   ; qtot -266.208690
 9383          c    324    ccc     C6   9383 1.08970000  12.010000   ; qtot -265.118990
 9384          o    324    ccc     O2   9384 -0.96050000  16.000000   ; qtot -266.079490
 9385          o    324    ccc     O3   9385 -0.96050000  16.000000   ; qtot -267.039990
 9386         c3    324    ccc     C7   9386 0.32800000  12.010000   ; qtot -266.711990
 9387         h1    324    ccc    H11   9387 -0.07120000   1.008000   ; qtot -266.783190
 9388         h1    324    ccc    H12   9388 -0.07120000   1.008000   ; qtot -266.854390
 9389         c3    324    ccc     C8   9389 -0.39330000  12.010000   ; qtot -267.247690
 9390         hc    324    ccc    H13   9390 0.08130000   1.008000   ; qtot -267.166390
 9391         hc    324    ccc    H14   9391 0.08130000   1.008000   ; qtot -267.085090
 9392          c    324    ccc     C9   9392 1.08970000  12.010000   ; qtot -265.995390
 9393          o    324    ccc     O4   9393 -0.96050000  16.000000   ; qtot -266.955890
 9394          o    324    ccc     O5   9394 -0.96050000  16.000000   ; qtot -267.916390
 9395         os    324    ccc     O1   9395 -0.11060000  16.000000   ; qtot -268.026990
; residue  325 ccc rtp ccc q -2.0
 9396         c3    325    ccc     C3   9396 -0.04070000  12.010000   ; qtot -268.067690
 9397         h1    325    ccc     H5   9397 0.04610000   1.008000   ; qtot -268.021590
 9398         h1    325    ccc     H6   9398 0.04610000   1.008000   ; qtot -267.975490
 9399         c3    325    ccc     C2   9399 -0.02540000  12.010000   ; qtot -268.000890
 9400         hc    325    ccc     H3   9400 0.00850000   1.008000   ; qtot -267.992390
 9401         hc    325    ccc     H4   9401 0.00850000   1.008000   ; qtot -267.983890
 9402         c3    325    ccc     C1   9402 0.60210000  12.010000   ; qtot -267.381790
 9403         h1    325    ccc     H1   9403 -0.09250000   1.008000   ; qtot -267.474290
 9404         h1    325    ccc     H2   9404 -0.09250000   1.008000   ; qtot -267.566790
 9405         n3    325    ccc     N1   9405 -0.59700000  14.010000   ; qtot -268.163790
 9406         c3    325    ccc     C4   9406 0.32800000  12.010000   ; qtot -267.835790
 9407         h1    325    ccc     H7   9407 -0.07120000   1.008000   ; qtot -267.906990
 9408         h1    325    ccc     H8   9408 -0.07120000   1.008000   ; qtot -267.978190
 9409         c3    325    ccc     C5   9409 -0.39330000  12.010000   ; qtot -268.371490
 9410         hc    325    ccc     H9   9410 0.08130000   1.008000   ; qtot -268.290190
 9411         hc    325    ccc    H10   9411 0.08130000   1.008000   ; qtot -268.208890
 9412          c    325    ccc     C6   9412 1.08970000  12.010000   ; qtot -267.119190
 9413          o    325    ccc     O2   9413 -0.96050000  16.000000   ; qtot -268.079690
 9414          o    325    ccc     O3   9414 -0.96050000  16.000000   ; qtot -269.040190
 9415         c3    325    ccc     C7   9415 0.32800000  12.010000   ; qtot -268.712190
 9416         h1    325    ccc    H11   9416 -0.07120000   1.008000   ; qtot -268.783390
 9417         h1    325    ccc    H12   9417 -0.07120000   1.008000   ; qtot -268.854590
 9418         c3    325    ccc     C8   9418 -0.39330000  12.010000   ; qtot -269.247890
 9419         hc    325    ccc    H13   9419 0.08130000   1.008000   ; qtot -269.166590
 9420         hc    325    ccc    H14   9420 0.08130000   1.008000   ; qtot -269.085290
 9421          c    325    ccc     C9   9421 1.08970000  12.010000   ; qtot -267.995590
 9422          o    325    ccc     O4   9422 -0.96050000  16.000000   ; qtot -268.956090
 9423          o    325    ccc     O5   9423 -0.96050000  16.000000   ; qtot -269.916590
 9424         os    325    ccc     O1   9424 -0.11060000  16.000000   ; qtot -270.027190
; residue  326 ccc rtp ccc q -2.0
 9425         c3    326    ccc     C3   9425 -0.04070000  12.010000   ; qtot -270.067890
 9426         h1    326    ccc     H5   9426 0.04610000   1.008000   ; qtot -270.021790
 9427         h1    326    ccc     H6   9427 0.04610000   1.008000   ; qtot -269.975690
 9428         c3    326    ccc     C2   9428 -0.02540000  12.010000   ; qtot -270.001090
 9429         hc    326    ccc     H3   9429 0.00850000   1.008000   ; qtot -269.992590
 9430         hc    326    ccc     H4   9430 0.00850000   1.008000   ; qtot -269.984090
 9431         c3    326    ccc     C1   9431 0.60210000  12.010000   ; qtot -269.381990
 9432         h1    326    ccc     H1   9432 -0.09250000   1.008000   ; qtot -269.474490
 9433         h1    326    ccc     H2   9433 -0.09250000   1.008000   ; qtot -269.566990
 9434         n3    326    ccc     N1   9434 -0.59700000  14.010000   ; qtot -270.163990
 9435         c3    326    ccc     C4   9435 0.32800000  12.010000   ; qtot -269.835990
 9436         h1    326    ccc     H7   9436 -0.07120000   1.008000   ; qtot -269.907190
 9437         h1    326    ccc     H8   9437 -0.07120000   1.008000   ; qtot -269.978390
 9438         c3    326    ccc     C5   9438 -0.39330000  12.010000   ; qtot -270.371690
 9439         hc    326    ccc     H9   9439 0.08130000   1.008000   ; qtot -270.290390
 9440         hc    326    ccc    H10   9440 0.08130000   1.008000   ; qtot -270.209090
 9441          c    326    ccc     C6   9441 1.08970000  12.010000   ; qtot -269.119390
 9442          o    326    ccc     O2   9442 -0.96050000  16.000000   ; qtot -270.079890
 9443          o    326    ccc     O3   9443 -0.96050000  16.000000   ; qtot -271.040390
 9444         c3    326    ccc     C7   9444 0.32800000  12.010000   ; qtot -270.712390
 9445         h1    326    ccc    H11   9445 -0.07120000   1.008000   ; qtot -270.783590
 9446         h1    326    ccc    H12   9446 -0.07120000   1.008000   ; qtot -270.854790
 9447         c3    326    ccc     C8   9447 -0.39330000  12.010000   ; qtot -271.248090
 9448         hc    326    ccc    H13   9448 0.08130000   1.008000   ; qtot -271.166790
 9449         hc    326    ccc    H14   9449 0.08130000   1.008000   ; qtot -271.085490
 9450          c    326    ccc     C9   9450 1.08970000  12.010000   ; qtot -269.995790
 9451          o    326    ccc     O4   9451 -0.96050000  16.000000   ; qtot -270.956290
 9452          o    326    ccc     O5   9452 -0.96050000  16.000000   ; qtot -271.916790
 9453         os    326    ccc     O1   9453 -0.11060000  16.000000   ; qtot -272.027390
; residue  327 ccc rtp ccc q -2.0
 9454         c3    327    ccc     C3   9454 -0.04070000  12.010000   ; qtot -272.068090
 9455         h1    327    ccc     H5   9455 0.04610000   1.008000   ; qtot -272.021990
 9456         h1    327    ccc     H6   9456 0.04610000   1.008000   ; qtot -271.975890
 9457         c3    327    ccc     C2   9457 -0.02540000  12.010000   ; qtot -272.001290
 9458         hc    327    ccc     H3   9458 0.00850000   1.008000   ; qtot -271.992790
 9459         hc    327    ccc     H4   9459 0.00850000   1.008000   ; qtot -271.984290
 9460         c3    327    ccc     C1   9460 0.60210000  12.010000   ; qtot -271.382190
 9461         h1    327    ccc     H1   9461 -0.09250000   1.008000   ; qtot -271.474690
 9462         h1    327    ccc     H2   9462 -0.09250000   1.008000   ; qtot -271.567190
 9463         n3    327    ccc     N1   9463 -0.59700000  14.010000   ; qtot -272.164190
 9464         c3    327    ccc     C4   9464 0.32800000  12.010000   ; qtot -271.836190
 9465         h1    327    ccc     H7   9465 -0.07120000   1.008000   ; qtot -271.907390
 9466         h1    327    ccc     H8   9466 -0.07120000   1.008000   ; qtot -271.978590
 9467         c3    327    ccc     C5   9467 -0.39330000  12.010000   ; qtot -272.371890
 9468         hc    327    ccc     H9   9468 0.08130000   1.008000   ; qtot -272.290590
 9469         hc    327    ccc    H10   9469 0.08130000   1.008000   ; qtot -272.209290
 9470          c    327    ccc     C6   9470 1.08970000  12.010000   ; qtot -271.119590
 9471          o    327    ccc     O2   9471 -0.96050000  16.000000   ; qtot -272.080090
 9472          o    327    ccc     O3   9472 -0.96050000  16.000000   ; qtot -273.040590
 9473         c3    327    ccc     C7   9473 0.32800000  12.010000   ; qtot -272.712590
 9474         h1    327    ccc    H11   9474 -0.07120000   1.008000   ; qtot -272.783790
 9475         h1    327    ccc    H12   9475 -0.07120000   1.008000   ; qtot -272.854990
 9476         c3    327    ccc     C8   9476 -0.39330000  12.010000   ; qtot -273.248290
 9477         hc    327    ccc    H13   9477 0.08130000   1.008000   ; qtot -273.166990
 9478         hc    327    ccc    H14   9478 0.08130000   1.008000   ; qtot -273.085690
 9479          c    327    ccc     C9   9479 1.08970000  12.010000   ; qtot -271.995990
 9480          o    327    ccc     O4   9480 -0.96050000  16.000000   ; qtot -272.956490
 9481          o    327    ccc     O5   9481 -0.96050000  16.000000   ; qtot -273.916990
 9482         os    327    ccc     O1   9482 -0.11060000  16.000000   ; qtot -274.027590
; residue  328 ccc rtp ccc q -2.0
 9483         c3    328    ccc     C3   9483 -0.04070000  12.010000   ; qtot -274.068290
 9484         h1    328    ccc     H5   9484 0.04610000   1.008000   ; qtot -274.022190
 9485         h1    328    ccc     H6   9485 0.04610000   1.008000   ; qtot -273.976090
 9486         c3    328    ccc     C2   9486 -0.02540000  12.010000   ; qtot -274.001490
 9487         hc    328    ccc     H3   9487 0.00850000   1.008000   ; qtot -273.992990
 9488         hc    328    ccc     H4   9488 0.00850000   1.008000   ; qtot -273.984490
 9489         c3    328    ccc     C1   9489 0.60210000  12.010000   ; qtot -273.382390
 9490         h1    328    ccc     H1   9490 -0.09250000   1.008000   ; qtot -273.474890
 9491         h1    328    ccc     H2   9491 -0.09250000   1.008000   ; qtot -273.567390
 9492         n3    328    ccc     N1   9492 -0.59700000  14.010000   ; qtot -274.164390
 9493         c3    328    ccc     C4   9493 0.32800000  12.010000   ; qtot -273.836390
 9494         h1    328    ccc     H7   9494 -0.07120000   1.008000   ; qtot -273.907590
 9495         h1    328    ccc     H8   9495 -0.07120000   1.008000   ; qtot -273.978790
 9496         c3    328    ccc     C5   9496 -0.39330000  12.010000   ; qtot -274.372090
 9497         hc    328    ccc     H9   9497 0.08130000   1.008000   ; qtot -274.290790
 9498         hc    328    ccc    H10   9498 0.08130000   1.008000   ; qtot -274.209490
 9499          c    328    ccc     C6   9499 1.08970000  12.010000   ; qtot -273.119790
 9500          o    328    ccc     O2   9500 -0.96050000  16.000000   ; qtot -274.080290
 9501          o    328    ccc     O3   9501 -0.96050000  16.000000   ; qtot -275.040790
 9502         c3    328    ccc     C7   9502 0.32800000  12.010000   ; qtot -274.712790
 9503         h1    328    ccc    H11   9503 -0.07120000   1.008000   ; qtot -274.783990
 9504         h1    328    ccc    H12   9504 -0.07120000   1.008000   ; qtot -274.855190
 9505         c3    328    ccc     C8   9505 -0.39330000  12.010000   ; qtot -275.248490
 9506         hc    328    ccc    H13   9506 0.08130000   1.008000   ; qtot -275.167190
 9507         hc    328    ccc    H14   9507 0.08130000   1.008000   ; qtot -275.085890
 9508          c    328    ccc     C9   9508 1.08970000  12.010000   ; qtot -273.996190
 9509          o    328    ccc     O4   9509 -0.96050000  16.000000   ; qtot -274.956690
 9510          o    328    ccc     O5   9510 -0.96050000  16.000000   ; qtot -275.917190
 9511         os    328    ccc     O1   9511 -0.11060000  16.000000   ; qtot -276.027790
; residue  329 ccc rtp ccc q -2.0
 9512         c3    329    ccc     C3   9512 -0.04070000  12.010000   ; qtot -276.068490
 9513         h1    329    ccc     H5   9513 0.04610000   1.008000   ; qtot -276.022390
 9514         h1    329    ccc     H6   9514 0.04610000   1.008000   ; qtot -275.976290
 9515         c3    329    ccc     C2   9515 -0.02540000  12.010000   ; qtot -276.001690
 9516         hc    329    ccc     H3   9516 0.00850000   1.008000   ; qtot -275.993190
 9517         hc    329    ccc     H4   9517 0.00850000   1.008000   ; qtot -275.984690
 9518         c3    329    ccc     C1   9518 0.60210000  12.010000   ; qtot -275.382590
 9519         h1    329    ccc     H1   9519 -0.09250000   1.008000   ; qtot -275.475090
 9520         h1    329    ccc     H2   9520 -0.09250000   1.008000   ; qtot -275.567590
 9521         n3    329    ccc     N1   9521 -0.59700000  14.010000   ; qtot -276.164590
 9522         c3    329    ccc     C4   9522 0.32800000  12.010000   ; qtot -275.836590
 9523         h1    329    ccc     H7   9523 -0.07120000   1.008000   ; qtot -275.907790
 9524         h1    329    ccc     H8   9524 -0.07120000   1.008000   ; qtot -275.978990
 9525         c3    329    ccc     C5   9525 -0.39330000  12.010000   ; qtot -276.372290
 9526         hc    329    ccc     H9   9526 0.08130000   1.008000   ; qtot -276.290990
 9527         hc    329    ccc    H10   9527 0.08130000   1.008000   ; qtot -276.209690
 9528          c    329    ccc     C6   9528 1.08970000  12.010000   ; qtot -275.119990
 9529          o    329    ccc     O2   9529 -0.96050000  16.000000   ; qtot -276.080490
 9530          o    329    ccc     O3   9530 -0.96050000  16.000000   ; qtot -277.040990
 9531         c3    329    ccc     C7   9531 0.32800000  12.010000   ; qtot -276.712990
 9532         h1    329    ccc    H11   9532 -0.07120000   1.008000   ; qtot -276.784190
 9533         h1    329    ccc    H12   9533 -0.07120000   1.008000   ; qtot -276.855390
 9534         c3    329    ccc     C8   9534 -0.39330000  12.010000   ; qtot -277.248690
 9535         hc    329    ccc    H13   9535 0.08130000   1.008000   ; qtot -277.167390
 9536         hc    329    ccc    H14   9536 0.08130000   1.008000   ; qtot -277.086090
 9537          c    329    ccc     C9   9537 1.08970000  12.010000   ; qtot -275.996390
 9538          o    329    ccc     O4   9538 -0.96050000  16.000000   ; qtot -276.956890
 9539          o    329    ccc     O5   9539 -0.96050000  16.000000   ; qtot -277.917390
 9540         os    329    ccc     O1   9540 -0.11060000  16.000000   ; qtot -278.027990
; residue  330 ccc rtp ccc q -2.0
 9541         c3    330    ccc     C3   9541 -0.04070000  12.010000   ; qtot -278.068690
 9542         h1    330    ccc     H5   9542 0.04610000   1.008000   ; qtot -278.022590
 9543         h1    330    ccc     H6   9543 0.04610000   1.008000   ; qtot -277.976490
 9544         c3    330    ccc     C2   9544 -0.02540000  12.010000   ; qtot -278.001890
 9545         hc    330    ccc     H3   9545 0.00850000   1.008000   ; qtot -277.993390
 9546         hc    330    ccc     H4   9546 0.00850000   1.008000   ; qtot -277.984890
 9547         c3    330    ccc     C1   9547 0.60210000  12.010000   ; qtot -277.382790
 9548         h1    330    ccc     H1   9548 -0.09250000   1.008000   ; qtot -277.475290
 9549         h1    330    ccc     H2   9549 -0.09250000   1.008000   ; qtot -277.567790
 9550         n3    330    ccc     N1   9550 -0.59700000  14.010000   ; qtot -278.164790
 9551         c3    330    ccc     C4   9551 0.32800000  12.010000   ; qtot -277.836790
 9552         h1    330    ccc     H7   9552 -0.07120000   1.008000   ; qtot -277.907990
 9553         h1    330    ccc     H8   9553 -0.07120000   1.008000   ; qtot -277.979190
 9554         c3    330    ccc     C5   9554 -0.39330000  12.010000   ; qtot -278.372490
 9555         hc    330    ccc     H9   9555 0.08130000   1.008000   ; qtot -278.291190
 9556         hc    330    ccc    H10   9556 0.08130000   1.008000   ; qtot -278.209890
 9557          c    330    ccc     C6   9557 1.08970000  12.010000   ; qtot -277.120190
 9558          o    330    ccc     O2   9558 -0.96050000  16.000000   ; qtot -278.080690
 9559          o    330    ccc     O3   9559 -0.96050000  16.000000   ; qtot -279.041190
 9560         c3    330    ccc     C7   9560 0.32800000  12.010000   ; qtot -278.713190
 9561         h1    330    ccc    H11   9561 -0.07120000   1.008000   ; qtot -278.784390
 9562         h1    330    ccc    H12   9562 -0.07120000   1.008000   ; qtot -278.855590
 9563         c3    330    ccc     C8   9563 -0.39330000  12.010000   ; qtot -279.248890
 9564         hc    330    ccc    H13   9564 0.08130000   1.008000   ; qtot -279.167590
 9565         hc    330    ccc    H14   9565 0.08130000   1.008000   ; qtot -279.086290
 9566          c    330    ccc     C9   9566 1.08970000  12.010000   ; qtot -277.996590
 9567          o    330    ccc     O4   9567 -0.96050000  16.000000   ; qtot -278.957090
 9568          o    330    ccc     O5   9568 -0.96050000  16.000000   ; qtot -279.917590
 9569         os    330    ccc     O1   9569 -0.11060000  16.000000   ; qtot -280.028190
; residue  331 ccc rtp ccc q -2.0
 9570         c3    331    ccc     C3   9570 -0.04070000  12.010000   ; qtot -280.068890
 9571         h1    331    ccc     H5   9571 0.04610000   1.008000   ; qtot -280.022790
 9572         h1    331    ccc     H6   9572 0.04610000   1.008000   ; qtot -279.976690
 9573         c3    331    ccc     C2   9573 -0.02540000  12.010000   ; qtot -280.002090
 9574         hc    331    ccc     H3   9574 0.00850000   1.008000   ; qtot -279.993590
 9575         hc    331    ccc     H4   9575 0.00850000   1.008000   ; qtot -279.985090
 9576         c3    331    ccc     C1   9576 0.60210000  12.010000   ; qtot -279.382990
 9577         h1    331    ccc     H1   9577 -0.09250000   1.008000   ; qtot -279.475490
 9578         h1    331    ccc     H2   9578 -0.09250000   1.008000   ; qtot -279.567990
 9579         n3    331    ccc     N1   9579 -0.59700000  14.010000   ; qtot -280.164990
 9580         c3    331    ccc     C4   9580 0.32800000  12.010000   ; qtot -279.836990
 9581         h1    331    ccc     H7   9581 -0.07120000   1.008000   ; qtot -279.908190
 9582         h1    331    ccc     H8   9582 -0.07120000   1.008000   ; qtot -279.979390
 9583         c3    331    ccc     C5   9583 -0.39330000  12.010000   ; qtot -280.372690
 9584         hc    331    ccc     H9   9584 0.08130000   1.008000   ; qtot -280.291390
 9585         hc    331    ccc    H10   9585 0.08130000   1.008000   ; qtot -280.210090
 9586          c    331    ccc     C6   9586 1.08970000  12.010000   ; qtot -279.120390
 9587          o    331    ccc     O2   9587 -0.96050000  16.000000   ; qtot -280.080890
 9588          o    331    ccc     O3   9588 -0.96050000  16.000000   ; qtot -281.041390
 9589         c3    331    ccc     C7   9589 0.32800000  12.010000   ; qtot -280.713390
 9590         h1    331    ccc    H11   9590 -0.07120000   1.008000   ; qtot -280.784590
 9591         h1    331    ccc    H12   9591 -0.07120000   1.008000   ; qtot -280.855790
 9592         c3    331    ccc     C8   9592 -0.39330000  12.010000   ; qtot -281.249090
 9593         hc    331    ccc    H13   9593 0.08130000   1.008000   ; qtot -281.167790
 9594         hc    331    ccc    H14   9594 0.08130000   1.008000   ; qtot -281.086490
 9595          c    331    ccc     C9   9595 1.08970000  12.010000   ; qtot -279.996790
 9596          o    331    ccc     O4   9596 -0.96050000  16.000000   ; qtot -280.957290
 9597          o    331    ccc     O5   9597 -0.96050000  16.000000   ; qtot -281.917790
 9598         os    331    ccc     O1   9598 -0.11060000  16.000000   ; qtot -282.028390
; residue  332 ccc rtp ccc q -2.0
 9599         c3    332    ccc     C3   9599 -0.04070000  12.010000   ; qtot -282.069090
 9600         h1    332    ccc     H5   9600 0.04610000   1.008000   ; qtot -282.022990
 9601         h1    332    ccc     H6   9601 0.04610000   1.008000   ; qtot -281.976890
 9602         c3    332    ccc     C2   9602 -0.02540000  12.010000   ; qtot -282.002290
 9603         hc    332    ccc     H3   9603 0.00850000   1.008000   ; qtot -281.993790
 9604         hc    332    ccc     H4   9604 0.00850000   1.008000   ; qtot -281.985290
 9605         c3    332    ccc     C1   9605 0.60210000  12.010000   ; qtot -281.383190
 9606         h1    332    ccc     H1   9606 -0.09250000   1.008000   ; qtot -281.475690
 9607         h1    332    ccc     H2   9607 -0.09250000   1.008000   ; qtot -281.568190
 9608         n3    332    ccc     N1   9608 -0.59700000  14.010000   ; qtot -282.165190
 9609         c3    332    ccc     C4   9609 0.32800000  12.010000   ; qtot -281.837190
 9610         h1    332    ccc     H7   9610 -0.07120000   1.008000   ; qtot -281.908390
 9611         h1    332    ccc     H8   9611 -0.07120000   1.008000   ; qtot -281.979590
 9612         c3    332    ccc     C5   9612 -0.39330000  12.010000   ; qtot -282.372890
 9613         hc    332    ccc     H9   9613 0.08130000   1.008000   ; qtot -282.291590
 9614         hc    332    ccc    H10   9614 0.08130000   1.008000   ; qtot -282.210290
 9615          c    332    ccc     C6   9615 1.08970000  12.010000   ; qtot -281.120590
 9616          o    332    ccc     O2   9616 -0.96050000  16.000000   ; qtot -282.081090
 9617          o    332    ccc     O3   9617 -0.96050000  16.000000   ; qtot -283.041590
 9618         c3    332    ccc     C7   9618 0.32800000  12.010000   ; qtot -282.713590
 9619         h1    332    ccc    H11   9619 -0.07120000   1.008000   ; qtot -282.784790
 9620         h1    332    ccc    H12   9620 -0.07120000   1.008000   ; qtot -282.855990
 9621         c3    332    ccc     C8   9621 -0.39330000  12.010000   ; qtot -283.249290
 9622         hc    332    ccc    H13   9622 0.08130000   1.008000   ; qtot -283.167990
 9623         hc    332    ccc    H14   9623 0.08130000   1.008000   ; qtot -283.086690
 9624          c    332    ccc     C9   9624 1.08970000  12.010000   ; qtot -281.996990
 9625          o    332    ccc     O4   9625 -0.96050000  16.000000   ; qtot -282.957490
 9626          o    332    ccc     O5   9626 -0.96050000  16.000000   ; qtot -283.917990
 9627         os    332    ccc     O1   9627 -0.11060000  16.000000   ; qtot -284.028590
; residue  333 ccc rtp ccc q -2.0
 9628         c3    333    ccc     C3   9628 -0.04070000  12.010000   ; qtot -284.069290
 9629         h1    333    ccc     H5   9629 0.04610000   1.008000   ; qtot -284.023190
 9630         h1    333    ccc     H6   9630 0.04610000   1.008000   ; qtot -283.977090
 9631         c3    333    ccc     C2   9631 -0.02540000  12.010000   ; qtot -284.002490
 9632         hc    333    ccc     H3   9632 0.00850000   1.008000   ; qtot -283.993990
 9633         hc    333    ccc     H4   9633 0.00850000   1.008000   ; qtot -283.985490
 9634         c3    333    ccc     C1   9634 0.60210000  12.010000   ; qtot -283.383390
 9635         h1    333    ccc     H1   9635 -0.09250000   1.008000   ; qtot -283.475890
 9636         h1    333    ccc     H2   9636 -0.09250000   1.008000   ; qtot -283.568390
 9637         n3    333    ccc     N1   9637 -0.59700000  14.010000   ; qtot -284.165390
 9638         c3    333    ccc     C4   9638 0.32800000  12.010000   ; qtot -283.837390
 9639         h1    333    ccc     H7   9639 -0.07120000   1.008000   ; qtot -283.908590
 9640         h1    333    ccc     H8   9640 -0.07120000   1.008000   ; qtot -283.979790
 9641         c3    333    ccc     C5   9641 -0.39330000  12.010000   ; qtot -284.373090
 9642         hc    333    ccc     H9   9642 0.08130000   1.008000   ; qtot -284.291790
 9643         hc    333    ccc    H10   9643 0.08130000   1.008000   ; qtot -284.210490
 9644          c    333    ccc     C6   9644 1.08970000  12.010000   ; qtot -283.120790
 9645          o    333    ccc     O2   9645 -0.96050000  16.000000   ; qtot -284.081290
 9646          o    333    ccc     O3   9646 -0.96050000  16.000000   ; qtot -285.041790
 9647         c3    333    ccc     C7   9647 0.32800000  12.010000   ; qtot -284.713790
 9648         h1    333    ccc    H11   9648 -0.07120000   1.008000   ; qtot -284.784990
 9649         h1    333    ccc    H12   9649 -0.07120000   1.008000   ; qtot -284.856190
 9650         c3    333    ccc     C8   9650 -0.39330000  12.010000   ; qtot -285.249490
 9651         hc    333    ccc    H13   9651 0.08130000   1.008000   ; qtot -285.168190
 9652         hc    333    ccc    H14   9652 0.08130000   1.008000   ; qtot -285.086890
 9653          c    333    ccc     C9   9653 1.08970000  12.010000   ; qtot -283.997190
 9654          o    333    ccc     O4   9654 -0.96050000  16.000000   ; qtot -284.957690
 9655          o    333    ccc     O5   9655 -0.96050000  16.000000   ; qtot -285.918190
 9656         os    333    ccc     O1   9656 -0.11060000  16.000000   ; qtot -286.028790
; residue  334 ccc rtp ccc q -2.0
 9657         c3    334    ccc     C3   9657 -0.04070000  12.010000   ; qtot -286.069490
 9658         h1    334    ccc     H5   9658 0.04610000   1.008000   ; qtot -286.023390
 9659         h1    334    ccc     H6   9659 0.04610000   1.008000   ; qtot -285.977290
 9660         c3    334    ccc     C2   9660 -0.02540000  12.010000   ; qtot -286.002690
 9661         hc    334    ccc     H3   9661 0.00850000   1.008000   ; qtot -285.994190
 9662         hc    334    ccc     H4   9662 0.00850000   1.008000   ; qtot -285.985690
 9663         c3    334    ccc     C1   9663 0.60210000  12.010000   ; qtot -285.383590
 9664         h1    334    ccc     H1   9664 -0.09250000   1.008000   ; qtot -285.476090
 9665         h1    334    ccc     H2   9665 -0.09250000   1.008000   ; qtot -285.568590
 9666         n3    334    ccc     N1   9666 -0.59700000  14.010000   ; qtot -286.165590
 9667         c3    334    ccc     C4   9667 0.32800000  12.010000   ; qtot -285.837590
 9668         h1    334    ccc     H7   9668 -0.07120000   1.008000   ; qtot -285.908790
 9669         h1    334    ccc     H8   9669 -0.07120000   1.008000   ; qtot -285.979990
 9670         c3    334    ccc     C5   9670 -0.39330000  12.010000   ; qtot -286.373290
 9671         hc    334    ccc     H9   9671 0.08130000   1.008000   ; qtot -286.291990
 9672         hc    334    ccc    H10   9672 0.08130000   1.008000   ; qtot -286.210690
 9673          c    334    ccc     C6   9673 1.08970000  12.010000   ; qtot -285.120990
 9674          o    334    ccc     O2   9674 -0.96050000  16.000000   ; qtot -286.081490
 9675          o    334    ccc     O3   9675 -0.96050000  16.000000   ; qtot -287.041990
 9676         c3    334    ccc     C7   9676 0.32800000  12.010000   ; qtot -286.713990
 9677         h1    334    ccc    H11   9677 -0.07120000   1.008000   ; qtot -286.785190
 9678         h1    334    ccc    H12   9678 -0.07120000   1.008000   ; qtot -286.856390
 9679         c3    334    ccc     C8   9679 -0.39330000  12.010000   ; qtot -287.249690
 9680         hc    334    ccc    H13   9680 0.08130000   1.008000   ; qtot -287.168390
 9681         hc    334    ccc    H14   9681 0.08130000   1.008000   ; qtot -287.087090
 9682          c    334    ccc     C9   9682 1.08970000  12.010000   ; qtot -285.997390
 9683          o    334    ccc     O4   9683 -0.96050000  16.000000   ; qtot -286.957890
 9684          o    334    ccc     O5   9684 -0.96050000  16.000000   ; qtot -287.918390
 9685         os    334    ccc     O1   9685 -0.11060000  16.000000   ; qtot -288.028990
; residue  335 ccc rtp ccc q -2.0
 9686         c3    335    ccc     C3   9686 -0.04070000  12.010000   ; qtot -288.069690
 9687         h1    335    ccc     H5   9687 0.04610000   1.008000   ; qtot -288.023590
 9688         h1    335    ccc     H6   9688 0.04610000   1.008000   ; qtot -287.977490
 9689         c3    335    ccc     C2   9689 -0.02540000  12.010000   ; qtot -288.002890
 9690         hc    335    ccc     H3   9690 0.00850000   1.008000   ; qtot -287.994390
 9691         hc    335    ccc     H4   9691 0.00850000   1.008000   ; qtot -287.985890
 9692         c3    335    ccc     C1   9692 0.60210000  12.010000   ; qtot -287.383790
 9693         h1    335    ccc     H1   9693 -0.09250000   1.008000   ; qtot -287.476290
 9694         h1    335    ccc     H2   9694 -0.09250000   1.008000   ; qtot -287.568790
 9695         n3    335    ccc     N1   9695 -0.59700000  14.010000   ; qtot -288.165790
 9696         c3    335    ccc     C4   9696 0.32800000  12.010000   ; qtot -287.837790
 9697         h1    335    ccc     H7   9697 -0.07120000   1.008000   ; qtot -287.908990
 9698         h1    335    ccc     H8   9698 -0.07120000   1.008000   ; qtot -287.980190
 9699         c3    335    ccc     C5   9699 -0.39330000  12.010000   ; qtot -288.373490
 9700         hc    335    ccc     H9   9700 0.08130000   1.008000   ; qtot -288.292190
 9701         hc    335    ccc    H10   9701 0.08130000   1.008000   ; qtot -288.210890
 9702          c    335    ccc     C6   9702 1.08970000  12.010000   ; qtot -287.121190
 9703          o    335    ccc     O2   9703 -0.96050000  16.000000   ; qtot -288.081690
 9704          o    335    ccc     O3   9704 -0.96050000  16.000000   ; qtot -289.042190
 9705         c3    335    ccc     C7   9705 0.32800000  12.010000   ; qtot -288.714190
 9706         h1    335    ccc    H11   9706 -0.07120000   1.008000   ; qtot -288.785390
 9707         h1    335    ccc    H12   9707 -0.07120000   1.008000   ; qtot -288.856590
 9708         c3    335    ccc     C8   9708 -0.39330000  12.010000   ; qtot -289.249890
 9709         hc    335    ccc    H13   9709 0.08130000   1.008000   ; qtot -289.168590
 9710         hc    335    ccc    H14   9710 0.08130000   1.008000   ; qtot -289.087290
 9711          c    335    ccc     C9   9711 1.08970000  12.010000   ; qtot -287.997590
 9712          o    335    ccc     O4   9712 -0.96050000  16.000000   ; qtot -288.958090
 9713          o    335    ccc     O5   9713 -0.96050000  16.000000   ; qtot -289.918590
 9714         os    335    ccc     O1   9714 -0.11060000  16.000000   ; qtot -290.029190
; residue  336 ccc rtp ccc q -2.0
 9715         c3    336    ccc     C3   9715 -0.04070000  12.010000   ; qtot -290.069890
 9716         h1    336    ccc     H5   9716 0.04610000   1.008000   ; qtot -290.023790
 9717         h1    336    ccc     H6   9717 0.04610000   1.008000   ; qtot -289.977690
 9718         c3    336    ccc     C2   9718 -0.02540000  12.010000   ; qtot -290.003090
 9719         hc    336    ccc     H3   9719 0.00850000   1.008000   ; qtot -289.994590
 9720         hc    336    ccc     H4   9720 0.00850000   1.008000   ; qtot -289.986090
 9721         c3    336    ccc     C1   9721 0.60210000  12.010000   ; qtot -289.383990
 9722         h1    336    ccc     H1   9722 -0.09250000   1.008000   ; qtot -289.476490
 9723         h1    336    ccc     H2   9723 -0.09250000   1.008000   ; qtot -289.568990
 9724         n3    336    ccc     N1   9724 -0.59700000  14.010000   ; qtot -290.165990
 9725         c3    336    ccc     C4   9725 0.32800000  12.010000   ; qtot -289.837990
 9726         h1    336    ccc     H7   9726 -0.07120000   1.008000   ; qtot -289.909190
 9727         h1    336    ccc     H8   9727 -0.07120000   1.008000   ; qtot -289.980390
 9728         c3    336    ccc     C5   9728 -0.39330000  12.010000   ; qtot -290.373690
 9729         hc    336    ccc     H9   9729 0.08130000   1.008000   ; qtot -290.292390
 9730         hc    336    ccc    H10   9730 0.08130000   1.008000   ; qtot -290.211090
 9731          c    336    ccc     C6   9731 1.08970000  12.010000   ; qtot -289.121390
 9732          o    336    ccc     O2   9732 -0.96050000  16.000000   ; qtot -290.081890
 9733          o    336    ccc     O3   9733 -0.96050000  16.000000   ; qtot -291.042390
 9734         c3    336    ccc     C7   9734 0.32800000  12.010000   ; qtot -290.714390
 9735         h1    336    ccc    H11   9735 -0.07120000   1.008000   ; qtot -290.785590
 9736         h1    336    ccc    H12   9736 -0.07120000   1.008000   ; qtot -290.856790
 9737         c3    336    ccc     C8   9737 -0.39330000  12.010000   ; qtot -291.250090
 9738         hc    336    ccc    H13   9738 0.08130000   1.008000   ; qtot -291.168790
 9739         hc    336    ccc    H14   9739 0.08130000   1.008000   ; qtot -291.087490
 9740          c    336    ccc     C9   9740 1.08970000  12.010000   ; qtot -289.997790
 9741          o    336    ccc     O4   9741 -0.96050000  16.000000   ; qtot -290.958290
 9742          o    336    ccc     O5   9742 -0.96050000  16.000000   ; qtot -291.918790
 9743         os    336    ccc     O1   9743 -0.11060000  16.000000   ; qtot -292.029390
; residue  337 ccc rtp ccc q -2.0
 9744         c3    337    ccc     C3   9744 -0.04070000  12.010000   ; qtot -292.070090
 9745         h1    337    ccc     H5   9745 0.04610000   1.008000   ; qtot -292.023990
 9746         h1    337    ccc     H6   9746 0.04610000   1.008000   ; qtot -291.977890
 9747         c3    337    ccc     C2   9747 -0.02540000  12.010000   ; qtot -292.003290
 9748         hc    337    ccc     H3   9748 0.00850000   1.008000   ; qtot -291.994790
 9749         hc    337    ccc     H4   9749 0.00850000   1.008000   ; qtot -291.986290
 9750         c3    337    ccc     C1   9750 0.60210000  12.010000   ; qtot -291.384190
 9751         h1    337    ccc     H1   9751 -0.09250000   1.008000   ; qtot -291.476690
 9752         h1    337    ccc     H2   9752 -0.09250000   1.008000   ; qtot -291.569190
 9753         n3    337    ccc     N1   9753 -0.59700000  14.010000   ; qtot -292.166190
 9754         c3    337    ccc     C4   9754 0.32800000  12.010000   ; qtot -291.838190
 9755         h1    337    ccc     H7   9755 -0.07120000   1.008000   ; qtot -291.909390
 9756         h1    337    ccc     H8   9756 -0.07120000   1.008000   ; qtot -291.980590
 9757         c3    337    ccc     C5   9757 -0.39330000  12.010000   ; qtot -292.373890
 9758         hc    337    ccc     H9   9758 0.08130000   1.008000   ; qtot -292.292590
 9759         hc    337    ccc    H10   9759 0.08130000   1.008000   ; qtot -292.211290
 9760          c    337    ccc     C6   9760 1.08970000  12.010000   ; qtot -291.121590
 9761          o    337    ccc     O2   9761 -0.96050000  16.000000   ; qtot -292.082090
 9762          o    337    ccc     O3   9762 -0.96050000  16.000000   ; qtot -293.042590
 9763         c3    337    ccc     C7   9763 0.32800000  12.010000   ; qtot -292.714590
 9764         h1    337    ccc    H11   9764 -0.07120000   1.008000   ; qtot -292.785790
 9765         h1    337    ccc    H12   9765 -0.07120000   1.008000   ; qtot -292.856990
 9766         c3    337    ccc     C8   9766 -0.39330000  12.010000   ; qtot -293.250290
 9767         hc    337    ccc    H13   9767 0.08130000   1.008000   ; qtot -293.168990
 9768         hc    337    ccc    H14   9768 0.08130000   1.008000   ; qtot -293.087690
 9769          c    337    ccc     C9   9769 1.08970000  12.010000   ; qtot -291.997990
 9770          o    337    ccc     O4   9770 -0.96050000  16.000000   ; qtot -292.958490
 9771          o    337    ccc     O5   9771 -0.96050000  16.000000   ; qtot -293.918990
 9772         os    337    ccc     O1   9772 -0.11060000  16.000000   ; qtot -294.029590
; residue  338 ccc rtp ccc q -2.0
 9773         c3    338    ccc     C3   9773 -0.04070000  12.010000   ; qtot -294.070290
 9774         h1    338    ccc     H5   9774 0.04610000   1.008000   ; qtot -294.024190
 9775         h1    338    ccc     H6   9775 0.04610000   1.008000   ; qtot -293.978090
 9776         c3    338    ccc     C2   9776 -0.02540000  12.010000   ; qtot -294.003490
 9777         hc    338    ccc     H3   9777 0.00850000   1.008000   ; qtot -293.994990
 9778         hc    338    ccc     H4   9778 0.00850000   1.008000   ; qtot -293.986490
 9779         c3    338    ccc     C1   9779 0.60210000  12.010000   ; qtot -293.384390
 9780         h1    338    ccc     H1   9780 -0.09250000   1.008000   ; qtot -293.476890
 9781         h1    338    ccc     H2   9781 -0.09250000   1.008000   ; qtot -293.569390
 9782         n3    338    ccc     N1   9782 -0.59700000  14.010000   ; qtot -294.166390
 9783         c3    338    ccc     C4   9783 0.32800000  12.010000   ; qtot -293.838390
 9784         h1    338    ccc     H7   9784 -0.07120000   1.008000   ; qtot -293.909590
 9785         h1    338    ccc     H8   9785 -0.07120000   1.008000   ; qtot -293.980790
 9786         c3    338    ccc     C5   9786 -0.39330000  12.010000   ; qtot -294.374090
 9787         hc    338    ccc     H9   9787 0.08130000   1.008000   ; qtot -294.292790
 9788         hc    338    ccc    H10   9788 0.08130000   1.008000   ; qtot -294.211490
 9789          c    338    ccc     C6   9789 1.08970000  12.010000   ; qtot -293.121790
 9790          o    338    ccc     O2   9790 -0.96050000  16.000000   ; qtot -294.082290
 9791          o    338    ccc     O3   9791 -0.96050000  16.000000   ; qtot -295.042790
 9792         c3    338    ccc     C7   9792 0.32800000  12.010000   ; qtot -294.714790
 9793         h1    338    ccc    H11   9793 -0.07120000   1.008000   ; qtot -294.785990
 9794         h1    338    ccc    H12   9794 -0.07120000   1.008000   ; qtot -294.857190
 9795         c3    338    ccc     C8   9795 -0.39330000  12.010000   ; qtot -295.250490
 9796         hc    338    ccc    H13   9796 0.08130000   1.008000   ; qtot -295.169190
 9797         hc    338    ccc    H14   9797 0.08130000   1.008000   ; qtot -295.087890
 9798          c    338    ccc     C9   9798 1.08970000  12.010000   ; qtot -293.998190
 9799          o    338    ccc     O4   9799 -0.96050000  16.000000   ; qtot -294.958690
 9800          o    338    ccc     O5   9800 -0.96050000  16.000000   ; qtot -295.919190
 9801         os    338    ccc     O1   9801 -0.11060000  16.000000   ; qtot -296.029790
; residue  339 ccc rtp ccc q -2.0
 9802         c3    339    ccc     C3   9802 -0.04070000  12.010000   ; qtot -296.070490
 9803         h1    339    ccc     H5   9803 0.04610000   1.008000   ; qtot -296.024390
 9804         h1    339    ccc     H6   9804 0.04610000   1.008000   ; qtot -295.978290
 9805         c3    339    ccc     C2   9805 -0.02540000  12.010000   ; qtot -296.003690
 9806         hc    339    ccc     H3   9806 0.00850000   1.008000   ; qtot -295.995190
 9807         hc    339    ccc     H4   9807 0.00850000   1.008000   ; qtot -295.986690
 9808         c3    339    ccc     C1   9808 0.60210000  12.010000   ; qtot -295.384590
 9809         h1    339    ccc     H1   9809 -0.09250000   1.008000   ; qtot -295.477090
 9810         h1    339    ccc     H2   9810 -0.09250000   1.008000   ; qtot -295.569590
 9811         n3    339    ccc     N1   9811 -0.59700000  14.010000   ; qtot -296.166590
 9812         c3    339    ccc     C4   9812 0.32800000  12.010000   ; qtot -295.838590
 9813         h1    339    ccc     H7   9813 -0.07120000   1.008000   ; qtot -295.909790
 9814         h1    339    ccc     H8   9814 -0.07120000   1.008000   ; qtot -295.980990
 9815         c3    339    ccc     C5   9815 -0.39330000  12.010000   ; qtot -296.374290
 9816         hc    339    ccc     H9   9816 0.08130000   1.008000   ; qtot -296.292990
 9817         hc    339    ccc    H10   9817 0.08130000   1.008000   ; qtot -296.211690
 9818          c    339    ccc     C6   9818 1.08970000  12.010000   ; qtot -295.121990
 9819          o    339    ccc     O2   9819 -0.96050000  16.000000   ; qtot -296.082490
 9820          o    339    ccc     O3   9820 -0.96050000  16.000000   ; qtot -297.042990
 9821         c3    339    ccc     C7   9821 0.32800000  12.010000   ; qtot -296.714990
 9822         h1    339    ccc    H11   9822 -0.07120000   1.008000   ; qtot -296.786190
 9823         h1    339    ccc    H12   9823 -0.07120000   1.008000   ; qtot -296.857390
 9824         c3    339    ccc     C8   9824 -0.39330000  12.010000   ; qtot -297.250690
 9825         hc    339    ccc    H13   9825 0.08130000   1.008000   ; qtot -297.169390
 9826         hc    339    ccc    H14   9826 0.08130000   1.008000   ; qtot -297.088090
 9827          c    339    ccc     C9   9827 1.08970000  12.010000   ; qtot -295.998390
 9828          o    339    ccc     O4   9828 -0.96050000  16.000000   ; qtot -296.958890
 9829          o    339    ccc     O5   9829 -0.96050000  16.000000   ; qtot -297.919390
 9830         os    339    ccc     O1   9830 -0.11060000  16.000000   ; qtot -298.029990
; residue  340 ccc rtp ccc q -2.0
 9831         c3    340    ccc     C3   9831 -0.04070000  12.010000   ; qtot -298.070690
 9832         h1    340    ccc     H5   9832 0.04610000   1.008000   ; qtot -298.024590
 9833         h1    340    ccc     H6   9833 0.04610000   1.008000   ; qtot -297.978490
 9834         c3    340    ccc     C2   9834 -0.02540000  12.010000   ; qtot -298.003890
 9835         hc    340    ccc     H3   9835 0.00850000   1.008000   ; qtot -297.995390
 9836         hc    340    ccc     H4   9836 0.00850000   1.008000   ; qtot -297.986890
 9837         c3    340    ccc     C1   9837 0.60210000  12.010000   ; qtot -297.384790
 9838         h1    340    ccc     H1   9838 -0.09250000   1.008000   ; qtot -297.477290
 9839         h1    340    ccc     H2   9839 -0.09250000   1.008000   ; qtot -297.569790
 9840         n3    340    ccc     N1   9840 -0.59700000  14.010000   ; qtot -298.166790
 9841         c3    340    ccc     C4   9841 0.32800000  12.010000   ; qtot -297.838790
 9842         h1    340    ccc     H7   9842 -0.07120000   1.008000   ; qtot -297.909990
 9843         h1    340    ccc     H8   9843 -0.07120000   1.008000   ; qtot -297.981190
 9844         c3    340    ccc     C5   9844 -0.39330000  12.010000   ; qtot -298.374490
 9845         hc    340    ccc     H9   9845 0.08130000   1.008000   ; qtot -298.293190
 9846         hc    340    ccc    H10   9846 0.08130000   1.008000   ; qtot -298.211890
 9847          c    340    ccc     C6   9847 1.08970000  12.010000   ; qtot -297.122190
 9848          o    340    ccc     O2   9848 -0.96050000  16.000000   ; qtot -298.082690
 9849          o    340    ccc     O3   9849 -0.96050000  16.000000   ; qtot -299.043190
 9850         c3    340    ccc     C7   9850 0.32800000  12.010000   ; qtot -298.715190
 9851         h1    340    ccc    H11   9851 -0.07120000   1.008000   ; qtot -298.786390
 9852         h1    340    ccc    H12   9852 -0.07120000   1.008000   ; qtot -298.857590
 9853         c3    340    ccc     C8   9853 -0.39330000  12.010000   ; qtot -299.250890
 9854         hc    340    ccc    H13   9854 0.08130000   1.008000   ; qtot -299.169590
 9855         hc    340    ccc    H14   9855 0.08130000   1.008000   ; qtot -299.088290
 9856          c    340    ccc     C9   9856 1.08970000  12.010000   ; qtot -297.998590
 9857          o    340    ccc     O4   9857 -0.96050000  16.000000   ; qtot -298.959090
 9858          o    340    ccc     O5   9858 -0.96050000  16.000000   ; qtot -299.919590
 9859         os    340    ccc     O1   9859 -0.11060000  16.000000   ; qtot -300.030190
; residue  341 ccc rtp ccc q -2.0
 9860         c3    341    ccc     C3   9860 -0.04070000  12.010000   ; qtot -300.070890
 9861         h1    341    ccc     H5   9861 0.04610000   1.008000   ; qtot -300.024790
 9862         h1    341    ccc     H6   9862 0.04610000   1.008000   ; qtot -299.978690
 9863         c3    341    ccc     C2   9863 -0.02540000  12.010000   ; qtot -300.004090
 9864         hc    341    ccc     H3   9864 0.00850000   1.008000   ; qtot -299.995590
 9865         hc    341    ccc     H4   9865 0.00850000   1.008000   ; qtot -299.987090
 9866         c3    341    ccc     C1   9866 0.60210000  12.010000   ; qtot -299.384990
 9867         h1    341    ccc     H1   9867 -0.09250000   1.008000   ; qtot -299.477490
 9868         h1    341    ccc     H2   9868 -0.09250000   1.008000   ; qtot -299.569990
 9869         n3    341    ccc     N1   9869 -0.59700000  14.010000   ; qtot -300.166990
 9870         c3    341    ccc     C4   9870 0.32800000  12.010000   ; qtot -299.838990
 9871         h1    341    ccc     H7   9871 -0.07120000   1.008000   ; qtot -299.910190
 9872         h1    341    ccc     H8   9872 -0.07120000   1.008000   ; qtot -299.981390
 9873         c3    341    ccc     C5   9873 -0.39330000  12.010000   ; qtot -300.374690
 9874         hc    341    ccc     H9   9874 0.08130000   1.008000   ; qtot -300.293390
 9875         hc    341    ccc    H10   9875 0.08130000   1.008000   ; qtot -300.212090
 9876          c    341    ccc     C6   9876 1.08970000  12.010000   ; qtot -299.122390
 9877          o    341    ccc     O2   9877 -0.96050000  16.000000   ; qtot -300.082890
 9878          o    341    ccc     O3   9878 -0.96050000  16.000000   ; qtot -301.043390
 9879         c3    341    ccc     C7   9879 0.32800000  12.010000   ; qtot -300.715390
 9880         h1    341    ccc    H11   9880 -0.07120000   1.008000   ; qtot -300.786590
 9881         h1    341    ccc    H12   9881 -0.07120000   1.008000   ; qtot -300.857790
 9882         c3    341    ccc     C8   9882 -0.39330000  12.010000   ; qtot -301.251090
 9883         hc    341    ccc    H13   9883 0.08130000   1.008000   ; qtot -301.169790
 9884         hc    341    ccc    H14   9884 0.08130000   1.008000   ; qtot -301.088490
 9885          c    341    ccc     C9   9885 1.08970000  12.010000   ; qtot -299.998790
 9886          o    341    ccc     O4   9886 -0.96050000  16.000000   ; qtot -300.959290
 9887          o    341    ccc     O5   9887 -0.96050000  16.000000   ; qtot -301.919790
 9888         os    341    ccc     O1   9888 -0.11060000  16.000000   ; qtot -302.030390
; residue  342 ccc rtp ccc q -2.0
 9889         c3    342    ccc     C3   9889 -0.04070000  12.010000   ; qtot -302.071090
 9890         h1    342    ccc     H5   9890 0.04610000   1.008000   ; qtot -302.024990
 9891         h1    342    ccc     H6   9891 0.04610000   1.008000   ; qtot -301.978890
 9892         c3    342    ccc     C2   9892 -0.02540000  12.010000   ; qtot -302.004290
 9893         hc    342    ccc     H3   9893 0.00850000   1.008000   ; qtot -301.995790
 9894         hc    342    ccc     H4   9894 0.00850000   1.008000   ; qtot -301.987290
 9895         c3    342    ccc     C1   9895 0.60210000  12.010000   ; qtot -301.385190
 9896         h1    342    ccc     H1   9896 -0.09250000   1.008000   ; qtot -301.477690
 9897         h1    342    ccc     H2   9897 -0.09250000   1.008000   ; qtot -301.570190
 9898         n3    342    ccc     N1   9898 -0.59700000  14.010000   ; qtot -302.167190
 9899         c3    342    ccc     C4   9899 0.32800000  12.010000   ; qtot -301.839190
 9900         h1    342    ccc     H7   9900 -0.07120000   1.008000   ; qtot -301.910390
 9901         h1    342    ccc     H8   9901 -0.07120000   1.008000   ; qtot -301.981590
 9902         c3    342    ccc     C5   9902 -0.39330000  12.010000   ; qtot -302.374890
 9903         hc    342    ccc     H9   9903 0.08130000   1.008000   ; qtot -302.293590
 9904         hc    342    ccc    H10   9904 0.08130000   1.008000   ; qtot -302.212290
 9905          c    342    ccc     C6   9905 1.08970000  12.010000   ; qtot -301.122590
 9906          o    342    ccc     O2   9906 -0.96050000  16.000000   ; qtot -302.083090
 9907          o    342    ccc     O3   9907 -0.96050000  16.000000   ; qtot -303.043590
 9908         c3    342    ccc     C7   9908 0.32800000  12.010000   ; qtot -302.715590
 9909         h1    342    ccc    H11   9909 -0.07120000   1.008000   ; qtot -302.786790
 9910         h1    342    ccc    H12   9910 -0.07120000   1.008000   ; qtot -302.857990
 9911         c3    342    ccc     C8   9911 -0.39330000  12.010000   ; qtot -303.251290
 9912         hc    342    ccc    H13   9912 0.08130000   1.008000   ; qtot -303.169990
 9913         hc    342    ccc    H14   9913 0.08130000   1.008000   ; qtot -303.088690
 9914          c    342    ccc     C9   9914 1.08970000  12.010000   ; qtot -301.998990
 9915          o    342    ccc     O4   9915 -0.96050000  16.000000   ; qtot -302.959490
 9916          o    342    ccc     O5   9916 -0.96050000  16.000000   ; qtot -303.919990
 9917         os    342    ccc     O1   9917 -0.11060000  16.000000   ; qtot -304.030590
; residue  343 ccc rtp ccc q -2.0
 9918         c3    343    ccc     C3   9918 -0.04070000  12.010000   ; qtot -304.071290
 9919         h1    343    ccc     H5   9919 0.04610000   1.008000   ; qtot -304.025190
 9920         h1    343    ccc     H6   9920 0.04610000   1.008000   ; qtot -303.979090
 9921         c3    343    ccc     C2   9921 -0.02540000  12.010000   ; qtot -304.004490
 9922         hc    343    ccc     H3   9922 0.00850000   1.008000   ; qtot -303.995990
 9923         hc    343    ccc     H4   9923 0.00850000   1.008000   ; qtot -303.987490
 9924         c3    343    ccc     C1   9924 0.60210000  12.010000   ; qtot -303.385390
 9925         h1    343    ccc     H1   9925 -0.09250000   1.008000   ; qtot -303.477890
 9926         h1    343    ccc     H2   9926 -0.09250000   1.008000   ; qtot -303.570390
 9927         n3    343    ccc     N1   9927 -0.59700000  14.010000   ; qtot -304.167390
 9928         c3    343    ccc     C4   9928 0.32800000  12.010000   ; qtot -303.839390
 9929         h1    343    ccc     H7   9929 -0.07120000   1.008000   ; qtot -303.910590
 9930         h1    343    ccc     H8   9930 -0.07120000   1.008000   ; qtot -303.981790
 9931         c3    343    ccc     C5   9931 -0.39330000  12.010000   ; qtot -304.375090
 9932         hc    343    ccc     H9   9932 0.08130000   1.008000   ; qtot -304.293790
 9933         hc    343    ccc    H10   9933 0.08130000   1.008000   ; qtot -304.212490
 9934          c    343    ccc     C6   9934 1.08970000  12.010000   ; qtot -303.122790
 9935          o    343    ccc     O2   9935 -0.96050000  16.000000   ; qtot -304.083290
 9936          o    343    ccc     O3   9936 -0.96050000  16.000000   ; qtot -305.043790
 9937         c3    343    ccc     C7   9937 0.32800000  12.010000   ; qtot -304.715790
 9938         h1    343    ccc    H11   9938 -0.07120000   1.008000   ; qtot -304.786990
 9939         h1    343    ccc    H12   9939 -0.07120000   1.008000   ; qtot -304.858190
 9940         c3    343    ccc     C8   9940 -0.39330000  12.010000   ; qtot -305.251490
 9941         hc    343    ccc    H13   9941 0.08130000   1.008000   ; qtot -305.170190
 9942         hc    343    ccc    H14   9942 0.08130000   1.008000   ; qtot -305.088890
 9943          c    343    ccc     C9   9943 1.08970000  12.010000   ; qtot -303.999190
 9944          o    343    ccc     O4   9944 -0.96050000  16.000000   ; qtot -304.959690
 9945          o    343    ccc     O5   9945 -0.96050000  16.000000   ; qtot -305.920190
 9946         os    343    ccc     O1   9946 -0.11060000  16.000000   ; qtot -306.030790
; residue  344 ccc rtp ccc q -2.0
 9947         c3    344    ccc     C3   9947 -0.04070000  12.010000   ; qtot -306.071490
 9948         h1    344    ccc     H5   9948 0.04610000   1.008000   ; qtot -306.025390
 9949         h1    344    ccc     H6   9949 0.04610000   1.008000   ; qtot -305.979290
 9950         c3    344    ccc     C2   9950 -0.02540000  12.010000   ; qtot -306.004690
 9951         hc    344    ccc     H3   9951 0.00850000   1.008000   ; qtot -305.996190
 9952         hc    344    ccc     H4   9952 0.00850000   1.008000   ; qtot -305.987690
 9953         c3    344    ccc     C1   9953 0.60210000  12.010000   ; qtot -305.385590
 9954         h1    344    ccc     H1   9954 -0.09250000   1.008000   ; qtot -305.478090
 9955         h1    344    ccc     H2   9955 -0.09250000   1.008000   ; qtot -305.570590
 9956         n3    344    ccc     N1   9956 -0.59700000  14.010000   ; qtot -306.167590
 9957         c3    344    ccc     C4   9957 0.32800000  12.010000   ; qtot -305.839590
 9958         h1    344    ccc     H7   9958 -0.07120000   1.008000   ; qtot -305.910790
 9959         h1    344    ccc     H8   9959 -0.07120000   1.008000   ; qtot -305.981990
 9960         c3    344    ccc     C5   9960 -0.39330000  12.010000   ; qtot -306.375290
 9961         hc    344    ccc     H9   9961 0.08130000   1.008000   ; qtot -306.293990
 9962         hc    344    ccc    H10   9962 0.08130000   1.008000   ; qtot -306.212690
 9963          c    344    ccc     C6   9963 1.08970000  12.010000   ; qtot -305.122990
 9964          o    344    ccc     O2   9964 -0.96050000  16.000000   ; qtot -306.083490
 9965          o    344    ccc     O3   9965 -0.96050000  16.000000   ; qtot -307.043990
 9966         c3    344    ccc     C7   9966 0.32800000  12.010000   ; qtot -306.715990
 9967         h1    344    ccc    H11   9967 -0.07120000   1.008000   ; qtot -306.787190
 9968         h1    344    ccc    H12   9968 -0.07120000   1.008000   ; qtot -306.858390
 9969         c3    344    ccc     C8   9969 -0.39330000  12.010000   ; qtot -307.251690
 9970         hc    344    ccc    H13   9970 0.08130000   1.008000   ; qtot -307.170390
 9971         hc    344    ccc    H14   9971 0.08130000   1.008000   ; qtot -307.089090
 9972          c    344    ccc     C9   9972 1.08970000  12.010000   ; qtot -305.999390
 9973          o    344    ccc     O4   9973 -0.96050000  16.000000   ; qtot -306.959890
 9974          o    344    ccc     O5   9974 -0.96050000  16.000000   ; qtot -307.920390
 9975         os    344    ccc     O1   9975 -0.11060000  16.000000   ; qtot -308.030990
; residue  345 ccc rtp ccc q -2.0
 9976         c3    345    ccc     C3   9976 -0.04070000  12.010000   ; qtot -308.071690
 9977         h1    345    ccc     H5   9977 0.04610000   1.008000   ; qtot -308.025590
 9978         h1    345    ccc     H6   9978 0.04610000   1.008000   ; qtot -307.979490
 9979         c3    345    ccc     C2   9979 -0.02540000  12.010000   ; qtot -308.004890
 9980         hc    345    ccc     H3   9980 0.00850000   1.008000   ; qtot -307.996390
 9981         hc    345    ccc     H4   9981 0.00850000   1.008000   ; qtot -307.987890
 9982         c3    345    ccc     C1   9982 0.60210000  12.010000   ; qtot -307.385790
 9983         h1    345    ccc     H1   9983 -0.09250000   1.008000   ; qtot -307.478290
 9984         h1    345    ccc     H2   9984 -0.09250000   1.008000   ; qtot -307.570790
 9985         n3    345    ccc     N1   9985 -0.59700000  14.010000   ; qtot -308.167790
 9986         c3    345    ccc     C4   9986 0.32800000  12.010000   ; qtot -307.839790
 9987         h1    345    ccc     H7   9987 -0.07120000   1.008000   ; qtot -307.910990
 9988         h1    345    ccc     H8   9988 -0.07120000   1.008000   ; qtot -307.982190
 9989         c3    345    ccc     C5   9989 -0.39330000  12.010000   ; qtot -308.375490
 9990         hc    345    ccc     H9   9990 0.08130000   1.008000   ; qtot -308.294190
 9991         hc    345    ccc    H10   9991 0.08130000   1.008000   ; qtot -308.212890
 9992          c    345    ccc     C6   9992 1.08970000  12.010000   ; qtot -307.123190
 9993          o    345    ccc     O2   9993 -0.96050000  16.000000   ; qtot -308.083690
 9994          o    345    ccc     O3   9994 -0.96050000  16.000000   ; qtot -309.044190
 9995         c3    345    ccc     C7   9995 0.32800000  12.010000   ; qtot -308.716190
 9996         h1    345    ccc    H11   9996 -0.07120000   1.008000   ; qtot -308.787390
 9997         h1    345    ccc    H12   9997 -0.07120000   1.008000   ; qtot -308.858590
 9998         c3    345    ccc     C8   9998 -0.39330000  12.010000   ; qtot -309.251890
 9999         hc    345    ccc    H13   9999 0.08130000   1.008000   ; qtot -309.170590
10000         hc    345    ccc    H14  10000 0.08130000   1.008000   ; qtot -309.089290
10001          c    345    ccc     C9  10001 1.08970000  12.010000   ; qtot -307.999590
10002          o    345    ccc     O4  10002 -0.96050000  16.000000   ; qtot -308.960090
10003          o    345    ccc     O5  10003 -0.96050000  16.000000   ; qtot -309.920590
10004         os    345    ccc     O1  10004 -0.11060000  16.000000   ; qtot -310.031190
; residue  346 ccc rtp ccc q -2.0
10005         c3    346    ccc     C3  10005 -0.04070000  12.010000   ; qtot -310.071890
10006         h1    346    ccc     H5  10006 0.04610000   1.008000   ; qtot -310.025790
10007         h1    346    ccc     H6  10007 0.04610000   1.008000   ; qtot -309.979690
10008         c3    346    ccc     C2  10008 -0.02540000  12.010000   ; qtot -310.005090
10009         hc    346    ccc     H3  10009 0.00850000   1.008000   ; qtot -309.996590
10010         hc    346    ccc     H4  10010 0.00850000   1.008000   ; qtot -309.988090
10011         c3    346    ccc     C1  10011 0.60210000  12.010000   ; qtot -309.385990
10012         h1    346    ccc     H1  10012 -0.09250000   1.008000   ; qtot -309.478490
10013         h1    346    ccc     H2  10013 -0.09250000   1.008000   ; qtot -309.570990
10014         n3    346    ccc     N1  10014 -0.59700000  14.010000   ; qtot -310.167990
10015         c3    346    ccc     C4  10015 0.32800000  12.010000   ; qtot -309.839990
10016         h1    346    ccc     H7  10016 -0.07120000   1.008000   ; qtot -309.911190
10017         h1    346    ccc     H8  10017 -0.07120000   1.008000   ; qtot -309.982390
10018         c3    346    ccc     C5  10018 -0.39330000  12.010000   ; qtot -310.375690
10019         hc    346    ccc     H9  10019 0.08130000   1.008000   ; qtot -310.294390
10020         hc    346    ccc    H10  10020 0.08130000   1.008000   ; qtot -310.213090
10021          c    346    ccc     C6  10021 1.08970000  12.010000   ; qtot -309.123390
10022          o    346    ccc     O2  10022 -0.96050000  16.000000   ; qtot -310.083890
10023          o    346    ccc     O3  10023 -0.96050000  16.000000   ; qtot -311.044390
10024         c3    346    ccc     C7  10024 0.32800000  12.010000   ; qtot -310.716390
10025         h1    346    ccc    H11  10025 -0.07120000   1.008000   ; qtot -310.787590
10026         h1    346    ccc    H12  10026 -0.07120000   1.008000   ; qtot -310.858790
10027         c3    346    ccc     C8  10027 -0.39330000  12.010000   ; qtot -311.252090
10028         hc    346    ccc    H13  10028 0.08130000   1.008000   ; qtot -311.170790
10029         hc    346    ccc    H14  10029 0.08130000   1.008000   ; qtot -311.089490
10030          c    346    ccc     C9  10030 1.08970000  12.010000   ; qtot -309.999790
10031          o    346    ccc     O4  10031 -0.96050000  16.000000   ; qtot -310.960290
10032          o    346    ccc     O5  10032 -0.96050000  16.000000   ; qtot -311.920790
10033         os    346    ccc     O1  10033 -0.11060000  16.000000   ; qtot -312.031390
; residue  347 ccc rtp ccc q -2.0
10034         c3    347    ccc     C3  10034 -0.04070000  12.010000   ; qtot -312.072090
10035         h1    347    ccc     H5  10035 0.04610000   1.008000   ; qtot -312.025990
10036         h1    347    ccc     H6  10036 0.04610000   1.008000   ; qtot -311.979890
10037         c3    347    ccc     C2  10037 -0.02540000  12.010000   ; qtot -312.005290
10038         hc    347    ccc     H3  10038 0.00850000   1.008000   ; qtot -311.996790
10039         hc    347    ccc     H4  10039 0.00850000   1.008000   ; qtot -311.988290
10040         c3    347    ccc     C1  10040 0.60210000  12.010000   ; qtot -311.386190
10041         h1    347    ccc     H1  10041 -0.09250000   1.008000   ; qtot -311.478690
10042         h1    347    ccc     H2  10042 -0.09250000   1.008000   ; qtot -311.571190
10043         n3    347    ccc     N1  10043 -0.59700000  14.010000   ; qtot -312.168190
10044         c3    347    ccc     C4  10044 0.32800000  12.010000   ; qtot -311.840190
10045         h1    347    ccc     H7  10045 -0.07120000   1.008000   ; qtot -311.911390
10046         h1    347    ccc     H8  10046 -0.07120000   1.008000   ; qtot -311.982590
10047         c3    347    ccc     C5  10047 -0.39330000  12.010000   ; qtot -312.375890
10048         hc    347    ccc     H9  10048 0.08130000   1.008000   ; qtot -312.294590
10049         hc    347    ccc    H10  10049 0.08130000   1.008000   ; qtot -312.213290
10050          c    347    ccc     C6  10050 1.08970000  12.010000   ; qtot -311.123590
10051          o    347    ccc     O2  10051 -0.96050000  16.000000   ; qtot -312.084090
10052          o    347    ccc     O3  10052 -0.96050000  16.000000   ; qtot -313.044590
10053         c3    347    ccc     C7  10053 0.32800000  12.010000   ; qtot -312.716590
10054         h1    347    ccc    H11  10054 -0.07120000   1.008000   ; qtot -312.787790
10055         h1    347    ccc    H12  10055 -0.07120000   1.008000   ; qtot -312.858990
10056         c3    347    ccc     C8  10056 -0.39330000  12.010000   ; qtot -313.252290
10057         hc    347    ccc    H13  10057 0.08130000   1.008000   ; qtot -313.170990
10058         hc    347    ccc    H14  10058 0.08130000   1.008000   ; qtot -313.089690
10059          c    347    ccc     C9  10059 1.08970000  12.010000   ; qtot -311.999990
10060          o    347    ccc     O4  10060 -0.96050000  16.000000   ; qtot -312.960490
10061          o    347    ccc     O5  10061 -0.96050000  16.000000   ; qtot -313.920990
10062         os    347    ccc     O1  10062 -0.11060000  16.000000   ; qtot -314.031590
; residue  348 ccc rtp ccc q -2.0
10063         c3    348    ccc     C3  10063 -0.04070000  12.010000   ; qtot -314.072290
10064         h1    348    ccc     H5  10064 0.04610000   1.008000   ; qtot -314.026190
10065         h1    348    ccc     H6  10065 0.04610000   1.008000   ; qtot -313.980090
10066         c3    348    ccc     C2  10066 -0.02540000  12.010000   ; qtot -314.005490
10067         hc    348    ccc     H3  10067 0.00850000   1.008000   ; qtot -313.996990
10068         hc    348    ccc     H4  10068 0.00850000   1.008000   ; qtot -313.988490
10069         c3    348    ccc     C1  10069 0.60210000  12.010000   ; qtot -313.386390
10070         h1    348    ccc     H1  10070 -0.09250000   1.008000   ; qtot -313.478890
10071         h1    348    ccc     H2  10071 -0.09250000   1.008000   ; qtot -313.571390
10072         n3    348    ccc     N1  10072 -0.59700000  14.010000   ; qtot -314.168390
10073         c3    348    ccc     C4  10073 0.32800000  12.010000   ; qtot -313.840390
10074         h1    348    ccc     H7  10074 -0.07120000   1.008000   ; qtot -313.911590
10075         h1    348    ccc     H8  10075 -0.07120000   1.008000   ; qtot -313.982790
10076         c3    348    ccc     C5  10076 -0.39330000  12.010000   ; qtot -314.376090
10077         hc    348    ccc     H9  10077 0.08130000   1.008000   ; qtot -314.294790
10078         hc    348    ccc    H10  10078 0.08130000   1.008000   ; qtot -314.213490
10079          c    348    ccc     C6  10079 1.08970000  12.010000   ; qtot -313.123790
10080          o    348    ccc     O2  10080 -0.96050000  16.000000   ; qtot -314.084290
10081          o    348    ccc     O3  10081 -0.96050000  16.000000   ; qtot -315.044790
10082         c3    348    ccc     C7  10082 0.32800000  12.010000   ; qtot -314.716790
10083         h1    348    ccc    H11  10083 -0.07120000   1.008000   ; qtot -314.787990
10084         h1    348    ccc    H12  10084 -0.07120000   1.008000   ; qtot -314.859190
10085         c3    348    ccc     C8  10085 -0.39330000  12.010000   ; qtot -315.252490
10086         hc    348    ccc    H13  10086 0.08130000   1.008000   ; qtot -315.171190
10087         hc    348    ccc    H14  10087 0.08130000   1.008000   ; qtot -315.089890
10088          c    348    ccc     C9  10088 1.08970000  12.010000   ; qtot -314.000190
10089          o    348    ccc     O4  10089 -0.96050000  16.000000   ; qtot -314.960690
10090          o    348    ccc     O5  10090 -0.96050000  16.000000   ; qtot -315.921190
10091         os    348    ccc     O1  10091 -0.11060000  16.000000   ; qtot -316.031790
; residue  349 ccc rtp ccc q -2.0
10092         c3    349    ccc     C3  10092 -0.04070000  12.010000   ; qtot -316.072490
10093         h1    349    ccc     H5  10093 0.04610000   1.008000   ; qtot -316.026390
10094         h1    349    ccc     H6  10094 0.04610000   1.008000   ; qtot -315.980290
10095         c3    349    ccc     C2  10095 -0.02540000  12.010000   ; qtot -316.005690
10096         hc    349    ccc     H3  10096 0.00850000   1.008000   ; qtot -315.997190
10097         hc    349    ccc     H4  10097 0.00850000   1.008000   ; qtot -315.988690
10098         c3    349    ccc     C1  10098 0.60210000  12.010000   ; qtot -315.386590
10099         h1    349    ccc     H1  10099 -0.09250000   1.008000   ; qtot -315.479090
10100         h1    349    ccc     H2  10100 -0.09250000   1.008000   ; qtot -315.571590
10101         n3    349    ccc     N1  10101 -0.59700000  14.010000   ; qtot -316.168590
10102         c3    349    ccc     C4  10102 0.32800000  12.010000   ; qtot -315.840590
10103         h1    349    ccc     H7  10103 -0.07120000   1.008000   ; qtot -315.911790
10104         h1    349    ccc     H8  10104 -0.07120000   1.008000   ; qtot -315.982990
10105         c3    349    ccc     C5  10105 -0.39330000  12.010000   ; qtot -316.376290
10106         hc    349    ccc     H9  10106 0.08130000   1.008000   ; qtot -316.294990
10107         hc    349    ccc    H10  10107 0.08130000   1.008000   ; qtot -316.213690
10108          c    349    ccc     C6  10108 1.08970000  12.010000   ; qtot -315.123990
10109          o    349    ccc     O2  10109 -0.96050000  16.000000   ; qtot -316.084490
10110          o    349    ccc     O3  10110 -0.96050000  16.000000   ; qtot -317.044990
10111         c3    349    ccc     C7  10111 0.32800000  12.010000   ; qtot -316.716990
10112         h1    349    ccc    H11  10112 -0.07120000   1.008000   ; qtot -316.788190
10113         h1    349    ccc    H12  10113 -0.07120000   1.008000   ; qtot -316.859390
10114         c3    349    ccc     C8  10114 -0.39330000  12.010000   ; qtot -317.252690
10115         hc    349    ccc    H13  10115 0.08130000   1.008000   ; qtot -317.171390
10116         hc    349    ccc    H14  10116 0.08130000   1.008000   ; qtot -317.090090
10117          c    349    ccc     C9  10117 1.08970000  12.010000   ; qtot -316.000390
10118          o    349    ccc     O4  10118 -0.96050000  16.000000   ; qtot -316.960890
10119          o    349    ccc     O5  10119 -0.96050000  16.000000   ; qtot -317.921390
10120         os    349    ccc     O1  10120 -0.11060000  16.000000   ; qtot -318.031990
; residue  350 ccc rtp ccc q -2.0
10121         c3    350    ccc     C3  10121 -0.04070000  12.010000   ; qtot -318.072690
10122         h1    350    ccc     H5  10122 0.04610000   1.008000   ; qtot -318.026590
10123         h1    350    ccc     H6  10123 0.04610000   1.008000   ; qtot -317.980490
10124         c3    350    ccc     C2  10124 -0.02540000  12.010000   ; qtot -318.005890
10125         hc    350    ccc     H3  10125 0.00850000   1.008000   ; qtot -317.997390
10126         hc    350    ccc     H4  10126 0.00850000   1.008000   ; qtot -317.988890
10127         c3    350    ccc     C1  10127 0.60210000  12.010000   ; qtot -317.386790
10128         h1    350    ccc     H1  10128 -0.09250000   1.008000   ; qtot -317.479290
10129         h1    350    ccc     H2  10129 -0.09250000   1.008000   ; qtot -317.571790
10130         n3    350    ccc     N1  10130 -0.59700000  14.010000   ; qtot -318.168790
10131         c3    350    ccc     C4  10131 0.32800000  12.010000   ; qtot -317.840790
10132         h1    350    ccc     H7  10132 -0.07120000   1.008000   ; qtot -317.911990
10133         h1    350    ccc     H8  10133 -0.07120000   1.008000   ; qtot -317.983190
10134         c3    350    ccc     C5  10134 -0.39330000  12.010000   ; qtot -318.376490
10135         hc    350    ccc     H9  10135 0.08130000   1.008000   ; qtot -318.295190
10136         hc    350    ccc    H10  10136 0.08130000   1.008000   ; qtot -318.213890
10137          c    350    ccc     C6  10137 1.08970000  12.010000   ; qtot -317.124190
10138          o    350    ccc     O2  10138 -0.96050000  16.000000   ; qtot -318.084690
10139          o    350    ccc     O3  10139 -0.96050000  16.000000   ; qtot -319.045190
10140         c3    350    ccc     C7  10140 0.32800000  12.010000   ; qtot -318.717190
10141         h1    350    ccc    H11  10141 -0.07120000   1.008000   ; qtot -318.788390
10142         h1    350    ccc    H12  10142 -0.07120000   1.008000   ; qtot -318.859590
10143         c3    350    ccc     C8  10143 -0.39330000  12.010000   ; qtot -319.252890
10144         hc    350    ccc    H13  10144 0.08130000   1.008000   ; qtot -319.171590
10145         hc    350    ccc    H14  10145 0.08130000   1.008000   ; qtot -319.090290
10146          c    350    ccc     C9  10146 1.08970000  12.010000   ; qtot -318.000590
10147          o    350    ccc     O4  10147 -0.96050000  16.000000   ; qtot -318.961090
10148          o    350    ccc     O5  10148 -0.96050000  16.000000   ; qtot -319.921590
10149         os    350    ccc     O1  10149 -0.11060000  16.000000   ; qtot -320.032190
; residue  351 ccc rtp ccc q -2.0
10150         c3    351    ccc     C3  10150 -0.04070000  12.010000   ; qtot -320.072890
10151         h1    351    ccc     H5  10151 0.04610000   1.008000   ; qtot -320.026790
10152         h1    351    ccc     H6  10152 0.04610000   1.008000   ; qtot -319.980690
10153         c3    351    ccc     C2  10153 -0.02540000  12.010000   ; qtot -320.006090
10154         hc    351    ccc     H3  10154 0.00850000   1.008000   ; qtot -319.997590
10155         hc    351    ccc     H4  10155 0.00850000   1.008000   ; qtot -319.989090
10156         c3    351    ccc     C1  10156 0.60210000  12.010000   ; qtot -319.386990
10157         h1    351    ccc     H1  10157 -0.09250000   1.008000   ; qtot -319.479490
10158         h1    351    ccc     H2  10158 -0.09250000   1.008000   ; qtot -319.571990
10159         n3    351    ccc     N1  10159 -0.59700000  14.010000   ; qtot -320.168990
10160         c3    351    ccc     C4  10160 0.32800000  12.010000   ; qtot -319.840990
10161         h1    351    ccc     H7  10161 -0.07120000   1.008000   ; qtot -319.912190
10162         h1    351    ccc     H8  10162 -0.07120000   1.008000   ; qtot -319.983390
10163         c3    351    ccc     C5  10163 -0.39330000  12.010000   ; qtot -320.376690
10164         hc    351    ccc     H9  10164 0.08130000   1.008000   ; qtot -320.295390
10165         hc    351    ccc    H10  10165 0.08130000   1.008000   ; qtot -320.214090
10166          c    351    ccc     C6  10166 1.08970000  12.010000   ; qtot -319.124390
10167          o    351    ccc     O2  10167 -0.96050000  16.000000   ; qtot -320.084890
10168          o    351    ccc     O3  10168 -0.96050000  16.000000   ; qtot -321.045390
10169         c3    351    ccc     C7  10169 0.32800000  12.010000   ; qtot -320.717390
10170         h1    351    ccc    H11  10170 -0.07120000   1.008000   ; qtot -320.788590
10171         h1    351    ccc    H12  10171 -0.07120000   1.008000   ; qtot -320.859790
10172         c3    351    ccc     C8  10172 -0.39330000  12.010000   ; qtot -321.253090
10173         hc    351    ccc    H13  10173 0.08130000   1.008000   ; qtot -321.171790
10174         hc    351    ccc    H14  10174 0.08130000   1.008000   ; qtot -321.090490
10175          c    351    ccc     C9  10175 1.08970000  12.010000   ; qtot -320.000790
10176          o    351    ccc     O4  10176 -0.96050000  16.000000   ; qtot -320.961290
10177          o    351    ccc     O5  10177 -0.96050000  16.000000   ; qtot -321.921790
10178         os    351    ccc     O1  10178 -0.11060000  16.000000   ; qtot -322.032390
; residue  352 ccc rtp ccc q -2.0
10179         c3    352    ccc     C3  10179 -0.04070000  12.010000   ; qtot -322.073090
10180         h1    352    ccc     H5  10180 0.04610000   1.008000   ; qtot -322.026990
10181         h1    352    ccc     H6  10181 0.04610000   1.008000   ; qtot -321.980890
10182         c3    352    ccc     C2  10182 -0.02540000  12.010000   ; qtot -322.006290
10183         hc    352    ccc     H3  10183 0.00850000   1.008000   ; qtot -321.997790
10184         hc    352    ccc     H4  10184 0.00850000   1.008000   ; qtot -321.989290
10185         c3    352    ccc     C1  10185 0.60210000  12.010000   ; qtot -321.387190
10186         h1    352    ccc     H1  10186 -0.09250000   1.008000   ; qtot -321.479690
10187         h1    352    ccc     H2  10187 -0.09250000   1.008000   ; qtot -321.572190
10188         n3    352    ccc     N1  10188 -0.59700000  14.010000   ; qtot -322.169190
10189         c3    352    ccc     C4  10189 0.32800000  12.010000   ; qtot -321.841190
10190         h1    352    ccc     H7  10190 -0.07120000   1.008000   ; qtot -321.912390
10191         h1    352    ccc     H8  10191 -0.07120000   1.008000   ; qtot -321.983590
10192         c3    352    ccc     C5  10192 -0.39330000  12.010000   ; qtot -322.376890
10193         hc    352    ccc     H9  10193 0.08130000   1.008000   ; qtot -322.295590
10194         hc    352    ccc    H10  10194 0.08130000   1.008000   ; qtot -322.214290
10195          c    352    ccc     C6  10195 1.08970000  12.010000   ; qtot -321.124590
10196          o    352    ccc     O2  10196 -0.96050000  16.000000   ; qtot -322.085090
10197          o    352    ccc     O3  10197 -0.96050000  16.000000   ; qtot -323.045590
10198         c3    352    ccc     C7  10198 0.32800000  12.010000   ; qtot -322.717590
10199         h1    352    ccc    H11  10199 -0.07120000   1.008000   ; qtot -322.788790
10200         h1    352    ccc    H12  10200 -0.07120000   1.008000   ; qtot -322.859990
10201         c3    352    ccc     C8  10201 -0.39330000  12.010000   ; qtot -323.253290
10202         hc    352    ccc    H13  10202 0.08130000   1.008000   ; qtot -323.171990
10203         hc    352    ccc    H14  10203 0.08130000   1.008000   ; qtot -323.090690
10204          c    352    ccc     C9  10204 1.08970000  12.010000   ; qtot -322.000990
10205          o    352    ccc     O4  10205 -0.96050000  16.000000   ; qtot -322.961490
10206          o    352    ccc     O5  10206 -0.96050000  16.000000   ; qtot -323.921990
10207         os    352    ccc     O1  10207 -0.11060000  16.000000   ; qtot -324.032590
; residue  353 ccc rtp ccc q -2.0
10208         c3    353    ccc     C3  10208 -0.04070000  12.010000   ; qtot -324.073290
10209         h1    353    ccc     H5  10209 0.04610000   1.008000   ; qtot -324.027190
10210         h1    353    ccc     H6  10210 0.04610000   1.008000   ; qtot -323.981090
10211         c3    353    ccc     C2  10211 -0.02540000  12.010000   ; qtot -324.006490
10212         hc    353    ccc     H3  10212 0.00850000   1.008000   ; qtot -323.997990
10213         hc    353    ccc     H4  10213 0.00850000   1.008000   ; qtot -323.989490
10214         c3    353    ccc     C1  10214 0.60210000  12.010000   ; qtot -323.387390
10215         h1    353    ccc     H1  10215 -0.09250000   1.008000   ; qtot -323.479890
10216         h1    353    ccc     H2  10216 -0.09250000   1.008000   ; qtot -323.572390
10217         n3    353    ccc     N1  10217 -0.59700000  14.010000   ; qtot -324.169390
10218         c3    353    ccc     C4  10218 0.32800000  12.010000   ; qtot -323.841390
10219         h1    353    ccc     H7  10219 -0.07120000   1.008000   ; qtot -323.912590
10220         h1    353    ccc     H8  10220 -0.07120000   1.008000   ; qtot -323.983790
10221         c3    353    ccc     C5  10221 -0.39330000  12.010000   ; qtot -324.377090
10222         hc    353    ccc     H9  10222 0.08130000   1.008000   ; qtot -324.295790
10223         hc    353    ccc    H10  10223 0.08130000   1.008000   ; qtot -324.214490
10224          c    353    ccc     C6  10224 1.08970000  12.010000   ; qtot -323.124790
10225          o    353    ccc     O2  10225 -0.96050000  16.000000   ; qtot -324.085290
10226          o    353    ccc     O3  10226 -0.96050000  16.000000   ; qtot -325.045790
10227         c3    353    ccc     C7  10227 0.32800000  12.010000   ; qtot -324.717790
10228         h1    353    ccc    H11  10228 -0.07120000   1.008000   ; qtot -324.788990
10229         h1    353    ccc    H12  10229 -0.07120000   1.008000   ; qtot -324.860190
10230         c3    353    ccc     C8  10230 -0.39330000  12.010000   ; qtot -325.253490
10231         hc    353    ccc    H13  10231 0.08130000   1.008000   ; qtot -325.172190
10232         hc    353    ccc    H14  10232 0.08130000   1.008000   ; qtot -325.090890
10233          c    353    ccc     C9  10233 1.08970000  12.010000   ; qtot -324.001190
10234          o    353    ccc     O4  10234 -0.96050000  16.000000   ; qtot -324.961690
10235          o    353    ccc     O5  10235 -0.96050000  16.000000   ; qtot -325.922190
10236         os    353    ccc     O1  10236 -0.11060000  16.000000   ; qtot -326.032790
; residue  354 ccc rtp ccc q -2.0
10237         c3    354    ccc     C3  10237 -0.04070000  12.010000   ; qtot -326.073490
10238         h1    354    ccc     H5  10238 0.04610000   1.008000   ; qtot -326.027390
10239         h1    354    ccc     H6  10239 0.04610000   1.008000   ; qtot -325.981290
10240         c3    354    ccc     C2  10240 -0.02540000  12.010000   ; qtot -326.006690
10241         hc    354    ccc     H3  10241 0.00850000   1.008000   ; qtot -325.998190
10242         hc    354    ccc     H4  10242 0.00850000   1.008000   ; qtot -325.989690
10243         c3    354    ccc     C1  10243 0.60210000  12.010000   ; qtot -325.387590
10244         h1    354    ccc     H1  10244 -0.09250000   1.008000   ; qtot -325.480090
10245         h1    354    ccc     H2  10245 -0.09250000   1.008000   ; qtot -325.572590
10246         n3    354    ccc     N1  10246 -0.59700000  14.010000   ; qtot -326.169590
10247         c3    354    ccc     C4  10247 0.32800000  12.010000   ; qtot -325.841590
10248         h1    354    ccc     H7  10248 -0.07120000   1.008000   ; qtot -325.912790
10249         h1    354    ccc     H8  10249 -0.07120000   1.008000   ; qtot -325.983990
10250         c3    354    ccc     C5  10250 -0.39330000  12.010000   ; qtot -326.377290
10251         hc    354    ccc     H9  10251 0.08130000   1.008000   ; qtot -326.295990
10252         hc    354    ccc    H10  10252 0.08130000   1.008000   ; qtot -326.214690
10253          c    354    ccc     C6  10253 1.08970000  12.010000   ; qtot -325.124990
10254          o    354    ccc     O2  10254 -0.96050000  16.000000   ; qtot -326.085490
10255          o    354    ccc     O3  10255 -0.96050000  16.000000   ; qtot -327.045990
10256         c3    354    ccc     C7  10256 0.32800000  12.010000   ; qtot -326.717990
10257         h1    354    ccc    H11  10257 -0.07120000   1.008000   ; qtot -326.789190
10258         h1    354    ccc    H12  10258 -0.07120000   1.008000   ; qtot -326.860390
10259         c3    354    ccc     C8  10259 -0.39330000  12.010000   ; qtot -327.253690
10260         hc    354    ccc    H13  10260 0.08130000   1.008000   ; qtot -327.172390
10261         hc    354    ccc    H14  10261 0.08130000   1.008000   ; qtot -327.091090
10262          c    354    ccc     C9  10262 1.08970000  12.010000   ; qtot -326.001390
10263          o    354    ccc     O4  10263 -0.96050000  16.000000   ; qtot -326.961890
10264          o    354    ccc     O5  10264 -0.96050000  16.000000   ; qtot -327.922390
10265         os    354    ccc     O1  10265 -0.11060000  16.000000   ; qtot -328.032990
; residue  355 ccc rtp ccc q -2.0
10266         c3    355    ccc     C3  10266 -0.04070000  12.010000   ; qtot -328.073690
10267         h1    355    ccc     H5  10267 0.04610000   1.008000   ; qtot -328.027590
10268         h1    355    ccc     H6  10268 0.04610000   1.008000   ; qtot -327.981490
10269         c3    355    ccc     C2  10269 -0.02540000  12.010000   ; qtot -328.006890
10270         hc    355    ccc     H3  10270 0.00850000   1.008000   ; qtot -327.998390
10271         hc    355    ccc     H4  10271 0.00850000   1.008000   ; qtot -327.989890
10272         c3    355    ccc     C1  10272 0.60210000  12.010000   ; qtot -327.387790
10273         h1    355    ccc     H1  10273 -0.09250000   1.008000   ; qtot -327.480290
10274         h1    355    ccc     H2  10274 -0.09250000   1.008000   ; qtot -327.572790
10275         n3    355    ccc     N1  10275 -0.59700000  14.010000   ; qtot -328.169790
10276         c3    355    ccc     C4  10276 0.32800000  12.010000   ; qtot -327.841790
10277         h1    355    ccc     H7  10277 -0.07120000   1.008000   ; qtot -327.912990
10278         h1    355    ccc     H8  10278 -0.07120000   1.008000   ; qtot -327.984190
10279         c3    355    ccc     C5  10279 -0.39330000  12.010000   ; qtot -328.377490
10280         hc    355    ccc     H9  10280 0.08130000   1.008000   ; qtot -328.296190
10281         hc    355    ccc    H10  10281 0.08130000   1.008000   ; qtot -328.214890
10282          c    355    ccc     C6  10282 1.08970000  12.010000   ; qtot -327.125190
10283          o    355    ccc     O2  10283 -0.96050000  16.000000   ; qtot -328.085690
10284          o    355    ccc     O3  10284 -0.96050000  16.000000   ; qtot -329.046190
10285         c3    355    ccc     C7  10285 0.32800000  12.010000   ; qtot -328.718190
10286         h1    355    ccc    H11  10286 -0.07120000   1.008000   ; qtot -328.789390
10287         h1    355    ccc    H12  10287 -0.07120000   1.008000   ; qtot -328.860590
10288         c3    355    ccc     C8  10288 -0.39330000  12.010000   ; qtot -329.253890
10289         hc    355    ccc    H13  10289 0.08130000   1.008000   ; qtot -329.172590
10290         hc    355    ccc    H14  10290 0.08130000   1.008000   ; qtot -329.091290
10291          c    355    ccc     C9  10291 1.08970000  12.010000   ; qtot -328.001590
10292          o    355    ccc     O4  10292 -0.96050000  16.000000   ; qtot -328.962090
10293          o    355    ccc     O5  10293 -0.96050000  16.000000   ; qtot -329.922590
10294         os    355    ccc     O1  10294 -0.11060000  16.000000   ; qtot -330.033190
; residue  356 ccc rtp ccc q -2.0
10295         c3    356    ccc     C3  10295 -0.04070000  12.010000   ; qtot -330.073890
10296         h1    356    ccc     H5  10296 0.04610000   1.008000   ; qtot -330.027790
10297         h1    356    ccc     H6  10297 0.04610000   1.008000   ; qtot -329.981690
10298         c3    356    ccc     C2  10298 -0.02540000  12.010000   ; qtot -330.007090
10299         hc    356    ccc     H3  10299 0.00850000   1.008000   ; qtot -329.998590
10300         hc    356    ccc     H4  10300 0.00850000   1.008000   ; qtot -329.990090
10301         c3    356    ccc     C1  10301 0.60210000  12.010000   ; qtot -329.387990
10302         h1    356    ccc     H1  10302 -0.09250000   1.008000   ; qtot -329.480490
10303         h1    356    ccc     H2  10303 -0.09250000   1.008000   ; qtot -329.572990
10304         n3    356    ccc     N1  10304 -0.59700000  14.010000   ; qtot -330.169990
10305         c3    356    ccc     C4  10305 0.32800000  12.010000   ; qtot -329.841990
10306         h1    356    ccc     H7  10306 -0.07120000   1.008000   ; qtot -329.913190
10307         h1    356    ccc     H8  10307 -0.07120000   1.008000   ; qtot -329.984390
10308         c3    356    ccc     C5  10308 -0.39330000  12.010000   ; qtot -330.377690
10309         hc    356    ccc     H9  10309 0.08130000   1.008000   ; qtot -330.296390
10310         hc    356    ccc    H10  10310 0.08130000   1.008000   ; qtot -330.215090
10311          c    356    ccc     C6  10311 1.08970000  12.010000   ; qtot -329.125390
10312          o    356    ccc     O2  10312 -0.96050000  16.000000   ; qtot -330.085890
10313          o    356    ccc     O3  10313 -0.96050000  16.000000   ; qtot -331.046390
10314         c3    356    ccc     C7  10314 0.32800000  12.010000   ; qtot -330.718390
10315         h1    356    ccc    H11  10315 -0.07120000   1.008000   ; qtot -330.789590
10316         h1    356    ccc    H12  10316 -0.07120000   1.008000   ; qtot -330.860790
10317         c3    356    ccc     C8  10317 -0.39330000  12.010000   ; qtot -331.254090
10318         hc    356    ccc    H13  10318 0.08130000   1.008000   ; qtot -331.172790
10319         hc    356    ccc    H14  10319 0.08130000   1.008000   ; qtot -331.091490
10320          c    356    ccc     C9  10320 1.08970000  12.010000   ; qtot -330.001790
10321          o    356    ccc     O4  10321 -0.96050000  16.000000   ; qtot -330.962291
10322          o    356    ccc     O5  10322 -0.96050000  16.000000   ; qtot -331.922791
10323         os    356    ccc     O1  10323 -0.11060000  16.000000   ; qtot -332.033391
; residue  357 ccc rtp ccc q -2.0
10324         c3    357    ccc     C3  10324 -0.04070000  12.010000   ; qtot -332.074091
10325         h1    357    ccc     H5  10325 0.04610000   1.008000   ; qtot -332.027991
10326         h1    357    ccc     H6  10326 0.04610000   1.008000   ; qtot -331.981891
10327         c3    357    ccc     C2  10327 -0.02540000  12.010000   ; qtot -332.007291
10328         hc    357    ccc     H3  10328 0.00850000   1.008000   ; qtot -331.998791
10329         hc    357    ccc     H4  10329 0.00850000   1.008000   ; qtot -331.990291
10330         c3    357    ccc     C1  10330 0.60210000  12.010000   ; qtot -331.388191
10331         h1    357    ccc     H1  10331 -0.09250000   1.008000   ; qtot -331.480691
10332         h1    357    ccc     H2  10332 -0.09250000   1.008000   ; qtot -331.573191
10333         n3    357    ccc     N1  10333 -0.59700000  14.010000   ; qtot -332.170191
10334         c3    357    ccc     C4  10334 0.32800000  12.010000   ; qtot -331.842191
10335         h1    357    ccc     H7  10335 -0.07120000   1.008000   ; qtot -331.913391
10336         h1    357    ccc     H8  10336 -0.07120000   1.008000   ; qtot -331.984591
10337         c3    357    ccc     C5  10337 -0.39330000  12.010000   ; qtot -332.377891
10338         hc    357    ccc     H9  10338 0.08130000   1.008000   ; qtot -332.296591
10339         hc    357    ccc    H10  10339 0.08130000   1.008000   ; qtot -332.215291
10340          c    357    ccc     C6  10340 1.08970000  12.010000   ; qtot -331.125591
10341          o    357    ccc     O2  10341 -0.96050000  16.000000   ; qtot -332.086091
10342          o    357    ccc     O3  10342 -0.96050000  16.000000   ; qtot -333.046591
10343         c3    357    ccc     C7  10343 0.32800000  12.010000   ; qtot -332.718591
10344         h1    357    ccc    H11  10344 -0.07120000   1.008000   ; qtot -332.789791
10345         h1    357    ccc    H12  10345 -0.07120000   1.008000   ; qtot -332.860991
10346         c3    357    ccc     C8  10346 -0.39330000  12.010000   ; qtot -333.254291
10347         hc    357    ccc    H13  10347 0.08130000   1.008000   ; qtot -333.172991
10348         hc    357    ccc    H14  10348 0.08130000   1.008000   ; qtot -333.091691
10349          c    357    ccc     C9  10349 1.08970000  12.010000   ; qtot -332.001991
10350          o    357    ccc     O4  10350 -0.96050000  16.000000   ; qtot -332.962491
10351          o    357    ccc     O5  10351 -0.96050000  16.000000   ; qtot -333.922991
10352         os    357    ccc     O1  10352 -0.11060000  16.000000   ; qtot -334.033591
; residue  358 ccc rtp ccc q -2.0
10353         c3    358    ccc     C3  10353 -0.04070000  12.010000   ; qtot -334.074291
10354         h1    358    ccc     H5  10354 0.04610000   1.008000   ; qtot -334.028191
10355         h1    358    ccc     H6  10355 0.04610000   1.008000   ; qtot -333.982091
10356         c3    358    ccc     C2  10356 -0.02540000  12.010000   ; qtot -334.007491
10357         hc    358    ccc     H3  10357 0.00850000   1.008000   ; qtot -333.998991
10358         hc    358    ccc     H4  10358 0.00850000   1.008000   ; qtot -333.990491
10359         c3    358    ccc     C1  10359 0.60210000  12.010000   ; qtot -333.388391
10360         h1    358    ccc     H1  10360 -0.09250000   1.008000   ; qtot -333.480891
10361         h1    358    ccc     H2  10361 -0.09250000   1.008000   ; qtot -333.573391
10362         n3    358    ccc     N1  10362 -0.59700000  14.010000   ; qtot -334.170391
10363         c3    358    ccc     C4  10363 0.32800000  12.010000   ; qtot -333.842391
10364         h1    358    ccc     H7  10364 -0.07120000   1.008000   ; qtot -333.913591
10365         h1    358    ccc     H8  10365 -0.07120000   1.008000   ; qtot -333.984791
10366         c3    358    ccc     C5  10366 -0.39330000  12.010000   ; qtot -334.378091
10367         hc    358    ccc     H9  10367 0.08130000   1.008000   ; qtot -334.296791
10368         hc    358    ccc    H10  10368 0.08130000   1.008000   ; qtot -334.215491
10369          c    358    ccc     C6  10369 1.08970000  12.010000   ; qtot -333.125791
10370          o    358    ccc     O2  10370 -0.96050000  16.000000   ; qtot -334.086291
10371          o    358    ccc     O3  10371 -0.96050000  16.000000   ; qtot -335.046791
10372         c3    358    ccc     C7  10372 0.32800000  12.010000   ; qtot -334.718791
10373         h1    358    ccc    H11  10373 -0.07120000   1.008000   ; qtot -334.789991
10374         h1    358    ccc    H12  10374 -0.07120000   1.008000   ; qtot -334.861191
10375         c3    358    ccc     C8  10375 -0.39330000  12.010000   ; qtot -335.254491
10376         hc    358    ccc    H13  10376 0.08130000   1.008000   ; qtot -335.173191
10377         hc    358    ccc    H14  10377 0.08130000   1.008000   ; qtot -335.091891
10378          c    358    ccc     C9  10378 1.08970000  12.010000   ; qtot -334.002191
10379          o    358    ccc     O4  10379 -0.96050000  16.000000   ; qtot -334.962691
10380          o    358    ccc     O5  10380 -0.96050000  16.000000   ; qtot -335.923191
10381         os    358    ccc     O1  10381 -0.11060000  16.000000   ; qtot -336.033791
; residue  359 ccc rtp ccc q -2.0
10382         c3    359    ccc     C3  10382 -0.04070000  12.010000   ; qtot -336.074491
10383         h1    359    ccc     H5  10383 0.04610000   1.008000   ; qtot -336.028391
10384         h1    359    ccc     H6  10384 0.04610000   1.008000   ; qtot -335.982291
10385         c3    359    ccc     C2  10385 -0.02540000  12.010000   ; qtot -336.007691
10386         hc    359    ccc     H3  10386 0.00850000   1.008000   ; qtot -335.999191
10387         hc    359    ccc     H4  10387 0.00850000   1.008000   ; qtot -335.990691
10388         c3    359    ccc     C1  10388 0.60210000  12.010000   ; qtot -335.388591
10389         h1    359    ccc     H1  10389 -0.09250000   1.008000   ; qtot -335.481091
10390         h1    359    ccc     H2  10390 -0.09250000   1.008000   ; qtot -335.573591
10391         n3    359    ccc     N1  10391 -0.59700000  14.010000   ; qtot -336.170591
10392         c3    359    ccc     C4  10392 0.32800000  12.010000   ; qtot -335.842591
10393         h1    359    ccc     H7  10393 -0.07120000   1.008000   ; qtot -335.913791
10394         h1    359    ccc     H8  10394 -0.07120000   1.008000   ; qtot -335.984991
10395         c3    359    ccc     C5  10395 -0.39330000  12.010000   ; qtot -336.378291
10396         hc    359    ccc     H9  10396 0.08130000   1.008000   ; qtot -336.296991
10397         hc    359    ccc    H10  10397 0.08130000   1.008000   ; qtot -336.215691
10398          c    359    ccc     C6  10398 1.08970000  12.010000   ; qtot -335.125991
10399          o    359    ccc     O2  10399 -0.96050000  16.000000   ; qtot -336.086491
10400          o    359    ccc     O3  10400 -0.96050000  16.000000   ; qtot -337.046991
10401         c3    359    ccc     C7  10401 0.32800000  12.010000   ; qtot -336.718991
10402         h1    359    ccc    H11  10402 -0.07120000   1.008000   ; qtot -336.790191
10403         h1    359    ccc    H12  10403 -0.07120000   1.008000   ; qtot -336.861391
10404         c3    359    ccc     C8  10404 -0.39330000  12.010000   ; qtot -337.254691
10405         hc    359    ccc    H13  10405 0.08130000   1.008000   ; qtot -337.173391
10406         hc    359    ccc    H14  10406 0.08130000   1.008000   ; qtot -337.092091
10407          c    359    ccc     C9  10407 1.08970000  12.010000   ; qtot -336.002391
10408          o    359    ccc     O4  10408 -0.96050000  16.000000   ; qtot -336.962891
10409          o    359    ccc     O5  10409 -0.96050000  16.000000   ; qtot -337.923391
10410         os    359    ccc     O1  10410 -0.11060000  16.000000   ; qtot -338.033991
; residue  360 ccc rtp ccc q -2.0
10411         c3    360    ccc     C3  10411 -0.04070000  12.010000   ; qtot -338.074691
10412         h1    360    ccc     H5  10412 0.04610000   1.008000   ; qtot -338.028591
10413         h1    360    ccc     H6  10413 0.04610000   1.008000   ; qtot -337.982491
10414         c3    360    ccc     C2  10414 -0.02540000  12.010000   ; qtot -338.007891
10415         hc    360    ccc     H3  10415 0.00850000   1.008000   ; qtot -337.999391
10416         hc    360    ccc     H4  10416 0.00850000   1.008000   ; qtot -337.990891
10417         c3    360    ccc     C1  10417 0.60210000  12.010000   ; qtot -337.388791
10418         h1    360    ccc     H1  10418 -0.09250000   1.008000   ; qtot -337.481291
10419         h1    360    ccc     H2  10419 -0.09250000   1.008000   ; qtot -337.573791
10420         n3    360    ccc     N1  10420 -0.59700000  14.010000   ; qtot -338.170791
10421         c3    360    ccc     C4  10421 0.32800000  12.010000   ; qtot -337.842791
10422         h1    360    ccc     H7  10422 -0.07120000   1.008000   ; qtot -337.913991
10423         h1    360    ccc     H8  10423 -0.07120000   1.008000   ; qtot -337.985191
10424         c3    360    ccc     C5  10424 -0.39330000  12.010000   ; qtot -338.378491
10425         hc    360    ccc     H9  10425 0.08130000   1.008000   ; qtot -338.297191
10426         hc    360    ccc    H10  10426 0.08130000   1.008000   ; qtot -338.215891
10427          c    360    ccc     C6  10427 1.08970000  12.010000   ; qtot -337.126191
10428          o    360    ccc     O2  10428 -0.96050000  16.000000   ; qtot -338.086691
10429          o    360    ccc     O3  10429 -0.96050000  16.000000   ; qtot -339.047191
10430         c3    360    ccc     C7  10430 0.32800000  12.010000   ; qtot -338.719191
10431         h1    360    ccc    H11  10431 -0.07120000   1.008000   ; qtot -338.790391
10432         h1    360    ccc    H12  10432 -0.07120000   1.008000   ; qtot -338.861591
10433         c3    360    ccc     C8  10433 -0.39330000  12.010000   ; qtot -339.254891
10434         hc    360    ccc    H13  10434 0.08130000   1.008000   ; qtot -339.173591
10435         hc    360    ccc    H14  10435 0.08130000   1.008000   ; qtot -339.092291
10436          c    360    ccc     C9  10436 1.08970000  12.010000   ; qtot -338.002591
10437          o    360    ccc     O4  10437 -0.96050000  16.000000   ; qtot -338.963091
10438          o    360    ccc     O5  10438 -0.96050000  16.000000   ; qtot -339.923591
10439         os    360    ccc     O1  10439 -0.11060000  16.000000   ; qtot -340.034191
; residue  361 ccc rtp ccc q -2.0
10440         c3    361    ccc     C3  10440 -0.04070000  12.010000   ; qtot -340.074891
10441         h1    361    ccc     H5  10441 0.04610000   1.008000   ; qtot -340.028791
10442         h1    361    ccc     H6  10442 0.04610000   1.008000   ; qtot -339.982691
10443         c3    361    ccc     C2  10443 -0.02540000  12.010000   ; qtot -340.008091
10444         hc    361    ccc     H3  10444 0.00850000   1.008000   ; qtot -339.999591
10445         hc    361    ccc     H4  10445 0.00850000   1.008000   ; qtot -339.991091
10446         c3    361    ccc     C1  10446 0.60210000  12.010000   ; qtot -339.388991
10447         h1    361    ccc     H1  10447 -0.09250000   1.008000   ; qtot -339.481491
10448         h1    361    ccc     H2  10448 -0.09250000   1.008000   ; qtot -339.573991
10449         n3    361    ccc     N1  10449 -0.59700000  14.010000   ; qtot -340.170991
10450         c3    361    ccc     C4  10450 0.32800000  12.010000   ; qtot -339.842991
10451         h1    361    ccc     H7  10451 -0.07120000   1.008000   ; qtot -339.914191
10452         h1    361    ccc     H8  10452 -0.07120000   1.008000   ; qtot -339.985391
10453         c3    361    ccc     C5  10453 -0.39330000  12.010000   ; qtot -340.378691
10454         hc    361    ccc     H9  10454 0.08130000   1.008000   ; qtot -340.297391
10455         hc    361    ccc    H10  10455 0.08130000   1.008000   ; qtot -340.216091
10456          c    361    ccc     C6  10456 1.08970000  12.010000   ; qtot -339.126391
10457          o    361    ccc     O2  10457 -0.96050000  16.000000   ; qtot -340.086891
10458          o    361    ccc     O3  10458 -0.96050000  16.000000   ; qtot -341.047391
10459         c3    361    ccc     C7  10459 0.32800000  12.010000   ; qtot -340.719391
10460         h1    361    ccc    H11  10460 -0.07120000   1.008000   ; qtot -340.790591
10461         h1    361    ccc    H12  10461 -0.07120000   1.008000   ; qtot -340.861791
10462         c3    361    ccc     C8  10462 -0.39330000  12.010000   ; qtot -341.255091
10463         hc    361    ccc    H13  10463 0.08130000   1.008000   ; qtot -341.173791
10464         hc    361    ccc    H14  10464 0.08130000   1.008000   ; qtot -341.092491
10465          c    361    ccc     C9  10465 1.08970000  12.010000   ; qtot -340.002791
10466          o    361    ccc     O4  10466 -0.96050000  16.000000   ; qtot -340.963291
10467          o    361    ccc     O5  10467 -0.96050000  16.000000   ; qtot -341.923791
10468         os    361    ccc     O1  10468 -0.11060000  16.000000   ; qtot -342.034391
; residue  362 ccc rtp ccc q -2.0
10469         c3    362    ccc     C3  10469 -0.04070000  12.010000   ; qtot -342.075091
10470         h1    362    ccc     H5  10470 0.04610000   1.008000   ; qtot -342.028991
10471         h1    362    ccc     H6  10471 0.04610000   1.008000   ; qtot -341.982891
10472         c3    362    ccc     C2  10472 -0.02540000  12.010000   ; qtot -342.008291
10473         hc    362    ccc     H3  10473 0.00850000   1.008000   ; qtot -341.999791
10474         hc    362    ccc     H4  10474 0.00850000   1.008000   ; qtot -341.991291
10475         c3    362    ccc     C1  10475 0.60210000  12.010000   ; qtot -341.389191
10476         h1    362    ccc     H1  10476 -0.09250000   1.008000   ; qtot -341.481691
10477         h1    362    ccc     H2  10477 -0.09250000   1.008000   ; qtot -341.574191
10478         n3    362    ccc     N1  10478 -0.59700000  14.010000   ; qtot -342.171191
10479         c3    362    ccc     C4  10479 0.32800000  12.010000   ; qtot -341.843191
10480         h1    362    ccc     H7  10480 -0.07120000   1.008000   ; qtot -341.914391
10481         h1    362    ccc     H8  10481 -0.07120000   1.008000   ; qtot -341.985591
10482         c3    362    ccc     C5  10482 -0.39330000  12.010000   ; qtot -342.378891
10483         hc    362    ccc     H9  10483 0.08130000   1.008000   ; qtot -342.297591
10484         hc    362    ccc    H10  10484 0.08130000   1.008000   ; qtot -342.216291
10485          c    362    ccc     C6  10485 1.08970000  12.010000   ; qtot -341.126591
10486          o    362    ccc     O2  10486 -0.96050000  16.000000   ; qtot -342.087091
10487          o    362    ccc     O3  10487 -0.96050000  16.000000   ; qtot -343.047591
10488         c3    362    ccc     C7  10488 0.32800000  12.010000   ; qtot -342.719591
10489         h1    362    ccc    H11  10489 -0.07120000   1.008000   ; qtot -342.790791
10490         h1    362    ccc    H12  10490 -0.07120000   1.008000   ; qtot -342.861991
10491         c3    362    ccc     C8  10491 -0.39330000  12.010000   ; qtot -343.255291
10492         hc    362    ccc    H13  10492 0.08130000   1.008000   ; qtot -343.173991
10493         hc    362    ccc    H14  10493 0.08130000   1.008000   ; qtot -343.092691
10494          c    362    ccc     C9  10494 1.08970000  12.010000   ; qtot -342.002991
10495          o    362    ccc     O4  10495 -0.96050000  16.000000   ; qtot -342.963491
10496          o    362    ccc     O5  10496 -0.96050000  16.000000   ; qtot -343.923991
10497         os    362    ccc     O1  10497 -0.11060000  16.000000   ; qtot -344.034591
; residue  363 ccc rtp ccc q -2.0
10498         c3    363    ccc     C3  10498 -0.04070000  12.010000   ; qtot -344.075291
10499         h1    363    ccc     H5  10499 0.04610000   1.008000   ; qtot -344.029191
10500         h1    363    ccc     H6  10500 0.04610000   1.008000   ; qtot -343.983091
10501         c3    363    ccc     C2  10501 -0.02540000  12.010000   ; qtot -344.008491
10502         hc    363    ccc     H3  10502 0.00850000   1.008000   ; qtot -343.999991
10503         hc    363    ccc     H4  10503 0.00850000   1.008000   ; qtot -343.991491
10504         c3    363    ccc     C1  10504 0.60210000  12.010000   ; qtot -343.389391
10505         h1    363    ccc     H1  10505 -0.09250000   1.008000   ; qtot -343.481891
10506         h1    363    ccc     H2  10506 -0.09250000   1.008000   ; qtot -343.574391
10507         n3    363    ccc     N1  10507 -0.59700000  14.010000   ; qtot -344.171391
10508         c3    363    ccc     C4  10508 0.32800000  12.010000   ; qtot -343.843391
10509         h1    363    ccc     H7  10509 -0.07120000   1.008000   ; qtot -343.914591
10510         h1    363    ccc     H8  10510 -0.07120000   1.008000   ; qtot -343.985791
10511         c3    363    ccc     C5  10511 -0.39330000  12.010000   ; qtot -344.379091
10512         hc    363    ccc     H9  10512 0.08130000   1.008000   ; qtot -344.297791
10513         hc    363    ccc    H10  10513 0.08130000   1.008000   ; qtot -344.216491
10514          c    363    ccc     C6  10514 1.08970000  12.010000   ; qtot -343.126791
10515          o    363    ccc     O2  10515 -0.96050000  16.000000   ; qtot -344.087291
10516          o    363    ccc     O3  10516 -0.96050000  16.000000   ; qtot -345.047791
10517         c3    363    ccc     C7  10517 0.32800000  12.010000   ; qtot -344.719791
10518         h1    363    ccc    H11  10518 -0.07120000   1.008000   ; qtot -344.790991
10519         h1    363    ccc    H12  10519 -0.07120000   1.008000   ; qtot -344.862191
10520         c3    363    ccc     C8  10520 -0.39330000  12.010000   ; qtot -345.255491
10521         hc    363    ccc    H13  10521 0.08130000   1.008000   ; qtot -345.174191
10522         hc    363    ccc    H14  10522 0.08130000   1.008000   ; qtot -345.092891
10523          c    363    ccc     C9  10523 1.08970000  12.010000   ; qtot -344.003191
10524          o    363    ccc     O4  10524 -0.96050000  16.000000   ; qtot -344.963691
10525          o    363    ccc     O5  10525 -0.96050000  16.000000   ; qtot -345.924191
10526         os    363    ccc     O1  10526 -0.11060000  16.000000   ; qtot -346.034791
; residue  364 ccc rtp ccc q -2.0
10527         c3    364    ccc     C3  10527 -0.04070000  12.010000   ; qtot -346.075491
10528         h1    364    ccc     H5  10528 0.04610000   1.008000   ; qtot -346.029391
10529         h1    364    ccc     H6  10529 0.04610000   1.008000   ; qtot -345.983291
10530         c3    364    ccc     C2  10530 -0.02540000  12.010000   ; qtot -346.008691
10531         hc    364    ccc     H3  10531 0.00850000   1.008000   ; qtot -346.000191
10532         hc    364    ccc     H4  10532 0.00850000   1.008000   ; qtot -345.991691
10533         c3    364    ccc     C1  10533 0.60210000  12.010000   ; qtot -345.389591
10534         h1    364    ccc     H1  10534 -0.09250000   1.008000   ; qtot -345.482091
10535         h1    364    ccc     H2  10535 -0.09250000   1.008000   ; qtot -345.574591
10536         n3    364    ccc     N1  10536 -0.59700000  14.010000   ; qtot -346.171591
10537         c3    364    ccc     C4  10537 0.32800000  12.010000   ; qtot -345.843591
10538         h1    364    ccc     H7  10538 -0.07120000   1.008000   ; qtot -345.914791
10539         h1    364    ccc     H8  10539 -0.07120000   1.008000   ; qtot -345.985991
10540         c3    364    ccc     C5  10540 -0.39330000  12.010000   ; qtot -346.379291
10541         hc    364    ccc     H9  10541 0.08130000   1.008000   ; qtot -346.297991
10542         hc    364    ccc    H10  10542 0.08130000   1.008000   ; qtot -346.216691
10543          c    364    ccc     C6  10543 1.08970000  12.010000   ; qtot -345.126991
10544          o    364    ccc     O2  10544 -0.96050000  16.000000   ; qtot -346.087491
10545          o    364    ccc     O3  10545 -0.96050000  16.000000   ; qtot -347.047991
10546         c3    364    ccc     C7  10546 0.32800000  12.010000   ; qtot -346.719991
10547         h1    364    ccc    H11  10547 -0.07120000   1.008000   ; qtot -346.791191
10548         h1    364    ccc    H12  10548 -0.07120000   1.008000   ; qtot -346.862391
10549         c3    364    ccc     C8  10549 -0.39330000  12.010000   ; qtot -347.255691
10550         hc    364    ccc    H13  10550 0.08130000   1.008000   ; qtot -347.174391
10551         hc    364    ccc    H14  10551 0.08130000   1.008000   ; qtot -347.093091
10552          c    364    ccc     C9  10552 1.08970000  12.010000   ; qtot -346.003391
10553          o    364    ccc     O4  10553 -0.96050000  16.000000   ; qtot -346.963891
10554          o    364    ccc     O5  10554 -0.96050000  16.000000   ; qtot -347.924391
10555         os    364    ccc     O1  10555 -0.11060000  16.000000   ; qtot -348.034991
; residue  365 ccc rtp ccc q -2.0
10556         c3    365    ccc     C3  10556 -0.04070000  12.010000   ; qtot -348.075691
10557         h1    365    ccc     H5  10557 0.04610000   1.008000   ; qtot -348.029591
10558         h1    365    ccc     H6  10558 0.04610000   1.008000   ; qtot -347.983491
10559         c3    365    ccc     C2  10559 -0.02540000  12.010000   ; qtot -348.008891
10560         hc    365    ccc     H3  10560 0.00850000   1.008000   ; qtot -348.000391
10561         hc    365    ccc     H4  10561 0.00850000   1.008000   ; qtot -347.991891
10562         c3    365    ccc     C1  10562 0.60210000  12.010000   ; qtot -347.389791
10563         h1    365    ccc     H1  10563 -0.09250000   1.008000   ; qtot -347.482291
10564         h1    365    ccc     H2  10564 -0.09250000   1.008000   ; qtot -347.574791
10565         n3    365    ccc     N1  10565 -0.59700000  14.010000   ; qtot -348.171791
10566         c3    365    ccc     C4  10566 0.32800000  12.010000   ; qtot -347.843791
10567         h1    365    ccc     H7  10567 -0.07120000   1.008000   ; qtot -347.914991
10568         h1    365    ccc     H8  10568 -0.07120000   1.008000   ; qtot -347.986191
10569         c3    365    ccc     C5  10569 -0.39330000  12.010000   ; qtot -348.379491
10570         hc    365    ccc     H9  10570 0.08130000   1.008000   ; qtot -348.298191
10571         hc    365    ccc    H10  10571 0.08130000   1.008000   ; qtot -348.216891
10572          c    365    ccc     C6  10572 1.08970000  12.010000   ; qtot -347.127191
10573          o    365    ccc     O2  10573 -0.96050000  16.000000   ; qtot -348.087691
10574          o    365    ccc     O3  10574 -0.96050000  16.000000   ; qtot -349.048191
10575         c3    365    ccc     C7  10575 0.32800000  12.010000   ; qtot -348.720191
10576         h1    365    ccc    H11  10576 -0.07120000   1.008000   ; qtot -348.791391
10577         h1    365    ccc    H12  10577 -0.07120000   1.008000   ; qtot -348.862591
10578         c3    365    ccc     C8  10578 -0.39330000  12.010000   ; qtot -349.255891
10579         hc    365    ccc    H13  10579 0.08130000   1.008000   ; qtot -349.174591
10580         hc    365    ccc    H14  10580 0.08130000   1.008000   ; qtot -349.093291
10581          c    365    ccc     C9  10581 1.08970000  12.010000   ; qtot -348.003591
10582          o    365    ccc     O4  10582 -0.96050000  16.000000   ; qtot -348.964091
10583          o    365    ccc     O5  10583 -0.96050000  16.000000   ; qtot -349.924591
10584         os    365    ccc     O1  10584 -0.11060000  16.000000   ; qtot -350.035191
; residue  366 ccc rtp ccc q -2.0
10585         c3    366    ccc     C3  10585 -0.04070000  12.010000   ; qtot -350.075891
10586         h1    366    ccc     H5  10586 0.04610000   1.008000   ; qtot -350.029791
10587         h1    366    ccc     H6  10587 0.04610000   1.008000   ; qtot -349.983691
10588         c3    366    ccc     C2  10588 -0.02540000  12.010000   ; qtot -350.009091
10589         hc    366    ccc     H3  10589 0.00850000   1.008000   ; qtot -350.000591
10590         hc    366    ccc     H4  10590 0.00850000   1.008000   ; qtot -349.992091
10591         c3    366    ccc     C1  10591 0.60210000  12.010000   ; qtot -349.389991
10592         h1    366    ccc     H1  10592 -0.09250000   1.008000   ; qtot -349.482491
10593         h1    366    ccc     H2  10593 -0.09250000   1.008000   ; qtot -349.574991
10594         n3    366    ccc     N1  10594 -0.59700000  14.010000   ; qtot -350.171991
10595         c3    366    ccc     C4  10595 0.32800000  12.010000   ; qtot -349.843991
10596         h1    366    ccc     H7  10596 -0.07120000   1.008000   ; qtot -349.915191
10597         h1    366    ccc     H8  10597 -0.07120000   1.008000   ; qtot -349.986391
10598         c3    366    ccc     C5  10598 -0.39330000  12.010000   ; qtot -350.379691
10599         hc    366    ccc     H9  10599 0.08130000   1.008000   ; qtot -350.298391
10600         hc    366    ccc    H10  10600 0.08130000   1.008000   ; qtot -350.217091
10601          c    366    ccc     C6  10601 1.08970000  12.010000   ; qtot -349.127391
10602          o    366    ccc     O2  10602 -0.96050000  16.000000   ; qtot -350.087891
10603          o    366    ccc     O3  10603 -0.96050000  16.000000   ; qtot -351.048391
10604         c3    366    ccc     C7  10604 0.32800000  12.010000   ; qtot -350.720391
10605         h1    366    ccc    H11  10605 -0.07120000   1.008000   ; qtot -350.791591
10606         h1    366    ccc    H12  10606 -0.07120000   1.008000   ; qtot -350.862791
10607         c3    366    ccc     C8  10607 -0.39330000  12.010000   ; qtot -351.256091
10608         hc    366    ccc    H13  10608 0.08130000   1.008000   ; qtot -351.174791
10609         hc    366    ccc    H14  10609 0.08130000   1.008000   ; qtot -351.093491
10610          c    366    ccc     C9  10610 1.08970000  12.010000   ; qtot -350.003791
10611          o    366    ccc     O4  10611 -0.96050000  16.000000   ; qtot -350.964291
10612          o    366    ccc     O5  10612 -0.96050000  16.000000   ; qtot -351.924791
10613         os    366    ccc     O1  10613 -0.11060000  16.000000   ; qtot -352.035391
; residue  367 ccc rtp ccc q -2.0
10614         c3    367    ccc     C3  10614 -0.04070000  12.010000   ; qtot -352.076091
10615         h1    367    ccc     H5  10615 0.04610000   1.008000   ; qtot -352.029991
10616         h1    367    ccc     H6  10616 0.04610000   1.008000   ; qtot -351.983891
10617         c3    367    ccc     C2  10617 -0.02540000  12.010000   ; qtot -352.009291
10618         hc    367    ccc     H3  10618 0.00850000   1.008000   ; qtot -352.000791
10619         hc    367    ccc     H4  10619 0.00850000   1.008000   ; qtot -351.992291
10620         c3    367    ccc     C1  10620 0.60210000  12.010000   ; qtot -351.390191
10621         h1    367    ccc     H1  10621 -0.09250000   1.008000   ; qtot -351.482691
10622         h1    367    ccc     H2  10622 -0.09250000   1.008000   ; qtot -351.575191
10623         n3    367    ccc     N1  10623 -0.59700000  14.010000   ; qtot -352.172191
10624         c3    367    ccc     C4  10624 0.32800000  12.010000   ; qtot -351.844191
10625         h1    367    ccc     H7  10625 -0.07120000   1.008000   ; qtot -351.915391
10626         h1    367    ccc     H8  10626 -0.07120000   1.008000   ; qtot -351.986591
10627         c3    367    ccc     C5  10627 -0.39330000  12.010000   ; qtot -352.379891
10628         hc    367    ccc     H9  10628 0.08130000   1.008000   ; qtot -352.298591
10629         hc    367    ccc    H10  10629 0.08130000   1.008000   ; qtot -352.217291
10630          c    367    ccc     C6  10630 1.08970000  12.010000   ; qtot -351.127591
10631          o    367    ccc     O2  10631 -0.96050000  16.000000   ; qtot -352.088091
10632          o    367    ccc     O3  10632 -0.96050000  16.000000   ; qtot -353.048591
10633         c3    367    ccc     C7  10633 0.32800000  12.010000   ; qtot -352.720591
10634         h1    367    ccc    H11  10634 -0.07120000   1.008000   ; qtot -352.791791
10635         h1    367    ccc    H12  10635 -0.07120000   1.008000   ; qtot -352.862991
10636         c3    367    ccc     C8  10636 -0.39330000  12.010000   ; qtot -353.256291
10637         hc    367    ccc    H13  10637 0.08130000   1.008000   ; qtot -353.174991
10638         hc    367    ccc    H14  10638 0.08130000   1.008000   ; qtot -353.093691
10639          c    367    ccc     C9  10639 1.08970000  12.010000   ; qtot -352.003991
10640          o    367    ccc     O4  10640 -0.96050000  16.000000   ; qtot -352.964491
10641          o    367    ccc     O5  10641 -0.96050000  16.000000   ; qtot -353.924991
10642         os    367    ccc     O1  10642 -0.11060000  16.000000   ; qtot -354.035591
; residue  368 ccc rtp ccc q -2.0
10643         c3    368    ccc     C3  10643 -0.04070000  12.010000   ; qtot -354.076291
10644         h1    368    ccc     H5  10644 0.04610000   1.008000   ; qtot -354.030191
10645         h1    368    ccc     H6  10645 0.04610000   1.008000   ; qtot -353.984091
10646         c3    368    ccc     C2  10646 -0.02540000  12.010000   ; qtot -354.009491
10647         hc    368    ccc     H3  10647 0.00850000   1.008000   ; qtot -354.000991
10648         hc    368    ccc     H4  10648 0.00850000   1.008000   ; qtot -353.992491
10649         c3    368    ccc     C1  10649 0.60210000  12.010000   ; qtot -353.390391
10650         h1    368    ccc     H1  10650 -0.09250000   1.008000   ; qtot -353.482891
10651         h1    368    ccc     H2  10651 -0.09250000   1.008000   ; qtot -353.575391
10652         n3    368    ccc     N1  10652 -0.59700000  14.010000   ; qtot -354.172391
10653         c3    368    ccc     C4  10653 0.32800000  12.010000   ; qtot -353.844391
10654         h1    368    ccc     H7  10654 -0.07120000   1.008000   ; qtot -353.915591
10655         h1    368    ccc     H8  10655 -0.07120000   1.008000   ; qtot -353.986791
10656         c3    368    ccc     C5  10656 -0.39330000  12.010000   ; qtot -354.380091
10657         hc    368    ccc     H9  10657 0.08130000   1.008000   ; qtot -354.298791
10658         hc    368    ccc    H10  10658 0.08130000   1.008000   ; qtot -354.217491
10659          c    368    ccc     C6  10659 1.08970000  12.010000   ; qtot -353.127791
10660          o    368    ccc     O2  10660 -0.96050000  16.000000   ; qtot -354.088291
10661          o    368    ccc     O3  10661 -0.96050000  16.000000   ; qtot -355.048791
10662         c3    368    ccc     C7  10662 0.32800000  12.010000   ; qtot -354.720791
10663         h1    368    ccc    H11  10663 -0.07120000   1.008000   ; qtot -354.791991
10664         h1    368    ccc    H12  10664 -0.07120000   1.008000   ; qtot -354.863191
10665         c3    368    ccc     C8  10665 -0.39330000  12.010000   ; qtot -355.256491
10666         hc    368    ccc    H13  10666 0.08130000   1.008000   ; qtot -355.175191
10667         hc    368    ccc    H14  10667 0.08130000   1.008000   ; qtot -355.093891
10668          c    368    ccc     C9  10668 1.08970000  12.010000   ; qtot -354.004191
10669          o    368    ccc     O4  10669 -0.96050000  16.000000   ; qtot -354.964691
10670          o    368    ccc     O5  10670 -0.96050000  16.000000   ; qtot -355.925191
10671         os    368    ccc     O1  10671 -0.11060000  16.000000   ; qtot -356.035791
; residue  369 ccc rtp ccc q -2.0
10672         c3    369    ccc     C3  10672 -0.04070000  12.010000   ; qtot -356.076491
10673         h1    369    ccc     H5  10673 0.04610000   1.008000   ; qtot -356.030391
10674         h1    369    ccc     H6  10674 0.04610000   1.008000   ; qtot -355.984291
10675         c3    369    ccc     C2  10675 -0.02540000  12.010000   ; qtot -356.009691
10676         hc    369    ccc     H3  10676 0.00850000   1.008000   ; qtot -356.001191
10677         hc    369    ccc     H4  10677 0.00850000   1.008000   ; qtot -355.992691
10678         c3    369    ccc     C1  10678 0.60210000  12.010000   ; qtot -355.390591
10679         h1    369    ccc     H1  10679 -0.09250000   1.008000   ; qtot -355.483091
10680         h1    369    ccc     H2  10680 -0.09250000   1.008000   ; qtot -355.575591
10681         n3    369    ccc     N1  10681 -0.59700000  14.010000   ; qtot -356.172591
10682         c3    369    ccc     C4  10682 0.32800000  12.010000   ; qtot -355.844591
10683         h1    369    ccc     H7  10683 -0.07120000   1.008000   ; qtot -355.915791
10684         h1    369    ccc     H8  10684 -0.07120000   1.008000   ; qtot -355.986991
10685         c3    369    ccc     C5  10685 -0.39330000  12.010000   ; qtot -356.380291
10686         hc    369    ccc     H9  10686 0.08130000   1.008000   ; qtot -356.298991
10687         hc    369    ccc    H10  10687 0.08130000   1.008000   ; qtot -356.217691
10688          c    369    ccc     C6  10688 1.08970000  12.010000   ; qtot -355.127991
10689          o    369    ccc     O2  10689 -0.96050000  16.000000   ; qtot -356.088491
10690          o    369    ccc     O3  10690 -0.96050000  16.000000   ; qtot -357.048991
10691         c3    369    ccc     C7  10691 0.32800000  12.010000   ; qtot -356.720991
10692         h1    369    ccc    H11  10692 -0.07120000   1.008000   ; qtot -356.792191
10693         h1    369    ccc    H12  10693 -0.07120000   1.008000   ; qtot -356.863391
10694         c3    369    ccc     C8  10694 -0.39330000  12.010000   ; qtot -357.256691
10695         hc    369    ccc    H13  10695 0.08130000   1.008000   ; qtot -357.175391
10696         hc    369    ccc    H14  10696 0.08130000   1.008000   ; qtot -357.094091
10697          c    369    ccc     C9  10697 1.08970000  12.010000   ; qtot -356.004391
10698          o    369    ccc     O4  10698 -0.96050000  16.000000   ; qtot -356.964891
10699          o    369    ccc     O5  10699 -0.96050000  16.000000   ; qtot -357.925391
10700         os    369    ccc     O1  10700 -0.11060000  16.000000   ; qtot -358.035991
; residue  370 ccc rtp ccc q -2.0
10701         c3    370    ccc     C3  10701 -0.04070000  12.010000   ; qtot -358.076691
10702         h1    370    ccc     H5  10702 0.04610000   1.008000   ; qtot -358.030591
10703         h1    370    ccc     H6  10703 0.04610000   1.008000   ; qtot -357.984491
10704         c3    370    ccc     C2  10704 -0.02540000  12.010000   ; qtot -358.009891
10705         hc    370    ccc     H3  10705 0.00850000   1.008000   ; qtot -358.001391
10706         hc    370    ccc     H4  10706 0.00850000   1.008000   ; qtot -357.992891
10707         c3    370    ccc     C1  10707 0.60210000  12.010000   ; qtot -357.390791
10708         h1    370    ccc     H1  10708 -0.09250000   1.008000   ; qtot -357.483291
10709         h1    370    ccc     H2  10709 -0.09250000   1.008000   ; qtot -357.575791
10710         n3    370    ccc     N1  10710 -0.59700000  14.010000   ; qtot -358.172791
10711         c3    370    ccc     C4  10711 0.32800000  12.010000   ; qtot -357.844791
10712         h1    370    ccc     H7  10712 -0.07120000   1.008000   ; qtot -357.915991
10713         h1    370    ccc     H8  10713 -0.07120000   1.008000   ; qtot -357.987191
10714         c3    370    ccc     C5  10714 -0.39330000  12.010000   ; qtot -358.380491
10715         hc    370    ccc     H9  10715 0.08130000   1.008000   ; qtot -358.299191
10716         hc    370    ccc    H10  10716 0.08130000   1.008000   ; qtot -358.217891
10717          c    370    ccc     C6  10717 1.08970000  12.010000   ; qtot -357.128191
10718          o    370    ccc     O2  10718 -0.96050000  16.000000   ; qtot -358.088691
10719          o    370    ccc     O3  10719 -0.96050000  16.000000   ; qtot -359.049191
10720         c3    370    ccc     C7  10720 0.32800000  12.010000   ; qtot -358.721191
10721         h1    370    ccc    H11  10721 -0.07120000   1.008000   ; qtot -358.792391
10722         h1    370    ccc    H12  10722 -0.07120000   1.008000   ; qtot -358.863591
10723         c3    370    ccc     C8  10723 -0.39330000  12.010000   ; qtot -359.256891
10724         hc    370    ccc    H13  10724 0.08130000   1.008000   ; qtot -359.175591
10725         hc    370    ccc    H14  10725 0.08130000   1.008000   ; qtot -359.094291
10726          c    370    ccc     C9  10726 1.08970000  12.010000   ; qtot -358.004591
10727          o    370    ccc     O4  10727 -0.96050000  16.000000   ; qtot -358.965091
10728          o    370    ccc     O5  10728 -0.96050000  16.000000   ; qtot -359.925591
10729         os    370    ccc     O1  10729 -0.11060000  16.000000   ; qtot -360.036191
; residue  371 ccc rtp ccc q -2.0
10730         c3    371    ccc     C3  10730 -0.04070000  12.010000   ; qtot -360.076891
10731         h1    371    ccc     H5  10731 0.04610000   1.008000   ; qtot -360.030791
10732         h1    371    ccc     H6  10732 0.04610000   1.008000   ; qtot -359.984691
10733         c3    371    ccc     C2  10733 -0.02540000  12.010000   ; qtot -360.010091
10734         hc    371    ccc     H3  10734 0.00850000   1.008000   ; qtot -360.001591
10735         hc    371    ccc     H4  10735 0.00850000   1.008000   ; qtot -359.993091
10736         c3    371    ccc     C1  10736 0.60210000  12.010000   ; qtot -359.390991
10737         h1    371    ccc     H1  10737 -0.09250000   1.008000   ; qtot -359.483491
10738         h1    371    ccc     H2  10738 -0.09250000   1.008000   ; qtot -359.575991
10739         n3    371    ccc     N1  10739 -0.59700000  14.010000   ; qtot -360.172991
10740         c3    371    ccc     C4  10740 0.32800000  12.010000   ; qtot -359.844991
10741         h1    371    ccc     H7  10741 -0.07120000   1.008000   ; qtot -359.916191
10742         h1    371    ccc     H8  10742 -0.07120000   1.008000   ; qtot -359.987391
10743         c3    371    ccc     C5  10743 -0.39330000  12.010000   ; qtot -360.380691
10744         hc    371    ccc     H9  10744 0.08130000   1.008000   ; qtot -360.299391
10745         hc    371    ccc    H10  10745 0.08130000   1.008000   ; qtot -360.218091
10746          c    371    ccc     C6  10746 1.08970000  12.010000   ; qtot -359.128391
10747          o    371    ccc     O2  10747 -0.96050000  16.000000   ; qtot -360.088891
10748          o    371    ccc     O3  10748 -0.96050000  16.000000   ; qtot -361.049391
10749         c3    371    ccc     C7  10749 0.32800000  12.010000   ; qtot -360.721391
10750         h1    371    ccc    H11  10750 -0.07120000   1.008000   ; qtot -360.792591
10751         h1    371    ccc    H12  10751 -0.07120000   1.008000   ; qtot -360.863791
10752         c3    371    ccc     C8  10752 -0.39330000  12.010000   ; qtot -361.257091
10753         hc    371    ccc    H13  10753 0.08130000   1.008000   ; qtot -361.175791
10754         hc    371    ccc    H14  10754 0.08130000   1.008000   ; qtot -361.094491
10755          c    371    ccc     C9  10755 1.08970000  12.010000   ; qtot -360.004791
10756          o    371    ccc     O4  10756 -0.96050000  16.000000   ; qtot -360.965291
10757          o    371    ccc     O5  10757 -0.96050000  16.000000   ; qtot -361.925791
10758         os    371    ccc     O1  10758 -0.11060000  16.000000   ; qtot -362.036391
; residue  372 ccc rtp ccc q -2.0
10759         c3    372    ccc     C3  10759 -0.04070000  12.010000   ; qtot -362.077091
10760         h1    372    ccc     H5  10760 0.04610000   1.008000   ; qtot -362.030991
10761         h1    372    ccc     H6  10761 0.04610000   1.008000   ; qtot -361.984891
10762         c3    372    ccc     C2  10762 -0.02540000  12.010000   ; qtot -362.010291
10763         hc    372    ccc     H3  10763 0.00850000   1.008000   ; qtot -362.001791
10764         hc    372    ccc     H4  10764 0.00850000   1.008000   ; qtot -361.993291
10765         c3    372    ccc     C1  10765 0.60210000  12.010000   ; qtot -361.391191
10766         h1    372    ccc     H1  10766 -0.09250000   1.008000   ; qtot -361.483691
10767         h1    372    ccc     H2  10767 -0.09250000   1.008000   ; qtot -361.576191
10768         n3    372    ccc     N1  10768 -0.59700000  14.010000   ; qtot -362.173191
10769         c3    372    ccc     C4  10769 0.32800000  12.010000   ; qtot -361.845191
10770         h1    372    ccc     H7  10770 -0.07120000   1.008000   ; qtot -361.916391
10771         h1    372    ccc     H8  10771 -0.07120000   1.008000   ; qtot -361.987591
10772         c3    372    ccc     C5  10772 -0.39330000  12.010000   ; qtot -362.380891
10773         hc    372    ccc     H9  10773 0.08130000   1.008000   ; qtot -362.299591
10774         hc    372    ccc    H10  10774 0.08130000   1.008000   ; qtot -362.218291
10775          c    372    ccc     C6  10775 1.08970000  12.010000   ; qtot -361.128591
10776          o    372    ccc     O2  10776 -0.96050000  16.000000   ; qtot -362.089091
10777          o    372    ccc     O3  10777 -0.96050000  16.000000   ; qtot -363.049591
10778         c3    372    ccc     C7  10778 0.32800000  12.010000   ; qtot -362.721591
10779         h1    372    ccc    H11  10779 -0.07120000   1.008000   ; qtot -362.792791
10780         h1    372    ccc    H12  10780 -0.07120000   1.008000   ; qtot -362.863991
10781         c3    372    ccc     C8  10781 -0.39330000  12.010000   ; qtot -363.257291
10782         hc    372    ccc    H13  10782 0.08130000   1.008000   ; qtot -363.175991
10783         hc    372    ccc    H14  10783 0.08130000   1.008000   ; qtot -363.094691
10784          c    372    ccc     C9  10784 1.08970000  12.010000   ; qtot -362.004991
10785          o    372    ccc     O4  10785 -0.96050000  16.000000   ; qtot -362.965491
10786          o    372    ccc     O5  10786 -0.96050000  16.000000   ; qtot -363.925991
10787         os    372    ccc     O1  10787 -0.11060000  16.000000   ; qtot -364.036591
; residue  373 ccc rtp ccc q -2.0
10788         c3    373    ccc     C3  10788 -0.04070000  12.010000   ; qtot -364.077291
10789         h1    373    ccc     H5  10789 0.04610000   1.008000   ; qtot -364.031191
10790         h1    373    ccc     H6  10790 0.04610000   1.008000   ; qtot -363.985091
10791         c3    373    ccc     C2  10791 -0.02540000  12.010000   ; qtot -364.010491
10792         hc    373    ccc     H3  10792 0.00850000   1.008000   ; qtot -364.001991
10793         hc    373    ccc     H4  10793 0.00850000   1.008000   ; qtot -363.993491
10794         c3    373    ccc     C1  10794 0.60210000  12.010000   ; qtot -363.391391
10795         h1    373    ccc     H1  10795 -0.09250000   1.008000   ; qtot -363.483891
10796         h1    373    ccc     H2  10796 -0.09250000   1.008000   ; qtot -363.576391
10797         n3    373    ccc     N1  10797 -0.59700000  14.010000   ; qtot -364.173391
10798         c3    373    ccc     C4  10798 0.32800000  12.010000   ; qtot -363.845391
10799         h1    373    ccc     H7  10799 -0.07120000   1.008000   ; qtot -363.916591
10800         h1    373    ccc     H8  10800 -0.07120000   1.008000   ; qtot -363.987791
10801         c3    373    ccc     C5  10801 -0.39330000  12.010000   ; qtot -364.381091
10802         hc    373    ccc     H9  10802 0.08130000   1.008000   ; qtot -364.299791
10803         hc    373    ccc    H10  10803 0.08130000   1.008000   ; qtot -364.218491
10804          c    373    ccc     C6  10804 1.08970000  12.010000   ; qtot -363.128791
10805          o    373    ccc     O2  10805 -0.96050000  16.000000   ; qtot -364.089291
10806          o    373    ccc     O3  10806 -0.96050000  16.000000   ; qtot -365.049791
10807         c3    373    ccc     C7  10807 0.32800000  12.010000   ; qtot -364.721791
10808         h1    373    ccc    H11  10808 -0.07120000   1.008000   ; qtot -364.792991
10809         h1    373    ccc    H12  10809 -0.07120000   1.008000   ; qtot -364.864191
10810         c3    373    ccc     C8  10810 -0.39330000  12.010000   ; qtot -365.257491
10811         hc    373    ccc    H13  10811 0.08130000   1.008000   ; qtot -365.176191
10812         hc    373    ccc    H14  10812 0.08130000   1.008000   ; qtot -365.094891
10813          c    373    ccc     C9  10813 1.08970000  12.010000   ; qtot -364.005191
10814          o    373    ccc     O4  10814 -0.96050000  16.000000   ; qtot -364.965691
10815          o    373    ccc     O5  10815 -0.96050000  16.000000   ; qtot -365.926191
10816         os    373    ccc     O1  10816 -0.11060000  16.000000   ; qtot -366.036791
; residue  374 ccc rtp ccc q -2.0
10817         c3    374    ccc     C3  10817 -0.04070000  12.010000   ; qtot -366.077491
10818         h1    374    ccc     H5  10818 0.04610000   1.008000   ; qtot -366.031391
10819         h1    374    ccc     H6  10819 0.04610000   1.008000   ; qtot -365.985291
10820         c3    374    ccc     C2  10820 -0.02540000  12.010000   ; qtot -366.010691
10821         hc    374    ccc     H3  10821 0.00850000   1.008000   ; qtot -366.002191
10822         hc    374    ccc     H4  10822 0.00850000   1.008000   ; qtot -365.993691
10823         c3    374    ccc     C1  10823 0.60210000  12.010000   ; qtot -365.391591
10824         h1    374    ccc     H1  10824 -0.09250000   1.008000   ; qtot -365.484091
10825         h1    374    ccc     H2  10825 -0.09250000   1.008000   ; qtot -365.576591
10826         n3    374    ccc     N1  10826 -0.59700000  14.010000   ; qtot -366.173591
10827         c3    374    ccc     C4  10827 0.32800000  12.010000   ; qtot -365.845591
10828         h1    374    ccc     H7  10828 -0.07120000   1.008000   ; qtot -365.916791
10829         h1    374    ccc     H8  10829 -0.07120000   1.008000   ; qtot -365.987991
10830         c3    374    ccc     C5  10830 -0.39330000  12.010000   ; qtot -366.381291
10831         hc    374    ccc     H9  10831 0.08130000   1.008000   ; qtot -366.299991
10832         hc    374    ccc    H10  10832 0.08130000   1.008000   ; qtot -366.218691
10833          c    374    ccc     C6  10833 1.08970000  12.010000   ; qtot -365.128991
10834          o    374    ccc     O2  10834 -0.96050000  16.000000   ; qtot -366.089491
10835          o    374    ccc     O3  10835 -0.96050000  16.000000   ; qtot -367.049991
10836         c3    374    ccc     C7  10836 0.32800000  12.010000   ; qtot -366.721991
10837         h1    374    ccc    H11  10837 -0.07120000   1.008000   ; qtot -366.793191
10838         h1    374    ccc    H12  10838 -0.07120000   1.008000   ; qtot -366.864391
10839         c3    374    ccc     C8  10839 -0.39330000  12.010000   ; qtot -367.257691
10840         hc    374    ccc    H13  10840 0.08130000   1.008000   ; qtot -367.176391
10841         hc    374    ccc    H14  10841 0.08130000   1.008000   ; qtot -367.095091
10842          c    374    ccc     C9  10842 1.08970000  12.010000   ; qtot -366.005391
10843          o    374    ccc     O4  10843 -0.96050000  16.000000   ; qtot -366.965891
10844          o    374    ccc     O5  10844 -0.96050000  16.000000   ; qtot -367.926391
10845         os    374    ccc     O1  10845 -0.11060000  16.000000   ; qtot -368.036991
; residue  375 ccc rtp ccc q -2.0
10846         c3    375    ccc     C3  10846 -0.04070000  12.010000   ; qtot -368.077691
10847         h1    375    ccc     H5  10847 0.04610000   1.008000   ; qtot -368.031591
10848         h1    375    ccc     H6  10848 0.04610000   1.008000   ; qtot -367.985491
10849         c3    375    ccc     C2  10849 -0.02540000  12.010000   ; qtot -368.010891
10850         hc    375    ccc     H3  10850 0.00850000   1.008000   ; qtot -368.002391
10851         hc    375    ccc     H4  10851 0.00850000   1.008000   ; qtot -367.993891
10852         c3    375    ccc     C1  10852 0.60210000  12.010000   ; qtot -367.391791
10853         h1    375    ccc     H1  10853 -0.09250000   1.008000   ; qtot -367.484291
10854         h1    375    ccc     H2  10854 -0.09250000   1.008000   ; qtot -367.576791
10855         n3    375    ccc     N1  10855 -0.59700000  14.010000   ; qtot -368.173791
10856         c3    375    ccc     C4  10856 0.32800000  12.010000   ; qtot -367.845791
10857         h1    375    ccc     H7  10857 -0.07120000   1.008000   ; qtot -367.916991
10858         h1    375    ccc     H8  10858 -0.07120000   1.008000   ; qtot -367.988191
10859         c3    375    ccc     C5  10859 -0.39330000  12.010000   ; qtot -368.381491
10860         hc    375    ccc     H9  10860 0.08130000   1.008000   ; qtot -368.300191
10861         hc    375    ccc    H10  10861 0.08130000   1.008000   ; qtot -368.218891
10862          c    375    ccc     C6  10862 1.08970000  12.010000   ; qtot -367.129191
10863          o    375    ccc     O2  10863 -0.96050000  16.000000   ; qtot -368.089691
10864          o    375    ccc     O3  10864 -0.96050000  16.000000   ; qtot -369.050191
10865         c3    375    ccc     C7  10865 0.32800000  12.010000   ; qtot -368.722191
10866         h1    375    ccc    H11  10866 -0.07120000   1.008000   ; qtot -368.793391
10867         h1    375    ccc    H12  10867 -0.07120000   1.008000   ; qtot -368.864591
10868         c3    375    ccc     C8  10868 -0.39330000  12.010000   ; qtot -369.257891
10869         hc    375    ccc    H13  10869 0.08130000   1.008000   ; qtot -369.176591
10870         hc    375    ccc    H14  10870 0.08130000   1.008000   ; qtot -369.095291
10871          c    375    ccc     C9  10871 1.08970000  12.010000   ; qtot -368.005591
10872          o    375    ccc     O4  10872 -0.96050000  16.000000   ; qtot -368.966091
10873          o    375    ccc     O5  10873 -0.96050000  16.000000   ; qtot -369.926591
10874         os    375    ccc     O1  10874 -0.11060000  16.000000   ; qtot -370.037191
; residue  376 ccc rtp ccc q -2.0
10875         c3    376    ccc     C3  10875 -0.04070000  12.010000   ; qtot -370.077891
10876         h1    376    ccc     H5  10876 0.04610000   1.008000   ; qtot -370.031791
10877         h1    376    ccc     H6  10877 0.04610000   1.008000   ; qtot -369.985691
10878         c3    376    ccc     C2  10878 -0.02540000  12.010000   ; qtot -370.011091
10879         hc    376    ccc     H3  10879 0.00850000   1.008000   ; qtot -370.002591
10880         hc    376    ccc     H4  10880 0.00850000   1.008000   ; qtot -369.994091
10881         c3    376    ccc     C1  10881 0.60210000  12.010000   ; qtot -369.391991
10882         h1    376    ccc     H1  10882 -0.09250000   1.008000   ; qtot -369.484491
10883         h1    376    ccc     H2  10883 -0.09250000   1.008000   ; qtot -369.576991
10884         n3    376    ccc     N1  10884 -0.59700000  14.010000   ; qtot -370.173991
10885         c3    376    ccc     C4  10885 0.32800000  12.010000   ; qtot -369.845991
10886         h1    376    ccc     H7  10886 -0.07120000   1.008000   ; qtot -369.917191
10887         h1    376    ccc     H8  10887 -0.07120000   1.008000   ; qtot -369.988391
10888         c3    376    ccc     C5  10888 -0.39330000  12.010000   ; qtot -370.381691
10889         hc    376    ccc     H9  10889 0.08130000   1.008000   ; qtot -370.300391
10890         hc    376    ccc    H10  10890 0.08130000   1.008000   ; qtot -370.219091
10891          c    376    ccc     C6  10891 1.08970000  12.010000   ; qtot -369.129391
10892          o    376    ccc     O2  10892 -0.96050000  16.000000   ; qtot -370.089891
10893          o    376    ccc     O3  10893 -0.96050000  16.000000   ; qtot -371.050391
10894         c3    376    ccc     C7  10894 0.32800000  12.010000   ; qtot -370.722391
10895         h1    376    ccc    H11  10895 -0.07120000   1.008000   ; qtot -370.793591
10896         h1    376    ccc    H12  10896 -0.07120000   1.008000   ; qtot -370.864791
10897         c3    376    ccc     C8  10897 -0.39330000  12.010000   ; qtot -371.258091
10898         hc    376    ccc    H13  10898 0.08130000   1.008000   ; qtot -371.176791
10899         hc    376    ccc    H14  10899 0.08130000   1.008000   ; qtot -371.095491
10900          c    376    ccc     C9  10900 1.08970000  12.010000   ; qtot -370.005791
10901          o    376    ccc     O4  10901 -0.96050000  16.000000   ; qtot -370.966291
10902          o    376    ccc     O5  10902 -0.96050000  16.000000   ; qtot -371.926791
10903         os    376    ccc     O1  10903 -0.11060000  16.000000   ; qtot -372.037391
; residue  377 ccc rtp ccc q -2.0
10904         c3    377    ccc     C3  10904 -0.04070000  12.010000   ; qtot -372.078091
10905         h1    377    ccc     H5  10905 0.04610000   1.008000   ; qtot -372.031991
10906         h1    377    ccc     H6  10906 0.04610000   1.008000   ; qtot -371.985891
10907         c3    377    ccc     C2  10907 -0.02540000  12.010000   ; qtot -372.011291
10908         hc    377    ccc     H3  10908 0.00850000   1.008000   ; qtot -372.002791
10909         hc    377    ccc     H4  10909 0.00850000   1.008000   ; qtot -371.994291
10910         c3    377    ccc     C1  10910 0.60210000  12.010000   ; qtot -371.392191
10911         h1    377    ccc     H1  10911 -0.09250000   1.008000   ; qtot -371.484691
10912         h1    377    ccc     H2  10912 -0.09250000   1.008000   ; qtot -371.577191
10913         n3    377    ccc     N1  10913 -0.59700000  14.010000   ; qtot -372.174191
10914         c3    377    ccc     C4  10914 0.32800000  12.010000   ; qtot -371.846191
10915         h1    377    ccc     H7  10915 -0.07120000   1.008000   ; qtot -371.917391
10916         h1    377    ccc     H8  10916 -0.07120000   1.008000   ; qtot -371.988591
10917         c3    377    ccc     C5  10917 -0.39330000  12.010000   ; qtot -372.381891
10918         hc    377    ccc     H9  10918 0.08130000   1.008000   ; qtot -372.300591
10919         hc    377    ccc    H10  10919 0.08130000   1.008000   ; qtot -372.219291
10920          c    377    ccc     C6  10920 1.08970000  12.010000   ; qtot -371.129591
10921          o    377    ccc     O2  10921 -0.96050000  16.000000   ; qtot -372.090091
10922          o    377    ccc     O3  10922 -0.96050000  16.000000   ; qtot -373.050591
10923         c3    377    ccc     C7  10923 0.32800000  12.010000   ; qtot -372.722591
10924         h1    377    ccc    H11  10924 -0.07120000   1.008000   ; qtot -372.793791
10925         h1    377    ccc    H12  10925 -0.07120000   1.008000   ; qtot -372.864991
10926         c3    377    ccc     C8  10926 -0.39330000  12.010000   ; qtot -373.258291
10927         hc    377    ccc    H13  10927 0.08130000   1.008000   ; qtot -373.176991
10928         hc    377    ccc    H14  10928 0.08130000   1.008000   ; qtot -373.095691
10929          c    377    ccc     C9  10929 1.08970000  12.010000   ; qtot -372.005991
10930          o    377    ccc     O4  10930 -0.96050000  16.000000   ; qtot -372.966491
10931          o    377    ccc     O5  10931 -0.96050000  16.000000   ; qtot -373.926991
10932         os    377    ccc     O1  10932 -0.11060000  16.000000   ; qtot -374.037591
; residue  378 ccc rtp ccc q -2.0
10933         c3    378    ccc     C3  10933 -0.04070000  12.010000   ; qtot -374.078291
10934         h1    378    ccc     H5  10934 0.04610000   1.008000   ; qtot -374.032191
10935         h1    378    ccc     H6  10935 0.04610000   1.008000   ; qtot -373.986091
10936         c3    378    ccc     C2  10936 -0.02540000  12.010000   ; qtot -374.011491
10937         hc    378    ccc     H3  10937 0.00850000   1.008000   ; qtot -374.002991
10938         hc    378    ccc     H4  10938 0.00850000   1.008000   ; qtot -373.994491
10939         c3    378    ccc     C1  10939 0.60210000  12.010000   ; qtot -373.392391
10940         h1    378    ccc     H1  10940 -0.09250000   1.008000   ; qtot -373.484891
10941         h1    378    ccc     H2  10941 -0.09250000   1.008000   ; qtot -373.577391
10942         n3    378    ccc     N1  10942 -0.59700000  14.010000   ; qtot -374.174391
10943         c3    378    ccc     C4  10943 0.32800000  12.010000   ; qtot -373.846391
10944         h1    378    ccc     H7  10944 -0.07120000   1.008000   ; qtot -373.917591
10945         h1    378    ccc     H8  10945 -0.07120000   1.008000   ; qtot -373.988791
10946         c3    378    ccc     C5  10946 -0.39330000  12.010000   ; qtot -374.382091
10947         hc    378    ccc     H9  10947 0.08130000   1.008000   ; qtot -374.300791
10948         hc    378    ccc    H10  10948 0.08130000   1.008000   ; qtot -374.219491
10949          c    378    ccc     C6  10949 1.08970000  12.010000   ; qtot -373.129791
10950          o    378    ccc     O2  10950 -0.96050000  16.000000   ; qtot -374.090291
10951          o    378    ccc     O3  10951 -0.96050000  16.000000   ; qtot -375.050791
10952         c3    378    ccc     C7  10952 0.32800000  12.010000   ; qtot -374.722791
10953         h1    378    ccc    H11  10953 -0.07120000   1.008000   ; qtot -374.793991
10954         h1    378    ccc    H12  10954 -0.07120000   1.008000   ; qtot -374.865191
10955         c3    378    ccc     C8  10955 -0.39330000  12.010000   ; qtot -375.258491
10956         hc    378    ccc    H13  10956 0.08130000   1.008000   ; qtot -375.177191
10957         hc    378    ccc    H14  10957 0.08130000   1.008000   ; qtot -375.095891
10958          c    378    ccc     C9  10958 1.08970000  12.010000   ; qtot -374.006191
10959          o    378    ccc     O4  10959 -0.96050000  16.000000   ; qtot -374.966691
10960          o    378    ccc     O5  10960 -0.96050000  16.000000   ; qtot -375.927191
10961         os    378    ccc     O1  10961 -0.11060000  16.000000   ; qtot -376.037791
; residue  379 ccc rtp ccc q -2.0
10962         c3    379    ccc     C3  10962 -0.04070000  12.010000   ; qtot -376.078491
10963         h1    379    ccc     H5  10963 0.04610000   1.008000   ; qtot -376.032391
10964         h1    379    ccc     H6  10964 0.04610000   1.008000   ; qtot -375.986291
10965         c3    379    ccc     C2  10965 -0.02540000  12.010000   ; qtot -376.011691
10966         hc    379    ccc     H3  10966 0.00850000   1.008000   ; qtot -376.003191
10967         hc    379    ccc     H4  10967 0.00850000   1.008000   ; qtot -375.994691
10968         c3    379    ccc     C1  10968 0.60210000  12.010000   ; qtot -375.392591
10969         h1    379    ccc     H1  10969 -0.09250000   1.008000   ; qtot -375.485091
10970         h1    379    ccc     H2  10970 -0.09250000   1.008000   ; qtot -375.577591
10971         n3    379    ccc     N1  10971 -0.59700000  14.010000   ; qtot -376.174591
10972         c3    379    ccc     C4  10972 0.32800000  12.010000   ; qtot -375.846591
10973         h1    379    ccc     H7  10973 -0.07120000   1.008000   ; qtot -375.917791
10974         h1    379    ccc     H8  10974 -0.07120000   1.008000   ; qtot -375.988991
10975         c3    379    ccc     C5  10975 -0.39330000  12.010000   ; qtot -376.382291
10976         hc    379    ccc     H9  10976 0.08130000   1.008000   ; qtot -376.300991
10977         hc    379    ccc    H10  10977 0.08130000   1.008000   ; qtot -376.219691
10978          c    379    ccc     C6  10978 1.08970000  12.010000   ; qtot -375.129991
10979          o    379    ccc     O2  10979 -0.96050000  16.000000   ; qtot -376.090491
10980          o    379    ccc     O3  10980 -0.96050000  16.000000   ; qtot -377.050991
10981         c3    379    ccc     C7  10981 0.32800000  12.010000   ; qtot -376.722991
10982         h1    379    ccc    H11  10982 -0.07120000   1.008000   ; qtot -376.794191
10983         h1    379    ccc    H12  10983 -0.07120000   1.008000   ; qtot -376.865391
10984         c3    379    ccc     C8  10984 -0.39330000  12.010000   ; qtot -377.258691
10985         hc    379    ccc    H13  10985 0.08130000   1.008000   ; qtot -377.177391
10986         hc    379    ccc    H14  10986 0.08130000   1.008000   ; qtot -377.096091
10987          c    379    ccc     C9  10987 1.08970000  12.010000   ; qtot -376.006391
10988          o    379    ccc     O4  10988 -0.96050000  16.000000   ; qtot -376.966891
10989          o    379    ccc     O5  10989 -0.96050000  16.000000   ; qtot -377.927391
10990         os    379    ccc     O1  10990 -0.11060000  16.000000   ; qtot -378.037991
; residue  380 ccc rtp ccc q -2.0
10991         c3    380    ccc     C3  10991 -0.04070000  12.010000   ; qtot -378.078691
10992         h1    380    ccc     H5  10992 0.04610000   1.008000   ; qtot -378.032591
10993         h1    380    ccc     H6  10993 0.04610000   1.008000   ; qtot -377.986491
10994         c3    380    ccc     C2  10994 -0.02540000  12.010000   ; qtot -378.011891
10995         hc    380    ccc     H3  10995 0.00850000   1.008000   ; qtot -378.003391
10996         hc    380    ccc     H4  10996 0.00850000   1.008000   ; qtot -377.994891
10997         c3    380    ccc     C1  10997 0.60210000  12.010000   ; qtot -377.392791
10998         h1    380    ccc     H1  10998 -0.09250000   1.008000   ; qtot -377.485291
10999         h1    380    ccc     H2  10999 -0.09250000   1.008000   ; qtot -377.577791
11000         n3    380    ccc     N1  11000 -0.59700000  14.010000   ; qtot -378.174791
11001         c3    380    ccc     C4  11001 0.32800000  12.010000   ; qtot -377.846791
11002         h1    380    ccc     H7  11002 -0.07120000   1.008000   ; qtot -377.917991
11003         h1    380    ccc     H8  11003 -0.07120000   1.008000   ; qtot -377.989191
11004         c3    380    ccc     C5  11004 -0.39330000  12.010000   ; qtot -378.382491
11005         hc    380    ccc     H9  11005 0.08130000   1.008000   ; qtot -378.301191
11006         hc    380    ccc    H10  11006 0.08130000   1.008000   ; qtot -378.219891
11007          c    380    ccc     C6  11007 1.08970000  12.010000   ; qtot -377.130191
11008          o    380    ccc     O2  11008 -0.96050000  16.000000   ; qtot -378.090691
11009          o    380    ccc     O3  11009 -0.96050000  16.000000   ; qtot -379.051191
11010         c3    380    ccc     C7  11010 0.32800000  12.010000   ; qtot -378.723191
11011         h1    380    ccc    H11  11011 -0.07120000   1.008000   ; qtot -378.794391
11012         h1    380    ccc    H12  11012 -0.07120000   1.008000   ; qtot -378.865591
11013         c3    380    ccc     C8  11013 -0.39330000  12.010000   ; qtot -379.258891
11014         hc    380    ccc    H13  11014 0.08130000   1.008000   ; qtot -379.177591
11015         hc    380    ccc    H14  11015 0.08130000   1.008000   ; qtot -379.096291
11016          c    380    ccc     C9  11016 1.08970000  12.010000   ; qtot -378.006591
11017          o    380    ccc     O4  11017 -0.96050000  16.000000   ; qtot -378.967091
11018          o    380    ccc     O5  11018 -0.96050000  16.000000   ; qtot -379.927591
11019         os    380    ccc     O1  11019 -0.11060000  16.000000   ; qtot -380.038191
; residue  381 ccc rtp ccc q -2.0
11020         c3    381    ccc     C3  11020 -0.04070000  12.010000   ; qtot -380.078891
11021         h1    381    ccc     H5  11021 0.04610000   1.008000   ; qtot -380.032791
11022         h1    381    ccc     H6  11022 0.04610000   1.008000   ; qtot -379.986691
11023         c3    381    ccc     C2  11023 -0.02540000  12.010000   ; qtot -380.012091
11024         hc    381    ccc     H3  11024 0.00850000   1.008000   ; qtot -380.003591
11025         hc    381    ccc     H4  11025 0.00850000   1.008000   ; qtot -379.995091
11026         c3    381    ccc     C1  11026 0.60210000  12.010000   ; qtot -379.392991
11027         h1    381    ccc     H1  11027 -0.09250000   1.008000   ; qtot -379.485491
11028         h1    381    ccc     H2  11028 -0.09250000   1.008000   ; qtot -379.577991
11029         n3    381    ccc     N1  11029 -0.59700000  14.010000   ; qtot -380.174991
11030         c3    381    ccc     C4  11030 0.32800000  12.010000   ; qtot -379.846991
11031         h1    381    ccc     H7  11031 -0.07120000   1.008000   ; qtot -379.918191
11032         h1    381    ccc     H8  11032 -0.07120000   1.008000   ; qtot -379.989391
11033         c3    381    ccc     C5  11033 -0.39330000  12.010000   ; qtot -380.382691
11034         hc    381    ccc     H9  11034 0.08130000   1.008000   ; qtot -380.301391
11035         hc    381    ccc    H10  11035 0.08130000   1.008000   ; qtot -380.220091
11036          c    381    ccc     C6  11036 1.08970000  12.010000   ; qtot -379.130391
11037          o    381    ccc     O2  11037 -0.96050000  16.000000   ; qtot -380.090891
11038          o    381    ccc     O3  11038 -0.96050000  16.000000   ; qtot -381.051391
11039         c3    381    ccc     C7  11039 0.32800000  12.010000   ; qtot -380.723391
11040         h1    381    ccc    H11  11040 -0.07120000   1.008000   ; qtot -380.794591
11041         h1    381    ccc    H12  11041 -0.07120000   1.008000   ; qtot -380.865791
11042         c3    381    ccc     C8  11042 -0.39330000  12.010000   ; qtot -381.259091
11043         hc    381    ccc    H13  11043 0.08130000   1.008000   ; qtot -381.177791
11044         hc    381    ccc    H14  11044 0.08130000   1.008000   ; qtot -381.096491
11045          c    381    ccc     C9  11045 1.08970000  12.010000   ; qtot -380.006791
11046          o    381    ccc     O4  11046 -0.96050000  16.000000   ; qtot -380.967291
11047          o    381    ccc     O5  11047 -0.96050000  16.000000   ; qtot -381.927791
11048         os    381    ccc     O1  11048 -0.11060000  16.000000   ; qtot -382.038391
; residue  382 ccc rtp ccc q -2.0
11049         c3    382    ccc     C3  11049 -0.04070000  12.010000   ; qtot -382.079091
11050         h1    382    ccc     H5  11050 0.04610000   1.008000   ; qtot -382.032991
11051         h1    382    ccc     H6  11051 0.04610000   1.008000   ; qtot -381.986891
11052         c3    382    ccc     C2  11052 -0.02540000  12.010000   ; qtot -382.012291
11053         hc    382    ccc     H3  11053 0.00850000   1.008000   ; qtot -382.003791
11054         hc    382    ccc     H4  11054 0.00850000   1.008000   ; qtot -381.995291
11055         c3    382    ccc     C1  11055 0.60210000  12.010000   ; qtot -381.393191
11056         h1    382    ccc     H1  11056 -0.09250000   1.008000   ; qtot -381.485691
11057         h1    382    ccc     H2  11057 -0.09250000   1.008000   ; qtot -381.578191
11058         n3    382    ccc     N1  11058 -0.59700000  14.010000   ; qtot -382.175191
11059         c3    382    ccc     C4  11059 0.32800000  12.010000   ; qtot -381.847191
11060         h1    382    ccc     H7  11060 -0.07120000   1.008000   ; qtot -381.918391
11061         h1    382    ccc     H8  11061 -0.07120000   1.008000   ; qtot -381.989591
11062         c3    382    ccc     C5  11062 -0.39330000  12.010000   ; qtot -382.382891
11063         hc    382    ccc     H9  11063 0.08130000   1.008000   ; qtot -382.301591
11064         hc    382    ccc    H10  11064 0.08130000   1.008000   ; qtot -382.220291
11065          c    382    ccc     C6  11065 1.08970000  12.010000   ; qtot -381.130591
11066          o    382    ccc     O2  11066 -0.96050000  16.000000   ; qtot -382.091091
11067          o    382    ccc     O3  11067 -0.96050000  16.000000   ; qtot -383.051591
11068         c3    382    ccc     C7  11068 0.32800000  12.010000   ; qtot -382.723591
11069         h1    382    ccc    H11  11069 -0.07120000   1.008000   ; qtot -382.794791
11070         h1    382    ccc    H12  11070 -0.07120000   1.008000   ; qtot -382.865991
11071         c3    382    ccc     C8  11071 -0.39330000  12.010000   ; qtot -383.259291
11072         hc    382    ccc    H13  11072 0.08130000   1.008000   ; qtot -383.177991
11073         hc    382    ccc    H14  11073 0.08130000   1.008000   ; qtot -383.096691
11074          c    382    ccc     C9  11074 1.08970000  12.010000   ; qtot -382.006991
11075          o    382    ccc     O4  11075 -0.96050000  16.000000   ; qtot -382.967491
11076          o    382    ccc     O5  11076 -0.96050000  16.000000   ; qtot -383.927991
11077         os    382    ccc     O1  11077 -0.11060000  16.000000   ; qtot -384.038591

[ bonds ]
;    ai     aj funct         c0         c1         c2         c3
      1      2     1   0.14647 272713.120000
      1      5     1   0.14647 272713.120000
      1      8     1   0.14647 272713.120000
      2     14     1   0.15375 251793.120000
      5     17     1   0.15375 251793.120000
      8     11     1   0.15375 251793.120000
     11     23     1   0.15375 251793.120000
     14     26     1   0.15375 251793.120000
     17     20     1   0.15375 251793.120000
     20     57     1   0.14316 258236.480000
     23     86     1   0.14316 258236.480000
     26    115     1   0.14316 258236.480000
     29     30     1   0.14647 272713.120000
     29     33     1   0.14647 272713.120000
     29     36     1   0.14647 272713.120000
     30     42     1   0.15375 251793.120000
     33     45     1   0.15375 251793.120000
     36     39     1   0.15375 251793.120000
     39     48     1   0.15375 251793.120000
     42     54     1   0.15375 251793.120000
     45     51     1   0.15375 251793.120000
     48     57     1   0.14316 258236.480000
     51    144     1   0.14316 258236.480000
     54    173     1   0.14316 258236.480000
     58     59     1   0.14647 272713.120000
     58     62     1   0.14647 272713.120000
     58     65     1   0.14647 272713.120000
     59     71     1   0.15375 251793.120000
     62     74     1   0.15375 251793.120000
     65     68     1   0.15375 251793.120000
     68     77     1   0.15375 251793.120000
     71     83     1   0.15375 251793.120000
     74     80     1   0.15375 251793.120000
     77     86     1   0.14316 258236.480000
     80    202     1   0.14316 258236.480000
     83    231     1   0.14316 258236.480000
     87     88     1   0.14647 272713.120000
     87     91     1   0.14647 272713.120000
     87     94     1   0.14647 272713.120000
     88    100     1   0.15375 251793.120000
     91    103     1   0.15375 251793.120000
     94     97     1   0.15375 251793.120000
     97    106     1   0.15375 251793.120000
    100    112     1   0.15375 251793.120000
    103    109     1   0.15375 251793.120000
    106    115     1   0.14316 258236.480000
    109    260     1   0.14316 258236.480000
    112    289     1   0.14316 258236.480000
    116    117     1   0.14647 272713.120000
    116    120     1   0.14647 272713.120000
    116    123     1   0.14647 272713.120000
    117    129     1   0.15375 251793.120000
    120    132     1   0.15375 251793.120000
    123    126     1   0.15375 251793.120000
    126    135     1   0.15375 251793.120000
    129    141     1   0.15375 251793.120000
    132    138     1   0.15375 251793.120000
    135    144     1   0.14316 258236.480000
    138    318     1   0.14316 258236.480000
    141    347     1   0.14316 258236.480000
    145    146     1   0.14647 272713.120000
    145    149     1   0.14647 272713.120000
    145    152     1   0.14647 272713.120000
    146    158     1   0.15375 251793.120000
    149    161     1   0.15375 251793.120000
    152    155     1   0.15375 251793.120000
    155    164     1   0.15375 251793.120000
    158    170     1   0.15375 251793.120000
    161    167     1   0.15375 251793.120000
    164    173     1   0.14316 258236.480000
    167    376     1   0.14316 258236.480000
    170    405     1   0.14316 258236.480000
    174    175     1   0.14647 272713.120000
    174    178     1   0.14647 272713.120000
    174    181     1   0.14647 272713.120000
    175    187     1   0.15375 251793.120000
    178    190     1   0.15375 251793.120000
    181    184     1   0.15375 251793.120000
    184    193     1   0.15375 251793.120000
    187    199     1   0.15375 251793.120000
    190    196     1   0.15375 251793.120000
    193    202     1   0.14316 258236.480000
    196    434     1   0.14316 258236.480000
    199    463     1   0.14316 258236.480000
    203    204     1   0.14647 272713.120000
    203    207     1   0.14647 272713.120000
    203    210     1   0.14647 272713.120000
    204    216     1   0.15375 251793.120000
    207    219     1   0.15375 251793.120000
    210    213     1   0.15375 251793.120000
    213    222     1   0.15375 251793.120000
    216    228     1   0.15375 251793.120000
    219    225     1   0.15375 251793.120000
    222    231     1   0.14316 258236.480000
    225    492     1   0.14316 258236.480000
    228    521     1   0.14316 258236.480000
    232    233     1   0.14647 272713.120000
    232    236     1   0.14647 272713.120000
    232    239     1   0.14647 272713.120000
    233    245     1   0.15375 251793.120000
    236    248     1   0.15375 251793.120000
    239    242     1   0.15375 251793.120000
    242    251     1   0.15375 251793.120000
    245    257     1   0.15375 251793.120000
    248    254     1   0.15375 251793.120000
    251    260     1   0.14316 258236.480000
    254    550     1   0.14316 258236.480000
    257    579     1   0.14316 258236.480000
    261    262     1   0.14647 272713.120000
    261    265     1   0.14647 272713.120000
    261    268     1   0.14647 272713.120000
    262    274     1   0.15375 251793.120000
    265    277     1   0.15375 251793.120000
    268    271     1   0.15375 251793.120000
    271    280     1   0.15375 251793.120000
    274    286     1   0.15375 251793.120000
    277    283     1   0.15375 251793.120000
    280    289     1   0.14316 258236.480000
    283    608     1   0.14316 258236.480000
    286    637     1   0.14316 258236.480000
    290    291     1   0.14647 272713.120000
    290    294     1   0.14647 272713.120000
    290    297     1   0.14647 272713.120000
    291    303     1   0.15375 251793.120000
    294    306     1   0.15375 251793.120000
    297    300     1   0.15375 251793.120000
    300    309     1   0.15375 251793.120000
    303    315     1   0.15375 251793.120000
    306    312     1   0.15375 251793.120000
    309    318     1   0.14316 258236.480000
    312    666     1   0.14316 258236.480000
    315    695     1   0.14316 258236.480000
    319    320     1   0.14647 272713.120000
    319    323     1   0.14647 272713.120000
    319    326     1   0.14647 272713.120000
    320    332     1   0.15375 251793.120000
    323    335     1   0.15375 251793.120000
    326    329     1   0.15375 251793.120000
    329    338     1   0.15375 251793.120000
    332    344     1   0.15375 251793.120000
    335    341     1   0.15375 251793.120000
    338    347     1   0.14316 258236.480000
    341    724     1   0.14316 258236.480000
    344    753     1   0.14316 258236.480000
    348    349     1   0.14647 272713.120000
    348    352     1   0.14647 272713.120000
    348    355     1   0.14647 272713.120000
    349    361     1   0.15375 251793.120000
    352    364     1   0.15375 251793.120000
    355    358     1   0.15375 251793.120000
    358    367     1   0.15375 251793.120000
    361    373     1   0.15375 251793.120000
    364    370     1   0.15375 251793.120000
    367    376     1   0.14316 258236.480000
    370    782     1   0.14316 258236.480000
    373    811     1   0.14316 258236.480000
    377    378     1   0.14647 272713.120000
    377    381     1   0.14647 272713.120000
    377    384     1   0.14647 272713.120000
    378    390     1   0.15375 251793.120000
    381    393     1   0.15375 251793.120000
    384    387     1   0.15375 251793.120000
    387    396     1   0.15375 251793.120000
    390    402     1   0.15375 251793.120000
    393    399     1   0.15375 251793.120000
    396    405     1   0.14316 258236.480000
    399    840     1   0.14316 258236.480000
    402    869     1   0.14316 258236.480000
    406    407     1   0.14647 272713.120000
    406    410     1   0.14647 272713.120000
    406    413     1   0.14647 272713.120000
    407    419     1   0.15375 251793.120000
    410    422     1   0.15375 251793.120000
    413    416     1   0.15375 251793.120000
    416    425     1   0.15375 251793.120000
    419    431     1   0.15375 251793.120000
    422    428     1   0.15375 251793.120000
    425    434     1   0.14316 258236.480000
    428    898     1   0.14316 258236.480000
    431    927     1   0.14316 258236.480000
    435    436     1   0.14647 272713.120000
    435    439     1   0.14647 272713.120000
    435    442     1   0.14647 272713.120000
    436    448     1   0.15375 251793.120000
    439    451     1   0.15375 251793.120000
    442    445     1   0.15375 251793.120000
    445    454     1   0.15375 251793.120000
    448    460     1   0.15375 251793.120000
    451    457     1   0.15375 251793.120000
    454    463     1   0.14316 258236.480000
    457    956     1   0.14316 258236.480000
    460    985     1   0.14316 258236.480000
    464    465     1   0.14647 272713.120000
    464    468     1   0.14647 272713.120000
    464    471     1   0.14647 272713.120000
    465    477     1   0.15375 251793.120000
    468    480     1   0.15375 251793.120000
    471    474     1   0.15375 251793.120000
    474    483     1   0.15375 251793.120000
    477    489     1   0.15375 251793.120000
    480    486     1   0.15375 251793.120000
    483    492     1   0.14316 258236.480000
    486   1014     1   0.14316 258236.480000
    489   1043     1   0.14316 258236.480000
    493    494     1   0.14647 272713.120000
    493    497     1   0.14647 272713.120000
    493    500     1   0.14647 272713.120000
    494    506     1   0.15375 251793.120000
    497    509     1   0.15375 251793.120000
    500    503     1   0.15375 251793.120000
    503    512     1   0.15375 251793.120000
    506    518     1   0.15375 251793.120000
    509    515     1   0.15375 251793.120000
    512    521     1   0.14316 258236.480000
    515   1072     1   0.14316 258236.480000
    518   1101     1   0.14316 258236.480000
    522    523     1   0.14647 272713.120000
    522    526     1   0.14647 272713.120000
    522    529     1   0.14647 272713.120000
    523    535     1   0.15375 251793.120000
    526    538     1   0.15375 251793.120000
    529    532     1   0.15375 251793.120000
    532    541     1   0.15375 251793.120000
    535    547     1   0.15375 251793.120000
    538    544     1   0.15375 251793.120000
    541    550     1   0.14316 258236.480000
    544   1130     1   0.14316 258236.480000
    547   1159     1   0.14316 258236.480000
    551    552     1   0.14647 272713.120000
    551    555     1   0.14647 272713.120000
    551    558     1   0.14647 272713.120000
    552    564     1   0.15375 251793.120000
    555    567     1   0.15375 251793.120000
    558    561     1   0.15375 251793.120000
    561    570     1   0.15375 251793.120000
    564    576     1   0.15375 251793.120000
    567    573     1   0.15375 251793.120000
    570    579     1   0.14316 258236.480000
    573   1188     1   0.14316 258236.480000
    576   1217     1   0.14316 258236.480000
    580    581     1   0.14647 272713.120000
    580    584     1   0.14647 272713.120000
    580    587     1   0.14647 272713.120000
    581    593     1   0.15375 251793.120000
    584    596     1   0.15375 251793.120000
    587    590     1   0.15375 251793.120000
    590    599     1   0.15375 251793.120000
    593    605     1   0.15375 251793.120000
    596    602     1   0.15375 251793.120000
    599    608     1   0.14316 258236.480000
    602   1246     1   0.14316 258236.480000
    605   1275     1   0.14316 258236.480000
    609    610     1   0.14647 272713.120000
    609    613     1   0.14647 272713.120000
    609    616     1   0.14647 272713.120000
    610    622     1   0.15375 251793.120000
    613    625     1   0.15375 251793.120000
    616    619     1   0.15375 251793.120000
    619    628     1   0.15375 251793.120000
    622    634     1   0.15375 251793.120000
    625    631     1   0.15375 251793.120000
    628    637     1   0.14316 258236.480000
    631   1304     1   0.14316 258236.480000
    634   1333     1   0.14316 258236.480000
    638    639     1   0.14647 272713.120000
    638    642     1   0.14647 272713.120000
    638    645     1   0.14647 272713.120000
    639    651     1   0.15375 251793.120000
    642    654     1   0.15375 251793.120000
    645    648     1   0.15375 251793.120000
    648    657     1   0.15375 251793.120000
    651    663     1   0.15375 251793.120000
    654    660     1   0.15375 251793.120000
    657    666     1   0.14316 258236.480000
    660   1362     1   0.14316 258236.480000
    663   1391     1   0.14316 258236.480000
    667    668     1   0.14647 272713.120000
    667    671     1   0.14647 272713.120000
    667    674     1   0.14647 272713.120000
    668    680     1   0.15375 251793.120000
    671    683     1   0.15375 251793.120000
    674    677     1   0.15375 251793.120000
    677    686     1   0.15375 251793.120000
    680    692     1   0.15375 251793.120000
    683    689     1   0.15375 251793.120000
    686    695     1   0.14316 258236.480000
    689   1420     1   0.14316 258236.480000
    692   1449     1   0.14316 258236.480000
    696    697     1   0.14647 272713.120000
    696    700     1   0.14647 272713.120000
    696    703     1   0.14647 272713.120000
    697    709     1   0.15375 251793.120000
    700    712     1   0.15375 251793.120000
    703    706     1   0.15375 251793.120000
    706    715     1   0.15375 251793.120000
    709    721     1   0.15375 251793.120000
    712    718     1   0.15375 251793.120000
    715    724     1   0.14316 258236.480000
    718   1478     1   0.14316 258236.480000
    721   1507     1   0.14316 258236.480000
    725    726     1   0.14647 272713.120000
    725    729     1   0.14647 272713.120000
    725    732     1   0.14647 272713.120000
    726    738     1   0.15375 251793.120000
    729    741     1   0.15375 251793.120000
    732    735     1   0.15375 251793.120000
    735    744     1   0.15375 251793.120000
    738    750     1   0.15375 251793.120000
    741    747     1   0.15375 251793.120000
    744    753     1   0.14316 258236.480000
    747   1536     1   0.14316 258236.480000
    750   1565     1   0.14316 258236.480000
    754    755     1   0.14647 272713.120000
    754    758     1   0.14647 272713.120000
    754    761     1   0.14647 272713.120000
    755    767     1   0.15375 251793.120000
    758    770     1   0.15375 251793.120000
    761    764     1   0.15375 251793.120000
    764    773     1   0.15375 251793.120000
    767    779     1   0.15375 251793.120000
    770    776     1   0.15375 251793.120000
    773    782     1   0.14316 258236.480000
    776   1594     1   0.14316 258236.480000
    779   1623     1   0.14316 258236.480000
    783    784     1   0.14647 272713.120000
    783    787     1   0.14647 272713.120000
    783    790     1   0.14647 272713.120000
    784    796     1   0.15375 251793.120000
    787    799     1   0.15375 251793.120000
    790    793     1   0.15375 251793.120000
    793    802     1   0.15375 251793.120000
    796    808     1   0.15375 251793.120000
    799    805     1   0.15375 251793.120000
    802    811     1   0.14316 258236.480000
    805   1652     1   0.14316 258236.480000
    808   1681     1   0.14316 258236.480000
    812    813     1   0.14647 272713.120000
    812    816     1   0.14647 272713.120000
    812    819     1   0.14647 272713.120000
    813    825     1   0.15375 251793.120000
    816    828     1   0.15375 251793.120000
    819    822     1   0.15375 251793.120000
    822    831     1   0.15375 251793.120000
    825    837     1   0.15375 251793.120000
    828    834     1   0.15375 251793.120000
    831    840     1   0.14316 258236.480000
    834   1710     1   0.14316 258236.480000
    837   1739     1   0.14316 258236.480000
    841    842     1   0.14647 272713.120000
    841    845     1   0.14647 272713.120000
    841    848     1   0.14647 272713.120000
    842    854     1   0.15375 251793.120000
    845    857     1   0.15375 251793.120000
    848    851     1   0.15375 251793.120000
    851    860     1   0.15375 251793.120000
    854    866     1   0.15375 251793.120000
    857    863     1   0.15375 251793.120000
    860    869     1   0.14316 258236.480000
    863   1768     1   0.14316 258236.480000
    866   1797     1   0.14316 258236.480000
    870    871     1   0.14647 272713.120000
    870    874     1   0.14647 272713.120000
    870    877     1   0.14647 272713.120000
    871    883     1   0.15375 251793.120000
    874    886     1   0.15375 251793.120000
    877    880     1   0.15375 251793.120000
    880    889     1   0.15375 251793.120000
    883    895     1   0.15375 251793.120000
    886    892     1   0.15375 251793.120000
    889    898     1   0.14316 258236.480000
    892   1826     1   0.14316 258236.480000
    895   1855     1   0.14316 258236.480000
    899    900     1   0.14647 272713.120000
    899    903     1   0.14647 272713.120000
    899    906     1   0.14647 272713.120000
    900    912     1   0.15375 251793.120000
    903    915     1   0.15375 251793.120000
    906    909     1   0.15375 251793.120000
    909    918     1   0.15375 251793.120000
    912    924     1   0.15375 251793.120000
    915    921     1   0.15375 251793.120000
    918    927     1   0.14316 258236.480000
    921   1884     1   0.14316 258236.480000
    924   1913     1   0.14316 258236.480000
    928    929     1   0.14647 272713.120000
    928    932     1   0.14647 272713.120000
    928    935     1   0.14647 272713.120000
    929    941     1   0.15375 251793.120000
    932    944     1   0.15375 251793.120000
    935    938     1   0.15375 251793.120000
    938    947     1   0.15375 251793.120000
    941    953     1   0.15375 251793.120000
    944    950     1   0.15375 251793.120000
    947    956     1   0.14316 258236.480000
    950   1942     1   0.14316 258236.480000
    953   1971     1   0.14316 258236.480000
    957    958     1   0.14647 272713.120000
    957    961     1   0.14647 272713.120000
    957    964     1   0.14647 272713.120000
    958    970     1   0.15375 251793.120000
    961    973     1   0.15375 251793.120000
    964    967     1   0.15375 251793.120000
    967    976     1   0.15375 251793.120000
    970    982     1   0.15375 251793.120000
    973    979     1   0.15375 251793.120000
    976    985     1   0.14316 258236.480000
    979   2000     1   0.14316 258236.480000
    982   2029     1   0.14316 258236.480000
    986    987     1   0.14647 272713.120000
    986    990     1   0.14647 272713.120000
    986    993     1   0.14647 272713.120000
    987    999     1   0.15375 251793.120000
    990   1002     1   0.15375 251793.120000
    993    996     1   0.15375 251793.120000
    996   1005     1   0.15375 251793.120000
    999   1011     1   0.15375 251793.120000
   1002   1008     1   0.15375 251793.120000
   1005   1014     1   0.14316 258236.480000
   1008   2058     1   0.14316 258236.480000
   1011   2087     1   0.14316 258236.480000
   1015   1016     1   0.14647 272713.120000
   1015   1019     1   0.14647 272713.120000
   1015   1022     1   0.14647 272713.120000
   1016   1028     1   0.15375 251793.120000
   1019   1031     1   0.15375 251793.120000
   1022   1025     1   0.15375 251793.120000
   1025   1034     1   0.15375 251793.120000
   1028   1040     1   0.15375 251793.120000
   1031   1037     1   0.15375 251793.120000
   1034   1043     1   0.14316 258236.480000
   1037   2116     1   0.14316 258236.480000
   1040   2145     1   0.14316 258236.480000
   1044   1045     1   0.14647 272713.120000
   1044   1048     1   0.14647 272713.120000
   1044   1051     1   0.14647 272713.120000
   1045   1057     1   0.15375 251793.120000
   1048   1060     1   0.15375 251793.120000
   1051   1054     1   0.15375 251793.120000
   1054   1063     1   0.15375 251793.120000
   1057   1069     1   0.15375 251793.120000
   1060   1066     1   0.15375 251793.120000
   1063   1072     1   0.14316 258236.480000
   1066   2174     1   0.14316 258236.480000
   1069   2203     1   0.14316 258236.480000
   1073   1074     1   0.14647 272713.120000
   1073   1077     1   0.14647 272713.120000
   1073   1080     1   0.14647 272713.120000
   1074   1086     1   0.15375 251793.120000
   1077   1089     1   0.15375 251793.120000
   1080   1083     1   0.15375 251793.120000
   1083   1092     1   0.15375 251793.120000
   1086   1098     1   0.15375 251793.120000
   1089   1095     1   0.15375 251793.120000
   1092   1101     1   0.14316 258236.480000
   1095   2232     1   0.14316 258236.480000
   1098   2261     1   0.14316 258236.480000
   1102   1103     1   0.14647 272713.120000
   1102   1106     1   0.14647 272713.120000
   1102   1109     1   0.14647 272713.120000
   1103   1115     1   0.15375 251793.120000
   1106   1118     1   0.15375 251793.120000
   1109   1112     1   0.15375 251793.120000
   1112   1121     1   0.15375 251793.120000
   1115   1127     1   0.15375 251793.120000
   1118   1124     1   0.15375 251793.120000
   1121   1130     1   0.14316 258236.480000
   1124   2290     1   0.14316 258236.480000
   1127   2319     1   0.14316 258236.480000
   1131   1132     1   0.14647 272713.120000
   1131   1135     1   0.14647 272713.120000
   1131   1138     1   0.14647 272713.120000
   1132   1144     1   0.15375 251793.120000
   1135   1147     1   0.15375 251793.120000
   1138   1141     1   0.15375 251793.120000
   1141   1150     1   0.15375 251793.120000
   1144   1156     1   0.15375 251793.120000
   1147   1153     1   0.15375 251793.120000
   1150   1159     1   0.14316 258236.480000
   1153   2348     1   0.14316 258236.480000
   1156   2377     1   0.14316 258236.480000
   1160   1161     1   0.14647 272713.120000
   1160   1164     1   0.14647 272713.120000
   1160   1167     1   0.14647 272713.120000
   1161   1173     1   0.15375 251793.120000
   1164   1176     1   0.15375 251793.120000
   1167   1170     1   0.15375 251793.120000
   1170   1179     1   0.15375 251793.120000
   1173   1185     1   0.15375 251793.120000
   1176   1182     1   0.15375 251793.120000
   1179   1188     1   0.14316 258236.480000
   1182   2406     1   0.14316 258236.480000
   1185   2435     1   0.14316 258236.480000
   1189   1190     1   0.14647 272713.120000
   1189   1193     1   0.14647 272713.120000
   1189   1196     1   0.14647 272713.120000
   1190   1202     1   0.15375 251793.120000
   1193   1205     1   0.15375 251793.120000
   1196   1199     1   0.15375 251793.120000
   1199   1208     1   0.15375 251793.120000
   1202   1214     1   0.15375 251793.120000
   1205   1211     1   0.15375 251793.120000
   1208   1217     1   0.14316 258236.480000
   1211   2464     1   0.14316 258236.480000
   1214   2493     1   0.14316 258236.480000
   1218   1219     1   0.14647 272713.120000
   1218   1222     1   0.14647 272713.120000
   1218   1225     1   0.14647 272713.120000
   1219   1231     1   0.15375 251793.120000
   1222   1234     1   0.15375 251793.120000
   1225   1228     1   0.15375 251793.120000
   1228   1237     1   0.15375 251793.120000
   1231   1243     1   0.15375 251793.120000
   1234   1240     1   0.15375 251793.120000
   1237   1246     1   0.14316 258236.480000
   1240   2522     1   0.14316 258236.480000
   1243   2551     1   0.14316 258236.480000
   1247   1248     1   0.14647 272713.120000
   1247   1251     1   0.14647 272713.120000
   1247   1254     1   0.14647 272713.120000
   1248   1260     1   0.15375 251793.120000
   1251   1263     1   0.15375 251793.120000
   1254   1257     1   0.15375 251793.120000
   1257   1266     1   0.15375 251793.120000
   1260   1272     1   0.15375 251793.120000
   1263   1269     1   0.15375 251793.120000
   1266   1275     1   0.14316 258236.480000
   1269   2580     1   0.14316 258236.480000
   1272   2609     1   0.14316 258236.480000
   1276   1277     1   0.14647 272713.120000
   1276   1280     1   0.14647 272713.120000
   1276   1283     1   0.14647 272713.120000
   1277   1289     1   0.15375 251793.120000
   1280   1292     1   0.15375 251793.120000
   1283   1286     1   0.15375 251793.120000
   1286   1295     1   0.15375 251793.120000
   1289   1301     1   0.15375 251793.120000
   1292   1298     1   0.15375 251793.120000
   1295   1304     1   0.14316 258236.480000
   1298   2638     1   0.14316 258236.480000
   1301   2667     1   0.14316 258236.480000
   1305   1306     1   0.14647 272713.120000
   1305   1309     1   0.14647 272713.120000
   1305   1312     1   0.14647 272713.120000
   1306   1318     1   0.15375 251793.120000
   1309   1321     1   0.15375 251793.120000
   1312   1315     1   0.15375 251793.120000
   1315   1324     1   0.15375 251793.120000
   1318   1330     1   0.15375 251793.120000
   1321   1327     1   0.15375 251793.120000
   1324   1333     1   0.14316 258236.480000
   1327   2696     1   0.14316 258236.480000
   1330   2725     1   0.14316 258236.480000
   1334   1335     1   0.14647 272713.120000
   1334   1338     1   0.14647 272713.120000
   1334   1341     1   0.14647 272713.120000
   1335   1347     1   0.15375 251793.120000
   1338   1350     1   0.15375 251793.120000
   1341   1344     1   0.15375 251793.120000
   1344   1353     1   0.15375 251793.120000
   1347   1359     1   0.15375 251793.120000
   1350   1356     1   0.15375 251793.120000
   1353   1362     1   0.14316 258236.480000
   1356   2754     1   0.14316 258236.480000
   1359   2783     1   0.14316 258236.480000
   1363   1364     1   0.14647 272713.120000
   1363   1367     1   0.14647 272713.120000
   1363   1370     1   0.14647 272713.120000
   1364   1376     1   0.15375 251793.120000
   1367   1379     1   0.15375 251793.120000
   1370   1373     1   0.15375 251793.120000
   1373   1382     1   0.15375 251793.120000
   1376   1388     1   0.15375 251793.120000
   1379   1385     1   0.15375 251793.120000
   1382   1391     1   0.14316 258236.480000
   1385   2812     1   0.14316 258236.480000
   1388   2841     1   0.14316 258236.480000
   1392   1393     1   0.14647 272713.120000
   1392   1396     1   0.14647 272713.120000
   1392   1399     1   0.14647 272713.120000
   1393   1405     1   0.15375 251793.120000
   1396   1408     1   0.15375 251793.120000
   1399   1402     1   0.15375 251793.120000
   1402   1411     1   0.15375 251793.120000
   1405   1417     1   0.15375 251793.120000
   1408   1414     1   0.15375 251793.120000
   1411   1420     1   0.14316 258236.480000
   1414   2870     1   0.14316 258236.480000
   1417   2899     1   0.14316 258236.480000
   1421   1422     1   0.14647 272713.120000
   1421   1425     1   0.14647 272713.120000
   1421   1428     1   0.14647 272713.120000
   1422   1434     1   0.15375 251793.120000
   1425   1437     1   0.15375 251793.120000
   1428   1431     1   0.15375 251793.120000
   1431   1440     1   0.15375 251793.120000
   1434   1446     1   0.15375 251793.120000
   1437   1443     1   0.15375 251793.120000
   1440   1449     1   0.14316 258236.480000
   1443   2928     1   0.14316 258236.480000
   1446   2957     1   0.14316 258236.480000
   1450   1451     1   0.14647 272713.120000
   1450   1454     1   0.14647 272713.120000
   1450   1457     1   0.14647 272713.120000
   1451   1463     1   0.15375 251793.120000
   1454   1466     1   0.15375 251793.120000
   1457   1460     1   0.15375 251793.120000
   1460   1469     1   0.15375 251793.120000
   1463   1475     1   0.15375 251793.120000
   1466   1472     1   0.15375 251793.120000
   1469   1478     1   0.14316 258236.480000
   1472   2986     1   0.14316 258236.480000
   1475   3015     1   0.14316 258236.480000
   1479   1480     1   0.14647 272713.120000
   1479   1483     1   0.14647 272713.120000
   1479   1486     1   0.14647 272713.120000
   1480   1492     1   0.15375 251793.120000
   1483   1495     1   0.15375 251793.120000
   1486   1489     1   0.15375 251793.120000
   1489   1498     1   0.15375 251793.120000
   1492   1504     1   0.15375 251793.120000
   1495   1501     1   0.15375 251793.120000
   1498   1507     1   0.14316 258236.480000
   1501   3044     1   0.14316 258236.480000
   1504   3073     1   0.14316 258236.480000
   1508   1509     1   0.14647 272713.120000
   1508   1512     1   0.14647 272713.120000
   1508   1515     1   0.14647 272713.120000
   1509   1521     1   0.15375 251793.120000
   1512   1524     1   0.15375 251793.120000
   1515   1518     1   0.15375 251793.120000
   1518   1527     1   0.15375 251793.120000
   1521   1533     1   0.15375 251793.120000
   1524   1530     1   0.15375 251793.120000
   1527   1536     1   0.14316 258236.480000
   1530   3102     1   0.14316 258236.480000
   1533   3131     1   0.14316 258236.480000
   1537   1538     1   0.14647 272713.120000
   1537   1541     1   0.14647 272713.120000
   1537   1544     1   0.14647 272713.120000
   1538   1550     1   0.15375 251793.120000
   1541   1553     1   0.15375 251793.120000
   1544   1547     1   0.15375 251793.120000
   1547   1556     1   0.15375 251793.120000
   1550   1562     1   0.15375 251793.120000
   1553   1559     1   0.15375 251793.120000
   1556   1565     1   0.14316 258236.480000
   1559   3160     1   0.14316 258236.480000
   1562   3189     1   0.14316 258236.480000
   1566   1567     1   0.14647 272713.120000
   1566   1570     1   0.14647 272713.120000
   1566   1573     1   0.14647 272713.120000
   1567   1579     1   0.15375 251793.120000
   1570   1582     1   0.15375 251793.120000
   1573   1576     1   0.15375 251793.120000
   1576   1585     1   0.15375 251793.120000
   1579   1591     1   0.15375 251793.120000
   1582   1588     1   0.15375 251793.120000
   1585   1594     1   0.14316 258236.480000
   1588   3218     1   0.14316 258236.480000
   1591   3247     1   0.14316 258236.480000
   1595   1596     1   0.14647 272713.120000
   1595   1599     1   0.14647 272713.120000
   1595   1602     1   0.14647 272713.120000
   1596   1608     1   0.15375 251793.120000
   1599   1611     1   0.15375 251793.120000
   1602   1605     1   0.15375 251793.120000
   1605   1614     1   0.15375 251793.120000
   1608   1620     1   0.15375 251793.120000
   1611   1617     1   0.15375 251793.120000
   1614   1623     1   0.14316 258236.480000
   1617   3276     1   0.14316 258236.480000
   1620   3305     1   0.14316 258236.480000
   1624   1625     1   0.14647 272713.120000
   1624   1628     1   0.14647 272713.120000
   1624   1631     1   0.14647 272713.120000
   1625   1637     1   0.15375 251793.120000
   1628   1640     1   0.15375 251793.120000
   1631   1634     1   0.15375 251793.120000
   1634   1643     1   0.15375 251793.120000
   1637   1649     1   0.15375 251793.120000
   1640   1646     1   0.15375 251793.120000
   1643   1652     1   0.14316 258236.480000
   1646   3334     1   0.14316 258236.480000
   1649   3363     1   0.14316 258236.480000
   1653   1654     1   0.14647 272713.120000
   1653   1657     1   0.14647 272713.120000
   1653   1660     1   0.14647 272713.120000
   1654   1666     1   0.15375 251793.120000
   1657   1669     1   0.15375 251793.120000
   1660   1663     1   0.15375 251793.120000
   1663   1672     1   0.15375 251793.120000
   1666   1678     1   0.15375 251793.120000
   1669   1675     1   0.15375 251793.120000
   1672   1681     1   0.14316 258236.480000
   1675   3392     1   0.14316 258236.480000
   1678   3421     1   0.14316 258236.480000
   1682   1683     1   0.14647 272713.120000
   1682   1686     1   0.14647 272713.120000
   1682   1689     1   0.14647 272713.120000
   1683   1695     1   0.15375 251793.120000
   1686   1698     1   0.15375 251793.120000
   1689   1692     1   0.15375 251793.120000
   1692   1701     1   0.15375 251793.120000
   1695   1707     1   0.15375 251793.120000
   1698   1704     1   0.15375 251793.120000
   1701   1710     1   0.14316 258236.480000
   1704   3450     1   0.14316 258236.480000
   1707   3479     1   0.14316 258236.480000
   1711   1712     1   0.14647 272713.120000
   1711   1715     1   0.14647 272713.120000
   1711   1718     1   0.14647 272713.120000
   1712   1724     1   0.15375 251793.120000
   1715   1727     1   0.15375 251793.120000
   1718   1721     1   0.15375 251793.120000
   1721   1730     1   0.15375 251793.120000
   1724   1736     1   0.15375 251793.120000
   1727   1733     1   0.15375 251793.120000
   1730   1739     1   0.14316 258236.480000
   1733   3508     1   0.14316 258236.480000
   1736   3537     1   0.14316 258236.480000
   1740   1741     1   0.14647 272713.120000
   1740   1744     1   0.14647 272713.120000
   1740   1747     1   0.14647 272713.120000
   1741   1753     1   0.15375 251793.120000
   1744   1756     1   0.15375 251793.120000
   1747   1750     1   0.15375 251793.120000
   1750   1759     1   0.15375 251793.120000
   1753   1765     1   0.15375 251793.120000
   1756   1762     1   0.15375 251793.120000
   1759   1768     1   0.14316 258236.480000
   1762   3566     1   0.14316 258236.480000
   1765   3595     1   0.14316 258236.480000
   1769   1770     1   0.14647 272713.120000
   1769   1773     1   0.14647 272713.120000
   1769   1776     1   0.14647 272713.120000
   1770   1782     1   0.15375 251793.120000
   1773   1785     1   0.15375 251793.120000
   1776   1779     1   0.15375 251793.120000
   1779   1788     1   0.15375 251793.120000
   1782   1794     1   0.15375 251793.120000
   1785   1791     1   0.15375 251793.120000
   1788   1797     1   0.14316 258236.480000
   1791   3624     1   0.14316 258236.480000
   1794   3653     1   0.14316 258236.480000
   1798   1799     1   0.14647 272713.120000
   1798   1802     1   0.14647 272713.120000
   1798   1805     1   0.14647 272713.120000
   1799   1811     1   0.15375 251793.120000
   1802   1814     1   0.15375 251793.120000
   1805   1808     1   0.15375 251793.120000
   1808   1817     1   0.15375 251793.120000
   1811   1823     1   0.15375 251793.120000
   1814   1820     1   0.15375 251793.120000
   1817   1826     1   0.14316 258236.480000
   1820   3682     1   0.14316 258236.480000
   1823   3711     1   0.14316 258236.480000
   1827   1828     1   0.14647 272713.120000
   1827   1831     1   0.14647 272713.120000
   1827   1834     1   0.14647 272713.120000
   1828   1840     1   0.15375 251793.120000
   1831   1843     1   0.15375 251793.120000
   1834   1837     1   0.15375 251793.120000
   1837   1846     1   0.15375 251793.120000
   1840   1852     1   0.15375 251793.120000
   1843   1849     1   0.15375 251793.120000
   1846   1855     1   0.14316 258236.480000
   1849   3740     1   0.14316 258236.480000
   1852   3769     1   0.14316 258236.480000
   1856   1857     1   0.14647 272713.120000
   1856   1860     1   0.14647 272713.120000
   1856   1863     1   0.14647 272713.120000
   1857   1869     1   0.15375 251793.120000
   1860   1872     1   0.15375 251793.120000
   1863   1866     1   0.15375 251793.120000
   1866   1875     1   0.15375 251793.120000
   1869   1881     1   0.15375 251793.120000
   1872   1878     1   0.15375 251793.120000
   1875   1884     1   0.14316 258236.480000
   1878   3798     1   0.14316 258236.480000
   1881   3827     1   0.14316 258236.480000
   1885   1886     1   0.14647 272713.120000
   1885   1889     1   0.14647 272713.120000
   1885   1892     1   0.14647 272713.120000
   1886   1898     1   0.15375 251793.120000
   1889   1901     1   0.15375 251793.120000
   1892   1895     1   0.15375 251793.120000
   1895   1904     1   0.15375 251793.120000
   1898   1910     1   0.15375 251793.120000
   1901   1907     1   0.15375 251793.120000
   1904   1913     1   0.14316 258236.480000
   1907   3856     1   0.14316 258236.480000
   1910   3885     1   0.14316 258236.480000
   1914   1915     1   0.14647 272713.120000
   1914   1918     1   0.14647 272713.120000
   1914   1921     1   0.14647 272713.120000
   1915   1927     1   0.15375 251793.120000
   1918   1930     1   0.15375 251793.120000
   1921   1924     1   0.15375 251793.120000
   1924   1933     1   0.15375 251793.120000
   1927   1939     1   0.15375 251793.120000
   1930   1936     1   0.15375 251793.120000
   1933   1942     1   0.14316 258236.480000
   1936   3914     1   0.14316 258236.480000
   1939   3943     1   0.14316 258236.480000
   1943   1944     1   0.14647 272713.120000
   1943   1947     1   0.14647 272713.120000
   1943   1950     1   0.14647 272713.120000
   1944   1956     1   0.15375 251793.120000
   1947   1959     1   0.15375 251793.120000
   1950   1953     1   0.15375 251793.120000
   1953   1962     1   0.15375 251793.120000
   1956   1968     1   0.15375 251793.120000
   1959   1965     1   0.15375 251793.120000
   1962   1971     1   0.14316 258236.480000
   1965   3972     1   0.14316 258236.480000
   1968   4001     1   0.14316 258236.480000
   1972   1973     1   0.14647 272713.120000
   1972   1976     1   0.14647 272713.120000
   1972   1979     1   0.14647 272713.120000
   1973   1985     1   0.15375 251793.120000
   1976   1988     1   0.15375 251793.120000
   1979   1982     1   0.15375 251793.120000
   1982   1991     1   0.15375 251793.120000
   1985   1997     1   0.15375 251793.120000
   1988   1994     1   0.15375 251793.120000
   1991   2000     1   0.14316 258236.480000
   1994   4030     1   0.14316 258236.480000
   1997   4059     1   0.14316 258236.480000
   2001   2002     1   0.14647 272713.120000
   2001   2005     1   0.14647 272713.120000
   2001   2008     1   0.14647 272713.120000
   2002   2014     1   0.15375 251793.120000
   2005   2017     1   0.15375 251793.120000
   2008   2011     1   0.15375 251793.120000
   2011   2020     1   0.15375 251793.120000
   2014   2026     1   0.15375 251793.120000
   2017   2023     1   0.15375 251793.120000
   2020   2029     1   0.14316 258236.480000
   2023   4088     1   0.14316 258236.480000
   2026   4117     1   0.14316 258236.480000
   2030   2031     1   0.14647 272713.120000
   2030   2034     1   0.14647 272713.120000
   2030   2037     1   0.14647 272713.120000
   2031   2043     1   0.15375 251793.120000
   2034   2046     1   0.15375 251793.120000
   2037   2040     1   0.15375 251793.120000
   2040   2049     1   0.15375 251793.120000
   2043   2055     1   0.15375 251793.120000
   2046   2052     1   0.15375 251793.120000
   2049   2058     1   0.14316 258236.480000
   2052   4146     1   0.14316 258236.480000
   2055   4175     1   0.14316 258236.480000
   2059   2060     1   0.14647 272713.120000
   2059   2063     1   0.14647 272713.120000
   2059   2066     1   0.14647 272713.120000
   2060   2072     1   0.15375 251793.120000
   2063   2075     1   0.15375 251793.120000
   2066   2069     1   0.15375 251793.120000
   2069   2078     1   0.15375 251793.120000
   2072   2084     1   0.15375 251793.120000
   2075   2081     1   0.15375 251793.120000
   2078   2087     1   0.14316 258236.480000
   2081   4204     1   0.14316 258236.480000
   2084   4233     1   0.14316 258236.480000
   2088   2089     1   0.14647 272713.120000
   2088   2092     1   0.14647 272713.120000
   2088   2095     1   0.14647 272713.120000
   2089   2101     1   0.15375 251793.120000
   2092   2104     1   0.15375 251793.120000
   2095   2098     1   0.15375 251793.120000
   2098   2107     1   0.15375 251793.120000
   2101   2113     1   0.15375 251793.120000
   2104   2110     1   0.15375 251793.120000
   2107   2116     1   0.14316 258236.480000
   2110   4262     1   0.14316 258236.480000
   2113   4291     1   0.14316 258236.480000
   2117   2118     1   0.14647 272713.120000
   2117   2121     1   0.14647 272713.120000
   2117   2124     1   0.14647 272713.120000
   2118   2130     1   0.15375 251793.120000
   2121   2133     1   0.15375 251793.120000
   2124   2127     1   0.15375 251793.120000
   2127   2136     1   0.15375 251793.120000
   2130   2142     1   0.15375 251793.120000
   2133   2139     1   0.15375 251793.120000
   2136   2145     1   0.14316 258236.480000
   2139   4320     1   0.14316 258236.480000
   2142   4349     1   0.14316 258236.480000
   2146   2147     1   0.14647 272713.120000
   2146   2150     1   0.14647 272713.120000
   2146   2153     1   0.14647 272713.120000
   2147   2159     1   0.15375 251793.120000
   2150   2162     1   0.15375 251793.120000
   2153   2156     1   0.15375 251793.120000
   2156   2165     1   0.15375 251793.120000
   2159   2171     1   0.15375 251793.120000
   2162   2168     1   0.15375 251793.120000
   2165   2174     1   0.14316 258236.480000
   2168   4378     1   0.14316 258236.480000
   2171   4407     1   0.14316 258236.480000
   2175   2176     1   0.14647 272713.120000
   2175   2179     1   0.14647 272713.120000
   2175   2182     1   0.14647 272713.120000
   2176   2188     1   0.15375 251793.120000
   2179   2191     1   0.15375 251793.120000
   2182   2185     1   0.15375 251793.120000
   2185   2194     1   0.15375 251793.120000
   2188   2200     1   0.15375 251793.120000
   2191   2197     1   0.15375 251793.120000
   2194   2203     1   0.14316 258236.480000
   2197   4436     1   0.14316 258236.480000
   2200   4465     1   0.14316 258236.480000
   2204   2205     1   0.14647 272713.120000
   2204   2208     1   0.14647 272713.120000
   2204   2211     1   0.14647 272713.120000
   2205   2217     1   0.15375 251793.120000
   2208   2220     1   0.15375 251793.120000
   2211   2214     1   0.15375 251793.120000
   2214   2223     1   0.15375 251793.120000
   2217   2229     1   0.15375 251793.120000
   2220   2226     1   0.15375 251793.120000
   2223   2232     1   0.14316 258236.480000
   2226   4494     1   0.14316 258236.480000
   2229   4523     1   0.14316 258236.480000
   2233   2234     1   0.14647 272713.120000
   2233   2237     1   0.14647 272713.120000
   2233   2240     1   0.14647 272713.120000
   2234   2246     1   0.15375 251793.120000
   2237   2249     1   0.15375 251793.120000
   2240   2243     1   0.15375 251793.120000
   2243   2252     1   0.15375 251793.120000
   2246   2258     1   0.15375 251793.120000
   2249   2255     1   0.15375 251793.120000
   2252   2261     1   0.14316 258236.480000
   2255   4552     1   0.14316 258236.480000
   2258   4581     1   0.14316 258236.480000
   2262   2263     1   0.14647 272713.120000
   2262   2266     1   0.14647 272713.120000
   2262   2269     1   0.14647 272713.120000
   2263   2275     1   0.15375 251793.120000
   2266   2278     1   0.15375 251793.120000
   2269   2272     1   0.15375 251793.120000
   2272   2281     1   0.15375 251793.120000
   2275   2287     1   0.15375 251793.120000
   2278   2284     1   0.15375 251793.120000
   2281   2290     1   0.14316 258236.480000
   2284   4610     1   0.14316 258236.480000
   2287   4639     1   0.14316 258236.480000
   2291   2292     1   0.14647 272713.120000
   2291   2295     1   0.14647 272713.120000
   2291   2298     1   0.14647 272713.120000
   2292   2304     1   0.15375 251793.120000
   2295   2307     1   0.15375 251793.120000
   2298   2301     1   0.15375 251793.120000
   2301   2310     1   0.15375 251793.120000
   2304   2316     1   0.15375 251793.120000
   2307   2313     1   0.15375 251793.120000
   2310   2319     1   0.14316 258236.480000
   2313   4668     1   0.14316 258236.480000
   2316   4697     1   0.14316 258236.480000
   2320   2321     1   0.14647 272713.120000
   2320   2324     1   0.14647 272713.120000
   2320   2327     1   0.14647 272713.120000
   2321   2333     1   0.15375 251793.120000
   2324   2336     1   0.15375 251793.120000
   2327   2330     1   0.15375 251793.120000
   2330   2339     1   0.15375 251793.120000
   2333   2345     1   0.15375 251793.120000
   2336   2342     1   0.15375 251793.120000
   2339   2348     1   0.14316 258236.480000
   2342   4726     1   0.14316 258236.480000
   2345   4755     1   0.14316 258236.480000
   2349   2350     1   0.14647 272713.120000
   2349   2353     1   0.14647 272713.120000
   2349   2356     1   0.14647 272713.120000
   2350   2362     1   0.15375 251793.120000
   2353   2365     1   0.15375 251793.120000
   2356   2359     1   0.15375 251793.120000
   2359   2368     1   0.15375 251793.120000
   2362   2374     1   0.15375 251793.120000
   2365   2371     1   0.15375 251793.120000
   2368   2377     1   0.14316 258236.480000
   2371   4784     1   0.14316 258236.480000
   2374   4813     1   0.14316 258236.480000
   2378   2379     1   0.14647 272713.120000
   2378   2382     1   0.14647 272713.120000
   2378   2385     1   0.14647 272713.120000
   2379   2391     1   0.15375 251793.120000
   2382   2394     1   0.15375 251793.120000
   2385   2388     1   0.15375 251793.120000
   2388   2397     1   0.15375 251793.120000
   2391   2403     1   0.15375 251793.120000
   2394   2400     1   0.15375 251793.120000
   2397   2406     1   0.14316 258236.480000
   2400   4842     1   0.14316 258236.480000
   2403   4871     1   0.14316 258236.480000
   2407   2408     1   0.14647 272713.120000
   2407   2411     1   0.14647 272713.120000
   2407   2414     1   0.14647 272713.120000
   2408   2420     1   0.15375 251793.120000
   2411   2423     1   0.15375 251793.120000
   2414   2417     1   0.15375 251793.120000
   2417   2426     1   0.15375 251793.120000
   2420   2432     1   0.15375 251793.120000
   2423   2429     1   0.15375 251793.120000
   2426   2435     1   0.14316 258236.480000
   2429   4900     1   0.14316 258236.480000
   2432   4929     1   0.14316 258236.480000
   2436   2437     1   0.14647 272713.120000
   2436   2440     1   0.14647 272713.120000
   2436   2443     1   0.14647 272713.120000
   2437   2449     1   0.15375 251793.120000
   2440   2452     1   0.15375 251793.120000
   2443   2446     1   0.15375 251793.120000
   2446   2455     1   0.15375 251793.120000
   2449   2461     1   0.15375 251793.120000
   2452   2458     1   0.15375 251793.120000
   2455   2464     1   0.14316 258236.480000
   2458   4958     1   0.14316 258236.480000
   2461   4987     1   0.14316 258236.480000
   2465   2466     1   0.14647 272713.120000
   2465   2469     1   0.14647 272713.120000
   2465   2472     1   0.14647 272713.120000
   2466   2478     1   0.15375 251793.120000
   2469   2481     1   0.15375 251793.120000
   2472   2475     1   0.15375 251793.120000
   2475   2484     1   0.15375 251793.120000
   2478   2490     1   0.15375 251793.120000
   2481   2487     1   0.15375 251793.120000
   2484   2493     1   0.14316 258236.480000
   2487   5016     1   0.14316 258236.480000
   2490   5045     1   0.14316 258236.480000
   2494   2495     1   0.14647 272713.120000
   2494   2498     1   0.14647 272713.120000
   2494   2501     1   0.14647 272713.120000
   2495   2507     1   0.15375 251793.120000
   2498   2510     1   0.15375 251793.120000
   2501   2504     1   0.15375 251793.120000
   2504   2513     1   0.15375 251793.120000
   2507   2519     1   0.15375 251793.120000
   2510   2516     1   0.15375 251793.120000
   2513   2522     1   0.14316 258236.480000
   2516   5074     1   0.14316 258236.480000
   2519   5103     1   0.14316 258236.480000
   2523   2524     1   0.14647 272713.120000
   2523   2527     1   0.14647 272713.120000
   2523   2530     1   0.14647 272713.120000
   2524   2536     1   0.15375 251793.120000
   2527   2539     1   0.15375 251793.120000
   2530   2533     1   0.15375 251793.120000
   2533   2542     1   0.15375 251793.120000
   2536   2548     1   0.15375 251793.120000
   2539   2545     1   0.15375 251793.120000
   2542   2551     1   0.14316 258236.480000
   2545   5132     1   0.14316 258236.480000
   2548   5161     1   0.14316 258236.480000
   2552   2553     1   0.14647 272713.120000
   2552   2556     1   0.14647 272713.120000
   2552   2559     1   0.14647 272713.120000
   2553   2565     1   0.15375 251793.120000
   2556   2568     1   0.15375 251793.120000
   2559   2562     1   0.15375 251793.120000
   2562   2571     1   0.15375 251793.120000
   2565   2577     1   0.15375 251793.120000
   2568   2574     1   0.15375 251793.120000
   2571   2580     1   0.14316 258236.480000
   2574   5190     1   0.14316 258236.480000
   2577   5219     1   0.14316 258236.480000
   2581   2582     1   0.14647 272713.120000
   2581   2585     1   0.14647 272713.120000
   2581   2588     1   0.14647 272713.120000
   2582   2594     1   0.15375 251793.120000
   2585   2597     1   0.15375 251793.120000
   2588   2591     1   0.15375 251793.120000
   2591   2600     1   0.15375 251793.120000
   2594   2606     1   0.15375 251793.120000
   2597   2603     1   0.15375 251793.120000
   2600   2609     1   0.14316 258236.480000
   2603   5248     1   0.14316 258236.480000
   2606   5277     1   0.14316 258236.480000
   2610   2611     1   0.14647 272713.120000
   2610   2614     1   0.14647 272713.120000
   2610   2617     1   0.14647 272713.120000
   2611   2623     1   0.15375 251793.120000
   2614   2626     1   0.15375 251793.120000
   2617   2620     1   0.15375 251793.120000
   2620   2629     1   0.15375 251793.120000
   2623   2635     1   0.15375 251793.120000
   2626   2632     1   0.15375 251793.120000
   2629   2638     1   0.14316 258236.480000
   2632   5306     1   0.14316 258236.480000
   2635   5335     1   0.14316 258236.480000
   2639   2640     1   0.14647 272713.120000
   2639   2643     1   0.14647 272713.120000
   2639   2646     1   0.14647 272713.120000
   2640   2652     1   0.15375 251793.120000
   2643   2655     1   0.15375 251793.120000
   2646   2649     1   0.15375 251793.120000
   2649   2658     1   0.15375 251793.120000
   2652   2664     1   0.15375 251793.120000
   2655   2661     1   0.15375 251793.120000
   2658   2667     1   0.14316 258236.480000
   2661   5364     1   0.14316 258236.480000
   2664   5393     1   0.14316 258236.480000
   2668   2669     1   0.14647 272713.120000
   2668   2672     1   0.14647 272713.120000
   2668   2675     1   0.14647 272713.120000
   2669   2681     1   0.15375 251793.120000
   2672   2684     1   0.15375 251793.120000
   2675   2678     1   0.15375 251793.120000
   2678   2687     1   0.15375 251793.120000
   2681   2693     1   0.15375 251793.120000
   2684   2690     1   0.15375 251793.120000
   2687   2696     1   0.14316 258236.480000
   2690   5422     1   0.14316 258236.480000
   2693   5451     1   0.14316 258236.480000
   2697   2698     1   0.14647 272713.120000
   2697   2701     1   0.14647 272713.120000
   2697   2704     1   0.14647 272713.120000
   2698   2710     1   0.15375 251793.120000
   2701   2713     1   0.15375 251793.120000
   2704   2707     1   0.15375 251793.120000
   2707   2716     1   0.15375 251793.120000
   2710   2722     1   0.15375 251793.120000
   2713   2719     1   0.15375 251793.120000
   2716   2725     1   0.14316 258236.480000
   2719   5480     1   0.14316 258236.480000
   2722   5509     1   0.14316 258236.480000
   2726   2727     1   0.14647 272713.120000
   2726   2730     1   0.14647 272713.120000
   2726   2733     1   0.14647 272713.120000
   2727   2739     1   0.15375 251793.120000
   2730   2742     1   0.15375 251793.120000
   2733   2736     1   0.15375 251793.120000
   2736   2745     1   0.15375 251793.120000
   2739   2751     1   0.15375 251793.120000
   2742   2748     1   0.15375 251793.120000
   2745   2754     1   0.14316 258236.480000
   2748   5538     1   0.14316 258236.480000
   2751   5567     1   0.14316 258236.480000
   2755   2756     1   0.14647 272713.120000
   2755   2759     1   0.14647 272713.120000
   2755   2762     1   0.14647 272713.120000
   2756   2768     1   0.15375 251793.120000
   2759   2771     1   0.15375 251793.120000
   2762   2765     1   0.15375 251793.120000
   2765   2774     1   0.15375 251793.120000
   2768   2780     1   0.15375 251793.120000
   2771   2777     1   0.15375 251793.120000
   2774   2783     1   0.14316 258236.480000
   2777   5596     1   0.14316 258236.480000
   2780   5625     1   0.14316 258236.480000
   2784   2785     1   0.14647 272713.120000
   2784   2788     1   0.14647 272713.120000
   2784   2791     1   0.14647 272713.120000
   2785   2797     1   0.15375 251793.120000
   2788   2800     1   0.15375 251793.120000
   2791   2794     1   0.15375 251793.120000
   2794   2803     1   0.15375 251793.120000
   2797   2809     1   0.15375 251793.120000
   2800   2806     1   0.15375 251793.120000
   2803   2812     1   0.14316 258236.480000
   2806   5654     1   0.14316 258236.480000
   2809   5683     1   0.14316 258236.480000
   2813   2814     1   0.14647 272713.120000
   2813   2817     1   0.14647 272713.120000
   2813   2820     1   0.14647 272713.120000
   2814   2826     1   0.15375 251793.120000
   2817   2829     1   0.15375 251793.120000
   2820   2823     1   0.15375 251793.120000
   2823   2832     1   0.15375 251793.120000
   2826   2838     1   0.15375 251793.120000
   2829   2835     1   0.15375 251793.120000
   2832   2841     1   0.14316 258236.480000
   2835   5712     1   0.14316 258236.480000
   2838   5741     1   0.14316 258236.480000
   2842   2843     1   0.14647 272713.120000
   2842   2846     1   0.14647 272713.120000
   2842   2849     1   0.14647 272713.120000
   2843   2855     1   0.15375 251793.120000
   2846   2858     1   0.15375 251793.120000
   2849   2852     1   0.15375 251793.120000
   2852   2861     1   0.15375 251793.120000
   2855   2867     1   0.15375 251793.120000
   2858   2864     1   0.15375 251793.120000
   2861   2870     1   0.14316 258236.480000
   2864   5770     1   0.14316 258236.480000
   2867   5799     1   0.14316 258236.480000
   2871   2872     1   0.14647 272713.120000
   2871   2875     1   0.14647 272713.120000
   2871   2878     1   0.14647 272713.120000
   2872   2884     1   0.15375 251793.120000
   2875   2887     1   0.15375 251793.120000
   2878   2881     1   0.15375 251793.120000
   2881   2890     1   0.15375 251793.120000
   2884   2896     1   0.15375 251793.120000
   2887   2893     1   0.15375 251793.120000
   2890   2899     1   0.14316 258236.480000
   2893   5828     1   0.14316 258236.480000
   2896   5857     1   0.14316 258236.480000
   2900   2901     1   0.14647 272713.120000
   2900   2904     1   0.14647 272713.120000
   2900   2907     1   0.14647 272713.120000
   2901   2913     1   0.15375 251793.120000
   2904   2916     1   0.15375 251793.120000
   2907   2910     1   0.15375 251793.120000
   2910   2919     1   0.15375 251793.120000
   2913   2925     1   0.15375 251793.120000
   2916   2922     1   0.15375 251793.120000
   2919   2928     1   0.14316 258236.480000
   2922   5886     1   0.14316 258236.480000
   2925   5915     1   0.14316 258236.480000
   2929   2930     1   0.14647 272713.120000
   2929   2933     1   0.14647 272713.120000
   2929   2936     1   0.14647 272713.120000
   2930   2942     1   0.15375 251793.120000
   2933   2945     1   0.15375 251793.120000
   2936   2939     1   0.15375 251793.120000
   2939   2948     1   0.15375 251793.120000
   2942   2954     1   0.15375 251793.120000
   2945   2951     1   0.15375 251793.120000
   2948   2957     1   0.14316 258236.480000
   2951   5944     1   0.14316 258236.480000
   2954   5973     1   0.14316 258236.480000
   2958   2959     1   0.14647 272713.120000
   2958   2962     1   0.14647 272713.120000
   2958   2965     1   0.14647 272713.120000
   2959   2971     1   0.15375 251793.120000
   2962   2974     1   0.15375 251793.120000
   2965   2968     1   0.15375 251793.120000
   2968   2977     1   0.15375 251793.120000
   2971   2983     1   0.15375 251793.120000
   2974   2980     1   0.15375 251793.120000
   2977   2986     1   0.14316 258236.480000
   2980   6002     1   0.14316 258236.480000
   2983   6031     1   0.14316 258236.480000
   2987   2988     1   0.14647 272713.120000
   2987   2991     1   0.14647 272713.120000
   2987   2994     1   0.14647 272713.120000
   2988   3000     1   0.15375 251793.120000
   2991   3003     1   0.15375 251793.120000
   2994   2997     1   0.15375 251793.120000
   2997   3006     1   0.15375 251793.120000
   3000   3012     1   0.15375 251793.120000
   3003   3009     1   0.15375 251793.120000
   3006   3015     1   0.14316 258236.480000
   3009   6060     1   0.14316 258236.480000
   3012   6089     1   0.14316 258236.480000
   3016   3017     1   0.14647 272713.120000
   3016   3020     1   0.14647 272713.120000
   3016   3023     1   0.14647 272713.120000
   3017   3029     1   0.15375 251793.120000
   3020   3032     1   0.15375 251793.120000
   3023   3026     1   0.15375 251793.120000
   3026   3035     1   0.15375 251793.120000
   3029   3041     1   0.15375 251793.120000
   3032   3038     1   0.15375 251793.120000
   3035   3044     1   0.14316 258236.480000
   3038   6118     1   0.14316 258236.480000
   3041   6147     1   0.14316 258236.480000
   3045   3046     1   0.14647 272713.120000
   3045   3049     1   0.14647 272713.120000
   3045   3052     1   0.14647 272713.120000
   3046   3058     1   0.15375 251793.120000
   3049   3061     1   0.15375 251793.120000
   3052   3055     1   0.15375 251793.120000
   3055   3064     1   0.15375 251793.120000
   3058   3070     1   0.15375 251793.120000
   3061   3067     1   0.15375 251793.120000
   3064   3073     1   0.14316 258236.480000
   3067   6176     1   0.14316 258236.480000
   3070   6205     1   0.14316 258236.480000
   3074   3075     1   0.14647 272713.120000
   3074   3078     1   0.14647 272713.120000
   3074   3081     1   0.14647 272713.120000
   3075   3087     1   0.15375 251793.120000
   3078   3090     1   0.15375 251793.120000
   3081   3084     1   0.15375 251793.120000
   3084   3093     1   0.15375 251793.120000
   3087   3099     1   0.15375 251793.120000
   3090   3096     1   0.15375 251793.120000
   3093   3102     1   0.14316 258236.480000
   3096   6234     1   0.14316 258236.480000
   3099   6263     1   0.14316 258236.480000
   3103   3104     1   0.14647 272713.120000
   3103   3107     1   0.14647 272713.120000
   3103   3110     1   0.14647 272713.120000
   3104   3116     1   0.15375 251793.120000
   3107   3119     1   0.15375 251793.120000
   3110   3113     1   0.15375 251793.120000
   3113   3122     1   0.15375 251793.120000
   3116   3128     1   0.15375 251793.120000
   3119   3125     1   0.15375 251793.120000
   3122   3131     1   0.14316 258236.480000
   3125   6292     1   0.14316 258236.480000
   3128   6321     1   0.14316 258236.480000
   3132   3133     1   0.14647 272713.120000
   3132   3136     1   0.14647 272713.120000
   3132   3139     1   0.14647 272713.120000
   3133   3145     1   0.15375 251793.120000
   3136   3148     1   0.15375 251793.120000
   3139   3142     1   0.15375 251793.120000
   3142   3151     1   0.15375 251793.120000
   3145   3157     1   0.15375 251793.120000
   3148   3154     1   0.15375 251793.120000
   3151   3160     1   0.14316 258236.480000
   3154   6350     1   0.14316 258236.480000
   3157   6379     1   0.14316 258236.480000
   3161   3162     1   0.14647 272713.120000
   3161   3165     1   0.14647 272713.120000
   3161   3168     1   0.14647 272713.120000
   3162   3174     1   0.15375 251793.120000
   3165   3177     1   0.15375 251793.120000
   3168   3171     1   0.15375 251793.120000
   3171   3180     1   0.15375 251793.120000
   3174   3186     1   0.15375 251793.120000
   3177   3183     1   0.15375 251793.120000
   3180   3189     1   0.14316 258236.480000
   3183   6408     1   0.14316 258236.480000
   3186   6437     1   0.14316 258236.480000
   3190   3191     1   0.14647 272713.120000
   3190   3194     1   0.14647 272713.120000
   3190   3197     1   0.14647 272713.120000
   3191   3203     1   0.15375 251793.120000
   3194   3206     1   0.15375 251793.120000
   3197   3200     1   0.15375 251793.120000
   3200   3209     1   0.15375 251793.120000
   3203   3215     1   0.15375 251793.120000
   3206   3212     1   0.15375 251793.120000
   3209   3218     1   0.14316 258236.480000
   3212   6466     1   0.14316 258236.480000
   3215   6495     1   0.14316 258236.480000
   3219   3220     1   0.14647 272713.120000
   3219   3223     1   0.14647 272713.120000
   3219   3226     1   0.14647 272713.120000
   3220   3232     1   0.15375 251793.120000
   3223   3235     1   0.15375 251793.120000
   3226   3229     1   0.15375 251793.120000
   3229   3238     1   0.15375 251793.120000
   3232   3244     1   0.15375 251793.120000
   3235   3241     1   0.15375 251793.120000
   3238   3247     1   0.14316 258236.480000
   3241   6524     1   0.14316 258236.480000
   3244   6553     1   0.14316 258236.480000
   3248   3249     1   0.14647 272713.120000
   3248   3252     1   0.14647 272713.120000
   3248   3255     1   0.14647 272713.120000
   3249   3261     1   0.15375 251793.120000
   3252   3264     1   0.15375 251793.120000
   3255   3258     1   0.15375 251793.120000
   3258   3267     1   0.15375 251793.120000
   3261   3273     1   0.15375 251793.120000
   3264   3270     1   0.15375 251793.120000
   3267   3276     1   0.14316 258236.480000
   3270   6582     1   0.14316 258236.480000
   3273   6611     1   0.14316 258236.480000
   3277   3278     1   0.14647 272713.120000
   3277   3281     1   0.14647 272713.120000
   3277   3284     1   0.14647 272713.120000
   3278   3290     1   0.15375 251793.120000
   3281   3293     1   0.15375 251793.120000
   3284   3287     1   0.15375 251793.120000
   3287   3296     1   0.15375 251793.120000
   3290   3302     1   0.15375 251793.120000
   3293   3299     1   0.15375 251793.120000
   3296   3305     1   0.14316 258236.480000
   3299   6640     1   0.14316 258236.480000
   3302   6669     1   0.14316 258236.480000
   3306   3307     1   0.14647 272713.120000
   3306   3310     1   0.14647 272713.120000
   3306   3313     1   0.14647 272713.120000
   3307   3319     1   0.15375 251793.120000
   3310   3322     1   0.15375 251793.120000
   3313   3316     1   0.15375 251793.120000
   3316   3325     1   0.15375 251793.120000
   3319   3331     1   0.15375 251793.120000
   3322   3328     1   0.15375 251793.120000
   3325   3334     1   0.14316 258236.480000
   3328   6698     1   0.14316 258236.480000
   3331   6727     1   0.14316 258236.480000
   3335   3336     1   0.14647 272713.120000
   3335   3339     1   0.14647 272713.120000
   3335   3342     1   0.14647 272713.120000
   3336   3348     1   0.15375 251793.120000
   3339   3351     1   0.15375 251793.120000
   3342   3345     1   0.15375 251793.120000
   3345   3354     1   0.15375 251793.120000
   3348   3360     1   0.15375 251793.120000
   3351   3357     1   0.15375 251793.120000
   3354   3363     1   0.14316 258236.480000
   3357   6756     1   0.14316 258236.480000
   3360   6785     1   0.14316 258236.480000
   3364   3365     1   0.14647 272713.120000
   3364   3368     1   0.14647 272713.120000
   3364   3371     1   0.14647 272713.120000
   3365   3377     1   0.15375 251793.120000
   3368   3380     1   0.15375 251793.120000
   3371   3374     1   0.15375 251793.120000
   3374   3383     1   0.15375 251793.120000
   3377   3389     1   0.15375 251793.120000
   3380   3386     1   0.15375 251793.120000
   3383   3392     1   0.14316 258236.480000
   3386   6814     1   0.14316 258236.480000
   3389   6843     1   0.14316 258236.480000
   3393   3394     1   0.14647 272713.120000
   3393   3397     1   0.14647 272713.120000
   3393   3400     1   0.14647 272713.120000
   3394   3406     1   0.15375 251793.120000
   3397   3409     1   0.15375 251793.120000
   3400   3403     1   0.15375 251793.120000
   3403   3412     1   0.15375 251793.120000
   3406   3418     1   0.15375 251793.120000
   3409   3415     1   0.15375 251793.120000
   3412   3421     1   0.14316 258236.480000
   3415   6872     1   0.14316 258236.480000
   3418   6901     1   0.14316 258236.480000
   3422   3423     1   0.14647 272713.120000
   3422   3426     1   0.14647 272713.120000
   3422   3429     1   0.14647 272713.120000
   3423   3435     1   0.15375 251793.120000
   3426   3438     1   0.15375 251793.120000
   3429   3432     1   0.15375 251793.120000
   3432   3441     1   0.15375 251793.120000
   3435   3447     1   0.15375 251793.120000
   3438   3444     1   0.15375 251793.120000
   3441   3450     1   0.14316 258236.480000
   3444   6930     1   0.14316 258236.480000
   3447   6959     1   0.14316 258236.480000
   3451   3452     1   0.14647 272713.120000
   3451   3455     1   0.14647 272713.120000
   3451   3458     1   0.14647 272713.120000
   3452   3464     1   0.15375 251793.120000
   3455   3467     1   0.15375 251793.120000
   3458   3461     1   0.15375 251793.120000
   3461   3470     1   0.15375 251793.120000
   3464   3476     1   0.15375 251793.120000
   3467   3473     1   0.15375 251793.120000
   3470   3479     1   0.14316 258236.480000
   3473   6988     1   0.14316 258236.480000
   3476   7017     1   0.14316 258236.480000
   3480   3481     1   0.14647 272713.120000
   3480   3484     1   0.14647 272713.120000
   3480   3487     1   0.14647 272713.120000
   3481   3493     1   0.15375 251793.120000
   3484   3496     1   0.15375 251793.120000
   3487   3490     1   0.15375 251793.120000
   3490   3499     1   0.15375 251793.120000
   3493   3505     1   0.15375 251793.120000
   3496   3502     1   0.15375 251793.120000
   3499   3508     1   0.14316 258236.480000
   3502   7046     1   0.14316 258236.480000
   3505   7075     1   0.14316 258236.480000
   3509   3510     1   0.14647 272713.120000
   3509   3513     1   0.14647 272713.120000
   3509   3516     1   0.14647 272713.120000
   3510   3522     1   0.15375 251793.120000
   3513   3525     1   0.15375 251793.120000
   3516   3519     1   0.15375 251793.120000
   3519   3528     1   0.15375 251793.120000
   3522   3534     1   0.15375 251793.120000
   3525   3531     1   0.15375 251793.120000
   3528   3537     1   0.14316 258236.480000
   3531   7104     1   0.14316 258236.480000
   3534   7133     1   0.14316 258236.480000
   3538   3539     1   0.14647 272713.120000
   3538   3542     1   0.14647 272713.120000
   3538   3545     1   0.14647 272713.120000
   3539   3551     1   0.15375 251793.120000
   3542   3554     1   0.15375 251793.120000
   3545   3548     1   0.15375 251793.120000
   3548   3557     1   0.15375 251793.120000
   3551   3563     1   0.15375 251793.120000
   3554   3560     1   0.15375 251793.120000
   3557   3566     1   0.14316 258236.480000
   3560   7162     1   0.14316 258236.480000
   3563   7191     1   0.14316 258236.480000
   3567   3568     1   0.14647 272713.120000
   3567   3571     1   0.14647 272713.120000
   3567   3574     1   0.14647 272713.120000
   3568   3580     1   0.15375 251793.120000
   3571   3583     1   0.15375 251793.120000
   3574   3577     1   0.15375 251793.120000
   3577   3586     1   0.15375 251793.120000
   3580   3592     1   0.15375 251793.120000
   3583   3589     1   0.15375 251793.120000
   3586   3595     1   0.14316 258236.480000
   3589   7220     1   0.14316 258236.480000
   3592   7249     1   0.14316 258236.480000
   3596   3597     1   0.14647 272713.120000
   3596   3600     1   0.14647 272713.120000
   3596   3603     1   0.14647 272713.120000
   3597   3609     1   0.15375 251793.120000
   3600   3612     1   0.15375 251793.120000
   3603   3606     1   0.15375 251793.120000
   3606   3615     1   0.15375 251793.120000
   3609   3621     1   0.15375 251793.120000
   3612   3618     1   0.15375 251793.120000
   3615   3624     1   0.14316 258236.480000
   3618   7278     1   0.14316 258236.480000
   3621   7307     1   0.14316 258236.480000
   3625   3626     1   0.14647 272713.120000
   3625   3629     1   0.14647 272713.120000
   3625   3632     1   0.14647 272713.120000
   3626   3638     1   0.15375 251793.120000
   3629   3641     1   0.15375 251793.120000
   3632   3635     1   0.15375 251793.120000
   3635   3644     1   0.15375 251793.120000
   3638   3650     1   0.15375 251793.120000
   3641   3647     1   0.15375 251793.120000
   3644   3653     1   0.14316 258236.480000
   3647   7336     1   0.14316 258236.480000
   3650   7365     1   0.14316 258236.480000
   3654   3655     1   0.14647 272713.120000
   3654   3658     1   0.14647 272713.120000
   3654   3661     1   0.14647 272713.120000
   3655   3667     1   0.15375 251793.120000
   3658   3670     1   0.15375 251793.120000
   3661   3664     1   0.15375 251793.120000
   3664   3673     1   0.15375 251793.120000
   3667   3679     1   0.15375 251793.120000
   3670   3676     1   0.15375 251793.120000
   3673   3682     1   0.14316 258236.480000
   3676   7394     1   0.14316 258236.480000
   3679   7423     1   0.14316 258236.480000
   3683   3684     1   0.14647 272713.120000
   3683   3687     1   0.14647 272713.120000
   3683   3690     1   0.14647 272713.120000
   3684   3696     1   0.15375 251793.120000
   3687   3699     1   0.15375 251793.120000
   3690   3693     1   0.15375 251793.120000
   3693   3702     1   0.15375 251793.120000
   3696   3708     1   0.15375 251793.120000
   3699   3705     1   0.15375 251793.120000
   3702   3711     1   0.14316 258236.480000
   3705   7452     1   0.14316 258236.480000
   3708   7481     1   0.14316 258236.480000
   3712   3713     1   0.14647 272713.120000
   3712   3716     1   0.14647 272713.120000
   3712   3719     1   0.14647 272713.120000
   3713   3725     1   0.15375 251793.120000
   3716   3728     1   0.15375 251793.120000
   3719   3722     1   0.15375 251793.120000
   3722   3731     1   0.15375 251793.120000
   3725   3737     1   0.15375 251793.120000
   3728   3734     1   0.15375 251793.120000
   3731   3740     1   0.14316 258236.480000
   3734   7510     1   0.14316 258236.480000
   3737   7539     1   0.14316 258236.480000
   3741   3742     1   0.14647 272713.120000
   3741   3745     1   0.14647 272713.120000
   3741   3748     1   0.14647 272713.120000
   3742   3754     1   0.15375 251793.120000
   3745   3757     1   0.15375 251793.120000
   3748   3751     1   0.15375 251793.120000
   3751   3760     1   0.15375 251793.120000
   3754   3766     1   0.15375 251793.120000
   3757   3763     1   0.15375 251793.120000
   3760   3769     1   0.14316 258236.480000
   3763   7568     1   0.14316 258236.480000
   3766   7597     1   0.14316 258236.480000
   3770   3771     1   0.14647 272713.120000
   3770   3774     1   0.14647 272713.120000
   3770   3777     1   0.14647 272713.120000
   3771   3783     1   0.15375 251793.120000
   3774   3786     1   0.15375 251793.120000
   3777   3780     1   0.15375 251793.120000
   3780   3789     1   0.15375 251793.120000
   3783   3795     1   0.15375 251793.120000
   3786   3792     1   0.15375 251793.120000
   3789   3798     1   0.14316 258236.480000
   3792   7626     1   0.14316 258236.480000
   3795   7655     1   0.14316 258236.480000
   3799   3800     1   0.14647 272713.120000
   3799   3803     1   0.14647 272713.120000
   3799   3806     1   0.14647 272713.120000
   3800   3812     1   0.15375 251793.120000
   3803   3815     1   0.15375 251793.120000
   3806   3809     1   0.15375 251793.120000
   3809   3818     1   0.15375 251793.120000
   3812   3824     1   0.15375 251793.120000
   3815   3821     1   0.15375 251793.120000
   3818   3827     1   0.14316 258236.480000
   3821   7684     1   0.14316 258236.480000
   3824   7713     1   0.14316 258236.480000
   3828   3829     1   0.14647 272713.120000
   3828   3832     1   0.14647 272713.120000
   3828   3835     1   0.14647 272713.120000
   3829   3841     1   0.15375 251793.120000
   3832   3844     1   0.15375 251793.120000
   3835   3838     1   0.15375 251793.120000
   3838   3847     1   0.15375 251793.120000
   3841   3853     1   0.15375 251793.120000
   3844   3850     1   0.15375 251793.120000
   3847   3856     1   0.14316 258236.480000
   3850   7742     1   0.14316 258236.480000
   3853   7771     1   0.14316 258236.480000
   3857   3858     1   0.14647 272713.120000
   3857   3861     1   0.14647 272713.120000
   3857   3864     1   0.14647 272713.120000
   3858   3870     1   0.15375 251793.120000
   3861   3873     1   0.15375 251793.120000
   3864   3867     1   0.15375 251793.120000
   3867   3876     1   0.15375 251793.120000
   3870   3882     1   0.15375 251793.120000
   3873   3879     1   0.15375 251793.120000
   3876   3885     1   0.14316 258236.480000
   3879   7800     1   0.14316 258236.480000
   3882   7829     1   0.14316 258236.480000
   3886   3887     1   0.14647 272713.120000
   3886   3890     1   0.14647 272713.120000
   3886   3893     1   0.14647 272713.120000
   3887   3899     1   0.15375 251793.120000
   3890   3902     1   0.15375 251793.120000
   3893   3896     1   0.15375 251793.120000
   3896   3905     1   0.15375 251793.120000
   3899   3911     1   0.15375 251793.120000
   3902   3908     1   0.15375 251793.120000
   3905   3914     1   0.14316 258236.480000
   3908   7858     1   0.14316 258236.480000
   3911   7887     1   0.14316 258236.480000
   3915   3916     1   0.14647 272713.120000
   3915   3919     1   0.14647 272713.120000
   3915   3922     1   0.14647 272713.120000
   3916   3928     1   0.15375 251793.120000
   3919   3931     1   0.15375 251793.120000
   3922   3925     1   0.15375 251793.120000
   3925   3934     1   0.15375 251793.120000
   3928   3940     1   0.15375 251793.120000
   3931   3937     1   0.15375 251793.120000
   3934   3943     1   0.14316 258236.480000
   3937   7916     1   0.14316 258236.480000
   3940   7945     1   0.14316 258236.480000
   3944   3945     1   0.14647 272713.120000
   3944   3948     1   0.14647 272713.120000
   3944   3951     1   0.14647 272713.120000
   3945   3957     1   0.15375 251793.120000
   3948   3960     1   0.15375 251793.120000
   3951   3954     1   0.15375 251793.120000
   3954   3963     1   0.15375 251793.120000
   3957   3969     1   0.15375 251793.120000
   3960   3966     1   0.15375 251793.120000
   3963   3972     1   0.14316 258236.480000
   3966   7974     1   0.14316 258236.480000
   3969   8003     1   0.14316 258236.480000
   3973   3974     1   0.14647 272713.120000
   3973   3977     1   0.14647 272713.120000
   3973   3980     1   0.14647 272713.120000
   3974   3986     1   0.15375 251793.120000
   3977   3989     1   0.15375 251793.120000
   3980   3983     1   0.15375 251793.120000
   3983   3992     1   0.15375 251793.120000
   3986   3998     1   0.15375 251793.120000
   3989   3995     1   0.15375 251793.120000
   3992   4001     1   0.14316 258236.480000
   3995   8032     1   0.14316 258236.480000
   3998   8061     1   0.14316 258236.480000
   4002   4003     1   0.14647 272713.120000
   4002   4006     1   0.14647 272713.120000
   4002   4009     1   0.14647 272713.120000
   4003   4015     1   0.15375 251793.120000
   4006   4018     1   0.15375 251793.120000
   4009   4012     1   0.15375 251793.120000
   4012   4021     1   0.15375 251793.120000
   4015   4027     1   0.15375 251793.120000
   4018   4024     1   0.15375 251793.120000
   4021   4030     1   0.14316 258236.480000
   4024   8090     1   0.14316 258236.480000
   4027   8119     1   0.14316 258236.480000
   4031   4032     1   0.14647 272713.120000
   4031   4035     1   0.14647 272713.120000
   4031   4038     1   0.14647 272713.120000
   4032   4044     1   0.15375 251793.120000
   4035   4047     1   0.15375 251793.120000
   4038   4041     1   0.15375 251793.120000
   4041   4050     1   0.15375 251793.120000
   4044   4056     1   0.15375 251793.120000
   4047   4053     1   0.15375 251793.120000
   4050   4059     1   0.14316 258236.480000
   4053   8148     1   0.14316 258236.480000
   4056   8177     1   0.14316 258236.480000
   4060   4061     1   0.14647 272713.120000
   4060   4064     1   0.14647 272713.120000
   4060   4067     1   0.14647 272713.120000
   4061   4073     1   0.15375 251793.120000
   4064   4076     1   0.15375 251793.120000
   4067   4070     1   0.15375 251793.120000
   4070   4079     1   0.15375 251793.120000
   4073   4085     1   0.15375 251793.120000
   4076   4082     1   0.15375 251793.120000
   4079   4088     1   0.14316 258236.480000
   4082   8206     1   0.14316 258236.480000
   4085   8235     1   0.14316 258236.480000
   4089   4090     1   0.14647 272713.120000
   4089   4093     1   0.14647 272713.120000
   4089   4096     1   0.14647 272713.120000
   4090   4102     1   0.15375 251793.120000
   4093   4105     1   0.15375 251793.120000
   4096   4099     1   0.15375 251793.120000
   4099   4108     1   0.15375 251793.120000
   4102   4114     1   0.15375 251793.120000
   4105   4111     1   0.15375 251793.120000
   4108   4117     1   0.14316 258236.480000
   4111   8264     1   0.14316 258236.480000
   4114   8293     1   0.14316 258236.480000
   4118   4119     1   0.14647 272713.120000
   4118   4122     1   0.14647 272713.120000
   4118   4125     1   0.14647 272713.120000
   4119   4131     1   0.15375 251793.120000
   4122   4134     1   0.15375 251793.120000
   4125   4128     1   0.15375 251793.120000
   4128   4137     1   0.15375 251793.120000
   4131   4143     1   0.15375 251793.120000
   4134   4140     1   0.15375 251793.120000
   4137   4146     1   0.14316 258236.480000
   4140   8322     1   0.14316 258236.480000
   4143   8351     1   0.14316 258236.480000
   4147   4148     1   0.14647 272713.120000
   4147   4151     1   0.14647 272713.120000
   4147   4154     1   0.14647 272713.120000
   4148   4160     1   0.15375 251793.120000
   4151   4163     1   0.15375 251793.120000
   4154   4157     1   0.15375 251793.120000
   4157   4166     1   0.15375 251793.120000
   4160   4172     1   0.15375 251793.120000
   4163   4169     1   0.15375 251793.120000
   4166   4175     1   0.14316 258236.480000
   4169   8380     1   0.14316 258236.480000
   4172   8409     1   0.14316 258236.480000
   4176   4177     1   0.14647 272713.120000
   4176   4180     1   0.14647 272713.120000
   4176   4183     1   0.14647 272713.120000
   4177   4189     1   0.15375 251793.120000
   4180   4192     1   0.15375 251793.120000
   4183   4186     1   0.15375 251793.120000
   4186   4195     1   0.15375 251793.120000
   4189   4201     1   0.15375 251793.120000
   4192   4198     1   0.15375 251793.120000
   4195   4204     1   0.14316 258236.480000
   4198   8438     1   0.14316 258236.480000
   4201   8467     1   0.14316 258236.480000
   4205   4206     1   0.14647 272713.120000
   4205   4209     1   0.14647 272713.120000
   4205   4212     1   0.14647 272713.120000
   4206   4218     1   0.15375 251793.120000
   4209   4221     1   0.15375 251793.120000
   4212   4215     1   0.15375 251793.120000
   4215   4224     1   0.15375 251793.120000
   4218   4230     1   0.15375 251793.120000
   4221   4227     1   0.15375 251793.120000
   4224   4233     1   0.14316 258236.480000
   4227   8496     1   0.14316 258236.480000
   4230   8525     1   0.14316 258236.480000
   4234   4235     1   0.14647 272713.120000
   4234   4238     1   0.14647 272713.120000
   4234   4241     1   0.14647 272713.120000
   4235   4247     1   0.15375 251793.120000
   4238   4250     1   0.15375 251793.120000
   4241   4244     1   0.15375 251793.120000
   4244   4253     1   0.15375 251793.120000
   4247   4259     1   0.15375 251793.120000
   4250   4256     1   0.15375 251793.120000
   4253   4262     1   0.14316 258236.480000
   4256   8554     1   0.14316 258236.480000
   4259   8583     1   0.14316 258236.480000
   4263   4264     1   0.14647 272713.120000
   4263   4267     1   0.14647 272713.120000
   4263   4270     1   0.14647 272713.120000
   4264   4276     1   0.15375 251793.120000
   4267   4279     1   0.15375 251793.120000
   4270   4273     1   0.15375 251793.120000
   4273   4282     1   0.15375 251793.120000
   4276   4288     1   0.15375 251793.120000
   4279   4285     1   0.15375 251793.120000
   4282   4291     1   0.14316 258236.480000
   4285   8612     1   0.14316 258236.480000
   4288   8641     1   0.14316 258236.480000
   4292   4293     1   0.14647 272713.120000
   4292   4296     1   0.14647 272713.120000
   4292   4299     1   0.14647 272713.120000
   4293   4305     1   0.15375 251793.120000
   4296   4308     1   0.15375 251793.120000
   4299   4302     1   0.15375 251793.120000
   4302   4311     1   0.15375 251793.120000
   4305   4317     1   0.15375 251793.120000
   4308   4314     1   0.15375 251793.120000
   4311   4320     1   0.14316 258236.480000
   4314   8670     1   0.14316 258236.480000
   4317   8699     1   0.14316 258236.480000
   4321   4322     1   0.14647 272713.120000
   4321   4325     1   0.14647 272713.120000
   4321   4328     1   0.14647 272713.120000
   4322   4334     1   0.15375 251793.120000
   4325   4337     1   0.15375 251793.120000
   4328   4331     1   0.15375 251793.120000
   4331   4340     1   0.15375 251793.120000
   4334   4346     1   0.15375 251793.120000
   4337   4343     1   0.15375 251793.120000
   4340   4349     1   0.14316 258236.480000
   4343   8728     1   0.14316 258236.480000
   4346   8757     1   0.14316 258236.480000
   4350   4351     1   0.14647 272713.120000
   4350   4354     1   0.14647 272713.120000
   4350   4357     1   0.14647 272713.120000
   4351   4363     1   0.15375 251793.120000
   4354   4366     1   0.15375 251793.120000
   4357   4360     1   0.15375 251793.120000
   4360   4369     1   0.15375 251793.120000
   4363   4375     1   0.15375 251793.120000
   4366   4372     1   0.15375 251793.120000
   4369   4378     1   0.14316 258236.480000
   4372   8786     1   0.14316 258236.480000
   4375   8815     1   0.14316 258236.480000
   4379   4380     1   0.14647 272713.120000
   4379   4383     1   0.14647 272713.120000
   4379   4386     1   0.14647 272713.120000
   4380   4392     1   0.15375 251793.120000
   4383   4395     1   0.15375 251793.120000
   4386   4389     1   0.15375 251793.120000
   4389   4398     1   0.15375 251793.120000
   4392   4404     1   0.15375 251793.120000
   4395   4401     1   0.15375 251793.120000
   4398   4407     1   0.14316 258236.480000
   4401   8844     1   0.14316 258236.480000
   4404   8873     1   0.14316 258236.480000
   4408   4409     1   0.14647 272713.120000
   4408   4412     1   0.14647 272713.120000
   4408   4415     1   0.14647 272713.120000
   4409   4421     1   0.15375 251793.120000
   4412   4424     1   0.15375 251793.120000
   4415   4418     1   0.15375 251793.120000
   4418   4427     1   0.15375 251793.120000
   4421   4433     1   0.15375 251793.120000
   4424   4430     1   0.15375 251793.120000
   4427   4436     1   0.14316 258236.480000
   4430   8902     1   0.14316 258236.480000
   4433   8931     1   0.14316 258236.480000
   4437   4438     1   0.14647 272713.120000
   4437   4441     1   0.14647 272713.120000
   4437   4444     1   0.14647 272713.120000
   4438   4450     1   0.15375 251793.120000
   4441   4453     1   0.15375 251793.120000
   4444   4447     1   0.15375 251793.120000
   4447   4456     1   0.15375 251793.120000
   4450   4462     1   0.15375 251793.120000
   4453   4459     1   0.15375 251793.120000
   4456   4465     1   0.14316 258236.480000
   4459   8960     1   0.14316 258236.480000
   4462   8989     1   0.14316 258236.480000
   4466   4467     1   0.14647 272713.120000
   4466   4470     1   0.14647 272713.120000
   4466   4473     1   0.14647 272713.120000
   4467   4479     1   0.15375 251793.120000
   4470   4482     1   0.15375 251793.120000
   4473   4476     1   0.15375 251793.120000
   4476   4485     1   0.15375 251793.120000
   4479   4491     1   0.15375 251793.120000
   4482   4488     1   0.15375 251793.120000
   4485   4494     1   0.14316 258236.480000
   4488   9018     1   0.14316 258236.480000
   4491   9047     1   0.14316 258236.480000
   4495   4496     1   0.14647 272713.120000
   4495   4499     1   0.14647 272713.120000
   4495   4502     1   0.14647 272713.120000
   4496   4508     1   0.15375 251793.120000
   4499   4511     1   0.15375 251793.120000
   4502   4505     1   0.15375 251793.120000
   4505   4514     1   0.15375 251793.120000
   4508   4520     1   0.15375 251793.120000
   4511   4517     1   0.15375 251793.120000
   4514   4523     1   0.14316 258236.480000
   4517   9076     1   0.14316 258236.480000
   4520   9105     1   0.14316 258236.480000
   4524   4525     1   0.14647 272713.120000
   4524   4528     1   0.14647 272713.120000
   4524   4531     1   0.14647 272713.120000
   4525   4537     1   0.15375 251793.120000
   4528   4540     1   0.15375 251793.120000
   4531   4534     1   0.15375 251793.120000
   4534   4543     1   0.15375 251793.120000
   4537   4549     1   0.15375 251793.120000
   4540   4546     1   0.15375 251793.120000
   4543   4552     1   0.14316 258236.480000
   4546   9134     1   0.14316 258236.480000
   4549   9163     1   0.14316 258236.480000
   4553   4554     1   0.14647 272713.120000
   4553   4557     1   0.14647 272713.120000
   4553   4560     1   0.14647 272713.120000
   4554   4566     1   0.15375 251793.120000
   4557   4569     1   0.15375 251793.120000
   4560   4563     1   0.15375 251793.120000
   4563   4572     1   0.15375 251793.120000
   4566   4578     1   0.15375 251793.120000
   4569   4575     1   0.15375 251793.120000
   4572   4581     1   0.14316 258236.480000
   4575   9192     1   0.14316 258236.480000
   4578   9221     1   0.14316 258236.480000
   4582   4583     1   0.14647 272713.120000
   4582   4586     1   0.14647 272713.120000
   4582   4589     1   0.14647 272713.120000
   4583   4595     1   0.15375 251793.120000
   4586   4598     1   0.15375 251793.120000
   4589   4592     1   0.15375 251793.120000
   4592   4601     1   0.15375 251793.120000
   4595   4607     1   0.15375 251793.120000
   4598   4604     1   0.15375 251793.120000
   4601   4610     1   0.14316 258236.480000
   4604   9250     1   0.14316 258236.480000
   4607   9279     1   0.14316 258236.480000
   4611   4612     1   0.14647 272713.120000
   4611   4615     1   0.14647 272713.120000
   4611   4618     1   0.14647 272713.120000
   4612   4624     1   0.15375 251793.120000
   4615   4627     1   0.15375 251793.120000
   4618   4621     1   0.15375 251793.120000
   4621   4630     1   0.15375 251793.120000
   4624   4636     1   0.15375 251793.120000
   4627   4633     1   0.15375 251793.120000
   4630   4639     1   0.14316 258236.480000
   4633   9308     1   0.14316 258236.480000
   4636   9337     1   0.14316 258236.480000
   4640   4641     1   0.14647 272713.120000
   4640   4644     1   0.14647 272713.120000
   4640   4647     1   0.14647 272713.120000
   4641   4653     1   0.15375 251793.120000
   4644   4656     1   0.15375 251793.120000
   4647   4650     1   0.15375 251793.120000
   4650   4659     1   0.15375 251793.120000
   4653   4665     1   0.15375 251793.120000
   4656   4662     1   0.15375 251793.120000
   4659   4668     1   0.14316 258236.480000
   4662   9366     1   0.14316 258236.480000
   4665   9395     1   0.14316 258236.480000
   4669   4670     1   0.14647 272713.120000
   4669   4673     1   0.14647 272713.120000
   4669   4676     1   0.14647 272713.120000
   4670   4682     1   0.15375 251793.120000
   4673   4685     1   0.15375 251793.120000
   4676   4679     1   0.15375 251793.120000
   4679   4688     1   0.15375 251793.120000
   4682   4694     1   0.15375 251793.120000
   4685   4691     1   0.15375 251793.120000
   4688   4697     1   0.14316 258236.480000
   4691   9424     1   0.14316 258236.480000
   4694   9453     1   0.14316 258236.480000
   4698   4699     1   0.14647 272713.120000
   4698   4702     1   0.14647 272713.120000
   4698   4705     1   0.14647 272713.120000
   4699   4711     1   0.15375 251793.120000
   4702   4714     1   0.15375 251793.120000
   4705   4708     1   0.15375 251793.120000
   4708   4717     1   0.15375 251793.120000
   4711   4723     1   0.15375 251793.120000
   4714   4720     1   0.15375 251793.120000
   4717   4726     1   0.14316 258236.480000
   4720   9482     1   0.14316 258236.480000
   4723   9511     1   0.14316 258236.480000
   4727   4728     1   0.14647 272713.120000
   4727   4731     1   0.14647 272713.120000
   4727   4734     1   0.14647 272713.120000
   4728   4740     1   0.15375 251793.120000
   4731   4743     1   0.15375 251793.120000
   4734   4737     1   0.15375 251793.120000
   4737   4746     1   0.15375 251793.120000
   4740   4752     1   0.15375 251793.120000
   4743   4749     1   0.15375 251793.120000
   4746   4755     1   0.14316 258236.480000
   4749   9540     1   0.14316 258236.480000
   4752   9569     1   0.14316 258236.480000
   4756   4757     1   0.14647 272713.120000
   4756   4760     1   0.14647 272713.120000
   4756   4763     1   0.14647 272713.120000
   4757   4769     1   0.15375 251793.120000
   4760   4772     1   0.15375 251793.120000
   4763   4766     1   0.15375 251793.120000
   4766   4775     1   0.15375 251793.120000
   4769   4781     1   0.15375 251793.120000
   4772   4778     1   0.15375 251793.120000
   4775   4784     1   0.14316 258236.480000
   4778   9598     1   0.14316 258236.480000
   4781   9627     1   0.14316 258236.480000
   4785   4786     1   0.14647 272713.120000
   4785   4789     1   0.14647 272713.120000
   4785   4792     1   0.14647 272713.120000
   4786   4798     1   0.15375 251793.120000
   4789   4801     1   0.15375 251793.120000
   4792   4795     1   0.15375 251793.120000
   4795   4804     1   0.15375 251793.120000
   4798   4810     1   0.15375 251793.120000
   4801   4807     1   0.15375 251793.120000
   4804   4813     1   0.14316 258236.480000
   4807   9656     1   0.14316 258236.480000
   4810   9685     1   0.14316 258236.480000
   4814   4815     1   0.14647 272713.120000
   4814   4818     1   0.14647 272713.120000
   4814   4821     1   0.14647 272713.120000
   4815   4827     1   0.15375 251793.120000
   4818   4830     1   0.15375 251793.120000
   4821   4824     1   0.15375 251793.120000
   4824   4833     1   0.15375 251793.120000
   4827   4839     1   0.15375 251793.120000
   4830   4836     1   0.15375 251793.120000
   4833   4842     1   0.14316 258236.480000
   4836   9714     1   0.14316 258236.480000
   4839   9743     1   0.14316 258236.480000
   4843   4844     1   0.14647 272713.120000
   4843   4847     1   0.14647 272713.120000
   4843   4850     1   0.14647 272713.120000
   4844   4856     1   0.15375 251793.120000
   4847   4859     1   0.15375 251793.120000
   4850   4853     1   0.15375 251793.120000
   4853   4862     1   0.15375 251793.120000
   4856   4868     1   0.15375 251793.120000
   4859   4865     1   0.15375 251793.120000
   4862   4871     1   0.14316 258236.480000
   4865   9772     1   0.14316 258236.480000
   4868   9801     1   0.14316 258236.480000
   4872   4873     1   0.14647 272713.120000
   4872   4876     1   0.14647 272713.120000
   4872   4879     1   0.14647 272713.120000
   4873   4885     1   0.15375 251793.120000
   4876   4888     1   0.15375 251793.120000
   4879   4882     1   0.15375 251793.120000
   4882   4891     1   0.15375 251793.120000
   4885   4897     1   0.15375 251793.120000
   4888   4894     1   0.15375 251793.120000
   4891   4900     1   0.14316 258236.480000
   4894   9830     1   0.14316 258236.480000
   4897   9859     1   0.14316 258236.480000
   4901   4902     1   0.14647 272713.120000
   4901   4905     1   0.14647 272713.120000
   4901   4908     1   0.14647 272713.120000
   4902   4914     1   0.15375 251793.120000
   4905   4917     1   0.15375 251793.120000
   4908   4911     1   0.15375 251793.120000
   4911   4920     1   0.15375 251793.120000
   4914   4926     1   0.15375 251793.120000
   4917   4923     1   0.15375 251793.120000
   4920   4929     1   0.14316 258236.480000
   4923   9888     1   0.14316 258236.480000
   4926   9917     1   0.14316 258236.480000
   4930   4931     1   0.14647 272713.120000
   4930   4934     1   0.14647 272713.120000
   4930   4937     1   0.14647 272713.120000
   4931   4943     1   0.15375 251793.120000
   4934   4946     1   0.15375 251793.120000
   4937   4940     1   0.15375 251793.120000
   4940   4949     1   0.15375 251793.120000
   4943   4955     1   0.15375 251793.120000
   4946   4952     1   0.15375 251793.120000
   4949   4958     1   0.14316 258236.480000
   4952   9946     1   0.14316 258236.480000
   4955   9975     1   0.14316 258236.480000
   4959   4960     1   0.14647 272713.120000
   4959   4963     1   0.14647 272713.120000
   4959   4966     1   0.14647 272713.120000
   4960   4972     1   0.15375 251793.120000
   4963   4975     1   0.15375 251793.120000
   4966   4969     1   0.15375 251793.120000
   4969   4978     1   0.15375 251793.120000
   4972   4984     1   0.15375 251793.120000
   4975   4981     1   0.15375 251793.120000
   4978   4987     1   0.14316 258236.480000
   4981  10004     1   0.14316 258236.480000
   4984  10033     1   0.14316 258236.480000
   4988   4989     1   0.14647 272713.120000
   4988   4992     1   0.14647 272713.120000
   4988   4995     1   0.14647 272713.120000
   4989   5001     1   0.15375 251793.120000
   4992   5004     1   0.15375 251793.120000
   4995   4998     1   0.15375 251793.120000
   4998   5007     1   0.15375 251793.120000
   5001   5013     1   0.15375 251793.120000
   5004   5010     1   0.15375 251793.120000
   5007   5016     1   0.14316 258236.480000
   5010  10062     1   0.14316 258236.480000
   5013  10091     1   0.14316 258236.480000
   5017   5018     1   0.14647 272713.120000
   5017   5021     1   0.14647 272713.120000
   5017   5024     1   0.14647 272713.120000
   5018   5030     1   0.15375 251793.120000
   5021   5033     1   0.15375 251793.120000
   5024   5027     1   0.15375 251793.120000
   5027   5036     1   0.15375 251793.120000
   5030   5042     1   0.15375 251793.120000
   5033   5039     1   0.15375 251793.120000
   5036   5045     1   0.14316 258236.480000
   5039  10120     1   0.14316 258236.480000
   5042  10149     1   0.14316 258236.480000
   5046   5047     1   0.14647 272713.120000
   5046   5050     1   0.14647 272713.120000
   5046   5053     1   0.14647 272713.120000
   5047   5059     1   0.15375 251793.120000
   5050   5062     1   0.15375 251793.120000
   5053   5056     1   0.15375 251793.120000
   5056   5065     1   0.15375 251793.120000
   5059   5071     1   0.15375 251793.120000
   5062   5068     1   0.15375 251793.120000
   5065   5074     1   0.14316 258236.480000
   5068  10178     1   0.14316 258236.480000
   5071  10207     1   0.14316 258236.480000
   5075   5076     1   0.14647 272713.120000
   5075   5079     1   0.14647 272713.120000
   5075   5082     1   0.14647 272713.120000
   5076   5088     1   0.15375 251793.120000
   5079   5091     1   0.15375 251793.120000
   5082   5085     1   0.15375 251793.120000
   5085   5094     1   0.15375 251793.120000
   5088   5100     1   0.15375 251793.120000
   5091   5097     1   0.15375 251793.120000
   5094   5103     1   0.14316 258236.480000
   5097  10236     1   0.14316 258236.480000
   5100  10265     1   0.14316 258236.480000
   5104   5105     1   0.14647 272713.120000
   5104   5108     1   0.14647 272713.120000
   5104   5111     1   0.14647 272713.120000
   5105   5117     1   0.15375 251793.120000
   5108   5120     1   0.15375 251793.120000
   5111   5114     1   0.15375 251793.120000
   5114   5123     1   0.15375 251793.120000
   5117   5129     1   0.15375 251793.120000
   5120   5126     1   0.15375 251793.120000
   5123   5132     1   0.14316 258236.480000
   5126  10294     1   0.14316 258236.480000
   5129  10323     1   0.14316 258236.480000
   5133   5134     1   0.14647 272713.120000
   5133   5137     1   0.14647 272713.120000
   5133   5140     1   0.14647 272713.120000
   5134   5146     1   0.15375 251793.120000
   5137   5149     1   0.15375 251793.120000
   5140   5143     1   0.15375 251793.120000
   5143   5152     1   0.15375 251793.120000
   5146   5158     1   0.15375 251793.120000
   5149   5155     1   0.15375 251793.120000
   5152   5161     1   0.14316 258236.480000
   5155  10352     1   0.14316 258236.480000
   5158  10381     1   0.14316 258236.480000
   5162   5163     1   0.14647 272713.120000
   5162   5166     1   0.14647 272713.120000
   5162   5169     1   0.14647 272713.120000
   5163   5175     1   0.15375 251793.120000
   5166   5178     1   0.15375 251793.120000
   5169   5172     1   0.15375 251793.120000
   5172   5181     1   0.15375 251793.120000
   5175   5187     1   0.15375 251793.120000
   5178   5184     1   0.15375 251793.120000
   5181   5190     1   0.14316 258236.480000
   5184  10410     1   0.14316 258236.480000
   5187  10439     1   0.14316 258236.480000
   5191   5192     1   0.14647 272713.120000
   5191   5195     1   0.14647 272713.120000
   5191   5198     1   0.14647 272713.120000
   5192   5204     1   0.15375 251793.120000
   5195   5207     1   0.15375 251793.120000
   5198   5201     1   0.15375 251793.120000
   5201   5210     1   0.15375 251793.120000
   5204   5216     1   0.15375 251793.120000
   5207   5213     1   0.15375 251793.120000
   5210   5219     1   0.14316 258236.480000
   5213  10468     1   0.14316 258236.480000
   5216  10497     1   0.14316 258236.480000
   5220   5221     1   0.14647 272713.120000
   5220   5224     1   0.14647 272713.120000
   5220   5227     1   0.14647 272713.120000
   5221   5233     1   0.15375 251793.120000
   5224   5236     1   0.15375 251793.120000
   5227   5230     1   0.15375 251793.120000
   5230   5239     1   0.15375 251793.120000
   5233   5245     1   0.15375 251793.120000
   5236   5242     1   0.15375 251793.120000
   5239   5248     1   0.14316 258236.480000
   5242  10526     1   0.14316 258236.480000
   5245  10555     1   0.14316 258236.480000
   5249   5250     1   0.14647 272713.120000
   5249   5253     1   0.14647 272713.120000
   5249   5256     1   0.14647 272713.120000
   5250   5262     1   0.15375 251793.120000
   5253   5265     1   0.15375 251793.120000
   5256   5259     1   0.15375 251793.120000
   5259   5268     1   0.15375 251793.120000
   5262   5274     1   0.15375 251793.120000
   5265   5271     1   0.15375 251793.120000
   5268   5277     1   0.14316 258236.480000
   5271  10584     1   0.14316 258236.480000
   5274  10613     1   0.14316 258236.480000
   5278   5279     1   0.14647 272713.120000
   5278   5282     1   0.14647 272713.120000
   5278   5285     1   0.14647 272713.120000
   5279   5291     1   0.15375 251793.120000
   5282   5294     1   0.15375 251793.120000
   5285   5288     1   0.15375 251793.120000
   5288   5297     1   0.15375 251793.120000
   5291   5303     1   0.15375 251793.120000
   5294   5300     1   0.15375 251793.120000
   5297   5306     1   0.14316 258236.480000
   5300  10642     1   0.14316 258236.480000
   5303  10671     1   0.14316 258236.480000
   5307   5308     1   0.14647 272713.120000
   5307   5311     1   0.14647 272713.120000
   5307   5314     1   0.14647 272713.120000
   5308   5320     1   0.15375 251793.120000
   5311   5323     1   0.15375 251793.120000
   5314   5317     1   0.15375 251793.120000
   5317   5326     1   0.15375 251793.120000
   5320   5332     1   0.15375 251793.120000
   5323   5329     1   0.15375 251793.120000
   5326   5335     1   0.14316 258236.480000
   5329  10700     1   0.14316 258236.480000
   5332  10729     1   0.14316 258236.480000
   5336   5337     1   0.14647 272713.120000
   5336   5340     1   0.14647 272713.120000
   5336   5343     1   0.14647 272713.120000
   5337   5349     1   0.15375 251793.120000
   5340   5352     1   0.15375 251793.120000
   5343   5346     1   0.15375 251793.120000
   5346   5355     1   0.15375 251793.120000
   5349   5361     1   0.15375 251793.120000
   5352   5358     1   0.15375 251793.120000
   5355   5364     1   0.14316 258236.480000
   5358  10758     1   0.14316 258236.480000
   5361  10787     1   0.14316 258236.480000
   5365   5366     1   0.14647 272713.120000
   5365   5369     1   0.14647 272713.120000
   5365   5372     1   0.14647 272713.120000
   5366   5378     1   0.15375 251793.120000
   5369   5381     1   0.15375 251793.120000
   5372   5375     1   0.15375 251793.120000
   5375   5384     1   0.15375 251793.120000
   5378   5390     1   0.15375 251793.120000
   5381   5387     1   0.15375 251793.120000
   5384   5393     1   0.14316 258236.480000
   5387  10816     1   0.14316 258236.480000
   5390  10845     1   0.14316 258236.480000
   5394   5395     1   0.14647 272713.120000
   5394   5398     1   0.14647 272713.120000
   5394   5401     1   0.14647 272713.120000
   5395   5407     1   0.15375 251793.120000
   5398   5410     1   0.15375 251793.120000
   5401   5404     1   0.15375 251793.120000
   5404   5413     1   0.15375 251793.120000
   5407   5419     1   0.15375 251793.120000
   5410   5416     1   0.15375 251793.120000
   5413   5422     1   0.14316 258236.480000
   5416  10874     1   0.14316 258236.480000
   5419  10903     1   0.14316 258236.480000
   5423   5424     1   0.14647 272713.120000
   5423   5427     1   0.14647 272713.120000
   5423   5430     1   0.14647 272713.120000
   5424   5436     1   0.15375 251793.120000
   5427   5439     1   0.15375 251793.120000
   5430   5433     1   0.15375 251793.120000
   5433   5442     1   0.15375 251793.120000
   5436   5448     1   0.15375 251793.120000
   5439   5445     1   0.15375 251793.120000
   5442   5451     1   0.14316 258236.480000
   5445  10932     1   0.14316 258236.480000
   5448  10961     1   0.14316 258236.480000
   5452   5453     1   0.14647 272713.120000
   5452   5456     1   0.14647 272713.120000
   5452   5459     1   0.14647 272713.120000
   5453   5465     1   0.15375 251793.120000
   5456   5468     1   0.15375 251793.120000
   5459   5462     1   0.15375 251793.120000
   5462   5471     1   0.15375 251793.120000
   5465   5477     1   0.15375 251793.120000
   5468   5474     1   0.15375 251793.120000
   5471   5480     1   0.14316 258236.480000
   5474  10990     1   0.14316 258236.480000
   5477  11019     1   0.14316 258236.480000
   5481   5482     1   0.14647 272713.120000
   5481   5485     1   0.14647 272713.120000
   5481   5488     1   0.14647 272713.120000
   5482   5494     1   0.15375 251793.120000
   5485   5497     1   0.15375 251793.120000
   5488   5491     1   0.15375 251793.120000
   5491   5500     1   0.15375 251793.120000
   5494   5506     1   0.15375 251793.120000
   5497   5503     1   0.15375 251793.120000
   5500   5509     1   0.14316 258236.480000
   5503  11048     1   0.14316 258236.480000
   5506  11077     1   0.14316 258236.480000
   5510   5513     1   0.15375 251793.120000
   5510   5538     1   0.14316 258236.480000
   5513   5516     1   0.15375 251793.120000
   5516   5519     1   0.14647 272713.120000
   5519   5520     1   0.14647 272713.120000
   5519   5529     1   0.14647 272713.120000
   5520   5523     1   0.15375 251793.120000
   5523   5526     1   0.15241 261918.400000
   5526   5527     1   0.12183 533627.360000
   5526   5528     1   0.12183 533627.360000
   5529   5532     1   0.15375 251793.120000
   5532   5535     1   0.15241 261918.400000
   5535   5536     1   0.12183 533627.360000
   5535   5537     1   0.12183 533627.360000
   5539   5542     1   0.15375 251793.120000
   5539   5567     1   0.14316 258236.480000
   5542   5545     1   0.15375 251793.120000
   5545   5548     1   0.14647 272713.120000
   5548   5549     1   0.14647 272713.120000
   5548   5558     1   0.14647 272713.120000
   5549   5552     1   0.15375 251793.120000
   5552   5555     1   0.15241 261918.400000
   5555   5556     1   0.12183 533627.360000
   5555   5557     1   0.12183 533627.360000
   5558   5561     1   0.15375 251793.120000
   5561   5564     1   0.15241 261918.400000
   5564   5565     1   0.12183 533627.360000
   5564   5566     1   0.12183 533627.360000
   5568   5571     1   0.15375 251793.120000
   5568   5596     1   0.14316 258236.480000
   5571   5574     1   0.15375 251793.120000
   5574   5577     1   0.14647 272713.120000
   5577   5578     1   0.14647 272713.120000
   5577   5587     1   0.14647 272713.120000
   5578   5581     1   0.15375 251793.120000
   5581   5584     1   0.15241 261918.400000
   5584   5585     1   0.12183 533627.360000
   5584   5586     1   0.12183 533627.360000
   5587   5590     1   0.15375 251793.120000
   5590   5593     1   0.15241 261918.400000
   5593   5594     1   0.12183 533627.360000
   5593   5595     1   0.12183 533627.360000
   5597   5600     1   0.15375 251793.120000
   5597   5625     1   0.14316 258236.480000
   5600   5603     1   0.15375 251793.120000
   5603   5606     1   0.14647 272713.120000
   5606   5607     1   0.14647 272713.120000
   5606   5616     1   0.14647 272713.120000
   5607   5610     1   0.15375 251793.120000
   5610   5613     1   0.15241 261918.400000
   5613   5614     1   0.12183 533627.360000
   5613   5615     1   0.12183 533627.360000
   5616   5619     1   0.15375 251793.120000
   5619   5622     1   0.15241 261918.400000
   5622   5623     1   0.12183 533627.360000
   5622   5624     1   0.12183 533627.360000
   5626   5629     1   0.15375 251793.120000
   5626   5654     1   0.14316 258236.480000
   5629   5632     1   0.15375 251793.120000
   5632   5635     1   0.14647 272713.120000
   5635   5636     1   0.14647 272713.120000
   5635   5645     1   0.14647 272713.120000
   5636   5639     1   0.15375 251793.120000
   5639   5642     1   0.15241 261918.400000
   5642   5643     1   0.12183 533627.360000
   5642   5644     1   0.12183 533627.360000
   5645   5648     1   0.15375 251793.120000
   5648   5651     1   0.15241 261918.400000
   5651   5652     1   0.12183 533627.360000
   5651   5653     1   0.12183 533627.360000
   5655   5658     1   0.15375 251793.120000
   5655   5683     1   0.14316 258236.480000
   5658   5661     1   0.15375 251793.120000
   5661   5664     1   0.14647 272713.120000
   5664   5665     1   0.14647 272713.120000
   5664   5674     1   0.14647 272713.120000
   5665   5668     1   0.15375 251793.120000
   5668   5671     1   0.15241 261918.400000
   5671   5672     1   0.12183 533627.360000
   5671   5673     1   0.12183 533627.360000
   5674   5677     1   0.15375 251793.120000
   5677   5680     1   0.15241 261918.400000
   5680   5681     1   0.12183 533627.360000
   5680   5682     1   0.12183 533627.360000
   5684   5687     1   0.15375 251793.120000
   5684   5712     1   0.14316 258236.480000
   5687   5690     1   0.15375 251793.120000
   5690   5693     1   0.14647 272713.120000
   5693   5694     1   0.14647 272713.120000
   5693   5703     1   0.14647 272713.120000
   5694   5697     1   0.15375 251793.120000
   5697   5700     1   0.15241 261918.400000
   5700   5701     1   0.12183 533627.360000
   5700   5702     1   0.12183 533627.360000
   5703   5706     1   0.15375 251793.120000
   5706   5709     1   0.15241 261918.400000
   5709   5710     1   0.12183 533627.360000
   5709   5711     1   0.12183 533627.360000
   5713   5716     1   0.15375 251793.120000
   5713   5741     1   0.14316 258236.480000
   5716   5719     1   0.15375 251793.120000
   5719   5722     1   0.14647 272713.120000
   5722   5723     1   0.14647 272713.120000
   5722   5732     1   0.14647 272713.120000
   5723   5726     1   0.15375 251793.120000
   5726   5729     1   0.15241 261918.400000
   5729   5730     1   0.12183 533627.360000
   5729   5731     1   0.12183 533627.360000
   5732   5735     1   0.15375 251793.120000
   5735   5738     1   0.15241 261918.400000
   5738   5739     1   0.12183 533627.360000
   5738   5740     1   0.12183 533627.360000
   5742   5745     1   0.15375 251793.120000
   5742   5770     1   0.14316 258236.480000
   5745   5748     1   0.15375 251793.120000
   5748   5751     1   0.14647 272713.120000
   5751   5752     1   0.14647 272713.120000
   5751   5761     1   0.14647 272713.120000
   5752   5755     1   0.15375 251793.120000
   5755   5758     1   0.15241 261918.400000
   5758   5759     1   0.12183 533627.360000
   5758   5760     1   0.12183 533627.360000
   5761   5764     1   0.15375 251793.120000
   5764   5767     1   0.15241 261918.400000
   5767   5768     1   0.12183 533627.360000
   5767   5769     1   0.12183 533627.360000
   5771   5774     1   0.15375 251793.120000
   5771   5799     1   0.14316 258236.480000
   5774   5777     1   0.15375 251793.120000
   5777   5780     1   0.14647 272713.120000
   5780   5781     1   0.14647 272713.120000
   5780   5790     1   0.14647 272713.120000
   5781   5784     1   0.15375 251793.120000
   5784   5787     1   0.15241 261918.400000
   5787   5788     1   0.12183 533627.360000
   5787   5789     1   0.12183 533627.360000
   5790   5793     1   0.15375 251793.120000
   5793   5796     1   0.15241 261918.400000
   5796   5797     1   0.12183 533627.360000
   5796   5798     1   0.12183 533627.360000
   5800   5803     1   0.15375 251793.120000
   5800   5828     1   0.14316 258236.480000
   5803   5806     1   0.15375 251793.120000
   5806   5809     1   0.14647 272713.120000
   5809   5810     1   0.14647 272713.120000
   5809   5819     1   0.14647 272713.120000
   5810   5813     1   0.15375 251793.120000
   5813   5816     1   0.15241 261918.400000
   5816   5817     1   0.12183 533627.360000
   5816   5818     1   0.12183 533627.360000
   5819   5822     1   0.15375 251793.120000
   5822   5825     1   0.15241 261918.400000
   5825   5826     1   0.12183 533627.360000
   5825   5827     1   0.12183 533627.360000
   5829   5832     1   0.15375 251793.120000
   5829   5857     1   0.14316 258236.480000
   5832   5835     1   0.15375 251793.120000
   5835   5838     1   0.14647 272713.120000
   5838   5839     1   0.14647 272713.120000
   5838   5848     1   0.14647 272713.120000
   5839   5842     1   0.15375 251793.120000
   5842   5845     1   0.15241 261918.400000
   5845   5846     1   0.12183 533627.360000
   5845   5847     1   0.12183 533627.360000
   5848   5851     1   0.15375 251793.120000
   5851   5854     1   0.15241 261918.400000
   5854   5855     1   0.12183 533627.360000
   5854   5856     1   0.12183 533627.360000
   5858   5861     1   0.15375 251793.120000
   5858   5886     1   0.14316 258236.480000
   5861   5864     1   0.15375 251793.120000
   5864   5867     1   0.14647 272713.120000
   5867   5868     1   0.14647 272713.120000
   5867   5877     1   0.14647 272713.120000
   5868   5871     1   0.15375 251793.120000
   5871   5874     1   0.15241 261918.400000
   5874   5875     1   0.12183 533627.360000
   5874   5876     1   0.12183 533627.360000
   5877   5880     1   0.15375 251793.120000
   5880   5883     1   0.15241 261918.400000
   5883   5884     1   0.12183 533627.360000
   5883   5885     1   0.12183 533627.360000
   5887   5890     1   0.15375 251793.120000
   5887   5915     1   0.14316 258236.480000
   5890   5893     1   0.15375 251793.120000
   5893   5896     1   0.14647 272713.120000
   5896   5897     1   0.14647 272713.120000
   5896   5906     1   0.14647 272713.120000
   5897   5900     1   0.15375 251793.120000
   5900   5903     1   0.15241 261918.400000
   5903   5904     1   0.12183 533627.360000
   5903   5905     1   0.12183 533627.360000
   5906   5909     1   0.15375 251793.120000
   5909   5912     1   0.15241 261918.400000
   5912   5913     1   0.12183 533627.360000
   5912   5914     1   0.12183 533627.360000
   5916   5919     1   0.15375 251793.120000
   5916   5944     1   0.14316 258236.480000
   5919   5922     1   0.15375 251793.120000
   5922   5925     1   0.14647 272713.120000
   5925   5926     1   0.14647 272713.120000
   5925   5935     1   0.14647 272713.120000
   5926   5929     1   0.15375 251793.120000
   5929   5932     1   0.15241 261918.400000
   5932   5933     1   0.12183 533627.360000
   5932   5934     1   0.12183 533627.360000
   5935   5938     1   0.15375 251793.120000
   5938   5941     1   0.15241 261918.400000
   5941   5942     1   0.12183 533627.360000
   5941   5943     1   0.12183 533627.360000
   5945   5948     1   0.15375 251793.120000
   5945   5973     1   0.14316 258236.480000
   5948   5951     1   0.15375 251793.120000
   5951   5954     1   0.14647 272713.120000
   5954   5955     1   0.14647 272713.120000
   5954   5964     1   0.14647 272713.120000
   5955   5958     1   0.15375 251793.120000
   5958   5961     1   0.15241 261918.400000
   5961   5962     1   0.12183 533627.360000
   5961   5963     1   0.12183 533627.360000
   5964   5967     1   0.15375 251793.120000
   5967   5970     1   0.15241 261918.400000
   5970   5971     1   0.12183 533627.360000
   5970   5972     1   0.12183 533627.360000
   5974   5977     1   0.15375 251793.120000
   5974   6002     1   0.14316 258236.480000
   5977   5980     1   0.15375 251793.120000
   5980   5983     1   0.14647 272713.120000
   5983   5984     1   0.14647 272713.120000
   5983   5993     1   0.14647 272713.120000
   5984   5987     1   0.15375 251793.120000
   5987   5990     1   0.15241 261918.400000
   5990   5991     1   0.12183 533627.360000
   5990   5992     1   0.12183 533627.360000
   5993   5996     1   0.15375 251793.120000
   5996   5999     1   0.15241 261918.400000
   5999   6000     1   0.12183 533627.360000
   5999   6001     1   0.12183 533627.360000
   6003   6006     1   0.15375 251793.120000
   6003   6031     1   0.14316 258236.480000
   6006   6009     1   0.15375 251793.120000
   6009   6012     1   0.14647 272713.120000
   6012   6013     1   0.14647 272713.120000
   6012   6022     1   0.14647 272713.120000
   6013   6016     1   0.15375 251793.120000
   6016   6019     1   0.15241 261918.400000
   6019   6020     1   0.12183 533627.360000
   6019   6021     1   0.12183 533627.360000
   6022   6025     1   0.15375 251793.120000
   6025   6028     1   0.15241 261918.400000
   6028   6029     1   0.12183 533627.360000
   6028   6030     1   0.12183 533627.360000
   6032   6035     1   0.15375 251793.120000
   6032   6060     1   0.14316 258236.480000
   6035   6038     1   0.15375 251793.120000
   6038   6041     1   0.14647 272713.120000
   6041   6042     1   0.14647 272713.120000
   6041   6051     1   0.14647 272713.120000
   6042   6045     1   0.15375 251793.120000
   6045   6048     1   0.15241 261918.400000
   6048   6049     1   0.12183 533627.360000
   6048   6050     1   0.12183 533627.360000
   6051   6054     1   0.15375 251793.120000
   6054   6057     1   0.15241 261918.400000
   6057   6058     1   0.12183 533627.360000
   6057   6059     1   0.12183 533627.360000
   6061   6064     1   0.15375 251793.120000
   6061   6089     1   0.14316 258236.480000
   6064   6067     1   0.15375 251793.120000
   6067   6070     1   0.14647 272713.120000
   6070   6071     1   0.14647 272713.120000
   6070   6080     1   0.14647 272713.120000
   6071   6074     1   0.15375 251793.120000
   6074   6077     1   0.15241 261918.400000
   6077   6078     1   0.12183 533627.360000
   6077   6079     1   0.12183 533627.360000
   6080   6083     1   0.15375 251793.120000
   6083   6086     1   0.15241 261918.400000
   6086   6087     1   0.12183 533627.360000
   6086   6088     1   0.12183 533627.360000
   6090   6093     1   0.15375 251793.120000
   6090   6118     1   0.14316 258236.480000
   6093   6096     1   0.15375 251793.120000
   6096   6099     1   0.14647 272713.120000
   6099   6100     1   0.14647 272713.120000
   6099   6109     1   0.14647 272713.120000
   6100   6103     1   0.15375 251793.120000
   6103   6106     1   0.15241 261918.400000
   6106   6107     1   0.12183 533627.360000
   6106   6108     1   0.12183 533627.360000
   6109   6112     1   0.15375 251793.120000
   6112   6115     1   0.15241 261918.400000
   6115   6116     1   0.12183 533627.360000
   6115   6117     1   0.12183 533627.360000
   6119   6122     1   0.15375 251793.120000
   6119   6147     1   0.14316 258236.480000
   6122   6125     1   0.15375 251793.120000
   6125   6128     1   0.14647 272713.120000
   6128   6129     1   0.14647 272713.120000
   6128   6138     1   0.14647 272713.120000
   6129   6132     1   0.15375 251793.120000
   6132   6135     1   0.15241 261918.400000
   6135   6136     1   0.12183 533627.360000
   6135   6137     1   0.12183 533627.360000
   6138   6141     1   0.15375 251793.120000
   6141   6144     1   0.15241 261918.400000
   6144   6145     1   0.12183 533627.360000
   6144   6146     1   0.12183 533627.360000
   6148   6151     1   0.15375 251793.120000
   6148   6176     1   0.14316 258236.480000
   6151   6154     1   0.15375 251793.120000
   6154   6157     1   0.14647 272713.120000
   6157   6158     1   0.14647 272713.120000
   6157   6167     1   0.14647 272713.120000
   6158   6161     1   0.15375 251793.120000
   6161   6164     1   0.15241 261918.400000
   6164   6165     1   0.12183 533627.360000
   6164   6166     1   0.12183 533627.360000
   6167   6170     1   0.15375 251793.120000
   6170   6173     1   0.15241 261918.400000
   6173   6174     1   0.12183 533627.360000
   6173   6175     1   0.12183 533627.360000
   6177   6180     1   0.15375 251793.120000
   6177   6205     1   0.14316 258236.480000
   6180   6183     1   0.15375 251793.120000
   6183   6186     1   0.14647 272713.120000
   6186   6187     1   0.14647 272713.120000
   6186   6196     1   0.14647 272713.120000
   6187   6190     1   0.15375 251793.120000
   6190   6193     1   0.15241 261918.400000
   6193   6194     1   0.12183 533627.360000
   6193   6195     1   0.12183 533627.360000
   6196   6199     1   0.15375 251793.120000
   6199   6202     1   0.15241 261918.400000
   6202   6203     1   0.12183 533627.360000
   6202   6204     1   0.12183 533627.360000
   6206   6209     1   0.15375 251793.120000
   6206   6234     1   0.14316 258236.480000
   6209   6212     1   0.15375 251793.120000
   6212   6215     1   0.14647 272713.120000
   6215   6216     1   0.14647 272713.120000
   6215   6225     1   0.14647 272713.120000
   6216   6219     1   0.15375 251793.120000
   6219   6222     1   0.15241 261918.400000
   6222   6223     1   0.12183 533627.360000
   6222   6224     1   0.12183 533627.360000
   6225   6228     1   0.15375 251793.120000
   6228   6231     1   0.15241 261918.400000
   6231   6232     1   0.12183 533627.360000
   6231   6233     1   0.12183 533627.360000
   6235   6238     1   0.15375 251793.120000
   6235   6263     1   0.14316 258236.480000
   6238   6241     1   0.15375 251793.120000
   6241   6244     1   0.14647 272713.120000
   6244   6245     1   0.14647 272713.120000
   6244   6254     1   0.14647 272713.120000
   6245   6248     1   0.15375 251793.120000
   6248   6251     1   0.15241 261918.400000
   6251   6252     1   0.12183 533627.360000
   6251   6253     1   0.12183 533627.360000
   6254   6257     1   0.15375 251793.120000
   6257   6260     1   0.15241 261918.400000
   6260   6261     1   0.12183 533627.360000
   6260   6262     1   0.12183 533627.360000
   6264   6267     1   0.15375 251793.120000
   6264   6292     1   0.14316 258236.480000
   6267   6270     1   0.15375 251793.120000
   6270   6273     1   0.14647 272713.120000
   6273   6274     1   0.14647 272713.120000
   6273   6283     1   0.14647 272713.120000
   6274   6277     1   0.15375 251793.120000
   6277   6280     1   0.15241 261918.400000
   6280   6281     1   0.12183 533627.360000
   6280   6282     1   0.12183 533627.360000
   6283   6286     1   0.15375 251793.120000
   6286   6289     1   0.15241 261918.400000
   6289   6290     1   0.12183 533627.360000
   6289   6291     1   0.12183 533627.360000
   6293   6296     1   0.15375 251793.120000
   6293   6321     1   0.14316 258236.480000
   6296   6299     1   0.15375 251793.120000
   6299   6302     1   0.14647 272713.120000
   6302   6303     1   0.14647 272713.120000
   6302   6312     1   0.14647 272713.120000
   6303   6306     1   0.15375 251793.120000
   6306   6309     1   0.15241 261918.400000
   6309   6310     1   0.12183 533627.360000
   6309   6311     1   0.12183 533627.360000
   6312   6315     1   0.15375 251793.120000
   6315   6318     1   0.15241 261918.400000
   6318   6319     1   0.12183 533627.360000
   6318   6320     1   0.12183 533627.360000
   6322   6325     1   0.15375 251793.120000
   6322   6350     1   0.14316 258236.480000
   6325   6328     1   0.15375 251793.120000
   6328   6331     1   0.14647 272713.120000
   6331   6332     1   0.14647 272713.120000
   6331   6341     1   0.14647 272713.120000
   6332   6335     1   0.15375 251793.120000
   6335   6338     1   0.15241 261918.400000
   6338   6339     1   0.12183 533627.360000
   6338   6340     1   0.12183 533627.360000
   6341   6344     1   0.15375 251793.120000
   6344   6347     1   0.15241 261918.400000
   6347   6348     1   0.12183 533627.360000
   6347   6349     1   0.12183 533627.360000
   6351   6354     1   0.15375 251793.120000
   6351   6379     1   0.14316 258236.480000
   6354   6357     1   0.15375 251793.120000
   6357   6360     1   0.14647 272713.120000
   6360   6361     1   0.14647 272713.120000
   6360   6370     1   0.14647 272713.120000
   6361   6364     1   0.15375 251793.120000
   6364   6367     1   0.15241 261918.400000
   6367   6368     1   0.12183 533627.360000
   6367   6369     1   0.12183 533627.360000
   6370   6373     1   0.15375 251793.120000
   6373   6376     1   0.15241 261918.400000
   6376   6377     1   0.12183 533627.360000
   6376   6378     1   0.12183 533627.360000
   6380   6383     1   0.15375 251793.120000
   6380   6408     1   0.14316 258236.480000
   6383   6386     1   0.15375 251793.120000
   6386   6389     1   0.14647 272713.120000
   6389   6390     1   0.14647 272713.120000
   6389   6399     1   0.14647 272713.120000
   6390   6393     1   0.15375 251793.120000
   6393   6396     1   0.15241 261918.400000
   6396   6397     1   0.12183 533627.360000
   6396   6398     1   0.12183 533627.360000
   6399   6402     1   0.15375 251793.120000
   6402   6405     1   0.15241 261918.400000
   6405   6406     1   0.12183 533627.360000
   6405   6407     1   0.12183 533627.360000
   6409   6412     1   0.15375 251793.120000
   6409   6437     1   0.14316 258236.480000
   6412   6415     1   0.15375 251793.120000
   6415   6418     1   0.14647 272713.120000
   6418   6419     1   0.14647 272713.120000
   6418   6428     1   0.14647 272713.120000
   6419   6422     1   0.15375 251793.120000
   6422   6425     1   0.15241 261918.400000
   6425   6426     1   0.12183 533627.360000
   6425   6427     1   0.12183 533627.360000
   6428   6431     1   0.15375 251793.120000
   6431   6434     1   0.15241 261918.400000
   6434   6435     1   0.12183 533627.360000
   6434   6436     1   0.12183 533627.360000
   6438   6441     1   0.15375 251793.120000
   6438   6466     1   0.14316 258236.480000
   6441   6444     1   0.15375 251793.120000
   6444   6447     1   0.14647 272713.120000
   6447   6448     1   0.14647 272713.120000
   6447   6457     1   0.14647 272713.120000
   6448   6451     1   0.15375 251793.120000
   6451   6454     1   0.15241 261918.400000
   6454   6455     1   0.12183 533627.360000
   6454   6456     1   0.12183 533627.360000
   6457   6460     1   0.15375 251793.120000
   6460   6463     1   0.15241 261918.400000
   6463   6464     1   0.12183 533627.360000
   6463   6465     1   0.12183 533627.360000
   6467   6470     1   0.15375 251793.120000
   6467   6495     1   0.14316 258236.480000
   6470   6473     1   0.15375 251793.120000
   6473   6476     1   0.14647 272713.120000
   6476   6477     1   0.14647 272713.120000
   6476   6486     1   0.14647 272713.120000
   6477   6480     1   0.15375 251793.120000
   6480   6483     1   0.15241 261918.400000
   6483   6484     1   0.12183 533627.360000
   6483   6485     1   0.12183 533627.360000
   6486   6489     1   0.15375 251793.120000
   6489   6492     1   0.15241 261918.400000
   6492   6493     1   0.12183 533627.360000
   6492   6494     1   0.12183 533627.360000
   6496   6499     1   0.15375 251793.120000
   6496   6524     1   0.14316 258236.480000
   6499   6502     1   0.15375 251793.120000
   6502   6505     1   0.14647 272713.120000
   6505   6506     1   0.14647 272713.120000
   6505   6515     1   0.14647 272713.120000
   6506   6509     1   0.15375 251793.120000
   6509   6512     1   0.15241 261918.400000
   6512   6513     1   0.12183 533627.360000
   6512   6514     1   0.12183 533627.360000
   6515   6518     1   0.15375 251793.120000
   6518   6521     1   0.15241 261918.400000
   6521   6522     1   0.12183 533627.360000
   6521   6523     1   0.12183 533627.360000
   6525   6528     1   0.15375 251793.120000
   6525   6553     1   0.14316 258236.480000
   6528   6531     1   0.15375 251793.120000
   6531   6534     1   0.14647 272713.120000
   6534   6535     1   0.14647 272713.120000
   6534   6544     1   0.14647 272713.120000
   6535   6538     1   0.15375 251793.120000
   6538   6541     1   0.15241 261918.400000
   6541   6542     1   0.12183 533627.360000
   6541   6543     1   0.12183 533627.360000
   6544   6547     1   0.15375 251793.120000
   6547   6550     1   0.15241 261918.400000
   6550   6551     1   0.12183 533627.360000
   6550   6552     1   0.12183 533627.360000
   6554   6557     1   0.15375 251793.120000
   6554   6582     1   0.14316 258236.480000
   6557   6560     1   0.15375 251793.120000
   6560   6563     1   0.14647 272713.120000
   6563   6564     1   0.14647 272713.120000
   6563   6573     1   0.14647 272713.120000
   6564   6567     1   0.15375 251793.120000
   6567   6570     1   0.15241 261918.400000
   6570   6571     1   0.12183 533627.360000
   6570   6572     1   0.12183 533627.360000
   6573   6576     1   0.15375 251793.120000
   6576   6579     1   0.15241 261918.400000
   6579   6580     1   0.12183 533627.360000
   6579   6581     1   0.12183 533627.360000
   6583   6586     1   0.15375 251793.120000
   6583   6611     1   0.14316 258236.480000
   6586   6589     1   0.15375 251793.120000
   6589   6592     1   0.14647 272713.120000
   6592   6593     1   0.14647 272713.120000
   6592   6602     1   0.14647 272713.120000
   6593   6596     1   0.15375 251793.120000
   6596   6599     1   0.15241 261918.400000
   6599   6600     1   0.12183 533627.360000
   6599   6601     1   0.12183 533627.360000
   6602   6605     1   0.15375 251793.120000
   6605   6608     1   0.15241 261918.400000
   6608   6609     1   0.12183 533627.360000
   6608   6610     1   0.12183 533627.360000
   6612   6615     1   0.15375 251793.120000
   6612   6640     1   0.14316 258236.480000
   6615   6618     1   0.15375 251793.120000
   6618   6621     1   0.14647 272713.120000
   6621   6622     1   0.14647 272713.120000
   6621   6631     1   0.14647 272713.120000
   6622   6625     1   0.15375 251793.120000
   6625   6628     1   0.15241 261918.400000
   6628   6629     1   0.12183 533627.360000
   6628   6630     1   0.12183 533627.360000
   6631   6634     1   0.15375 251793.120000
   6634   6637     1   0.15241 261918.400000
   6637   6638     1   0.12183 533627.360000
   6637   6639     1   0.12183 533627.360000
   6641   6644     1   0.15375 251793.120000
   6641   6669     1   0.14316 258236.480000
   6644   6647     1   0.15375 251793.120000
   6647   6650     1   0.14647 272713.120000
   6650   6651     1   0.14647 272713.120000
   6650   6660     1   0.14647 272713.120000
   6651   6654     1   0.15375 251793.120000
   6654   6657     1   0.15241 261918.400000
   6657   6658     1   0.12183 533627.360000
   6657   6659     1   0.12183 533627.360000
   6660   6663     1   0.15375 251793.120000
   6663   6666     1   0.15241 261918.400000
   6666   6667     1   0.12183 533627.360000
   6666   6668     1   0.12183 533627.360000
   6670   6673     1   0.15375 251793.120000
   6670   6698     1   0.14316 258236.480000
   6673   6676     1   0.15375 251793.120000
   6676   6679     1   0.14647 272713.120000
   6679   6680     1   0.14647 272713.120000
   6679   6689     1   0.14647 272713.120000
   6680   6683     1   0.15375 251793.120000
   6683   6686     1   0.15241 261918.400000
   6686   6687     1   0.12183 533627.360000
   6686   6688     1   0.12183 533627.360000
   6689   6692     1   0.15375 251793.120000
   6692   6695     1   0.15241 261918.400000
   6695   6696     1   0.12183 533627.360000
   6695   6697     1   0.12183 533627.360000
   6699   6702     1   0.15375 251793.120000
   6699   6727     1   0.14316 258236.480000
   6702   6705     1   0.15375 251793.120000
   6705   6708     1   0.14647 272713.120000
   6708   6709     1   0.14647 272713.120000
   6708   6718     1   0.14647 272713.120000
   6709   6712     1   0.15375 251793.120000
   6712   6715     1   0.15241 261918.400000
   6715   6716     1   0.12183 533627.360000
   6715   6717     1   0.12183 533627.360000
   6718   6721     1   0.15375 251793.120000
   6721   6724     1   0.15241 261918.400000
   6724   6725     1   0.12183 533627.360000
   6724   6726     1   0.12183 533627.360000
   6728   6731     1   0.15375 251793.120000
   6728   6756     1   0.14316 258236.480000
   6731   6734     1   0.15375 251793.120000
   6734   6737     1   0.14647 272713.120000
   6737   6738     1   0.14647 272713.120000
   6737   6747     1   0.14647 272713.120000
   6738   6741     1   0.15375 251793.120000
   6741   6744     1   0.15241 261918.400000
   6744   6745     1   0.12183 533627.360000
   6744   6746     1   0.12183 533627.360000
   6747   6750     1   0.15375 251793.120000
   6750   6753     1   0.15241 261918.400000
   6753   6754     1   0.12183 533627.360000
   6753   6755     1   0.12183 533627.360000
   6757   6760     1   0.15375 251793.120000
   6757   6785     1   0.14316 258236.480000
   6760   6763     1   0.15375 251793.120000
   6763   6766     1   0.14647 272713.120000
   6766   6767     1   0.14647 272713.120000
   6766   6776     1   0.14647 272713.120000
   6767   6770     1   0.15375 251793.120000
   6770   6773     1   0.15241 261918.400000
   6773   6774     1   0.12183 533627.360000
   6773   6775     1   0.12183 533627.360000
   6776   6779     1   0.15375 251793.120000
   6779   6782     1   0.15241 261918.400000
   6782   6783     1   0.12183 533627.360000
   6782   6784     1   0.12183 533627.360000
   6786   6789     1   0.15375 251793.120000
   6786   6814     1   0.14316 258236.480000
   6789   6792     1   0.15375 251793.120000
   6792   6795     1   0.14647 272713.120000
   6795   6796     1   0.14647 272713.120000
   6795   6805     1   0.14647 272713.120000
   6796   6799     1   0.15375 251793.120000
   6799   6802     1   0.15241 261918.400000
   6802   6803     1   0.12183 533627.360000
   6802   6804     1   0.12183 533627.360000
   6805   6808     1   0.15375 251793.120000
   6808   6811     1   0.15241 261918.400000
   6811   6812     1   0.12183 533627.360000
   6811   6813     1   0.12183 533627.360000
   6815   6818     1   0.15375 251793.120000
   6815   6843     1   0.14316 258236.480000
   6818   6821     1   0.15375 251793.120000
   6821   6824     1   0.14647 272713.120000
   6824   6825     1   0.14647 272713.120000
   6824   6834     1   0.14647 272713.120000
   6825   6828     1   0.15375 251793.120000
   6828   6831     1   0.15241 261918.400000
   6831   6832     1   0.12183 533627.360000
   6831   6833     1   0.12183 533627.360000
   6834   6837     1   0.15375 251793.120000
   6837   6840     1   0.15241 261918.400000
   6840   6841     1   0.12183 533627.360000
   6840   6842     1   0.12183 533627.360000
   6844   6847     1   0.15375 251793.120000
   6844   6872     1   0.14316 258236.480000
   6847   6850     1   0.15375 251793.120000
   6850   6853     1   0.14647 272713.120000
   6853   6854     1   0.14647 272713.120000
   6853   6863     1   0.14647 272713.120000
   6854   6857     1   0.15375 251793.120000
   6857   6860     1   0.15241 261918.400000
   6860   6861     1   0.12183 533627.360000
   6860   6862     1   0.12183 533627.360000
   6863   6866     1   0.15375 251793.120000
   6866   6869     1   0.15241 261918.400000
   6869   6870     1   0.12183 533627.360000
   6869   6871     1   0.12183 533627.360000
   6873   6876     1   0.15375 251793.120000
   6873   6901     1   0.14316 258236.480000
   6876   6879     1   0.15375 251793.120000
   6879   6882     1   0.14647 272713.120000
   6882   6883     1   0.14647 272713.120000
   6882   6892     1   0.14647 272713.120000
   6883   6886     1   0.15375 251793.120000
   6886   6889     1   0.15241 261918.400000
   6889   6890     1   0.12183 533627.360000
   6889   6891     1   0.12183 533627.360000
   6892   6895     1   0.15375 251793.120000
   6895   6898     1   0.15241 261918.400000
   6898   6899     1   0.12183 533627.360000
   6898   6900     1   0.12183 533627.360000
   6902   6905     1   0.15375 251793.120000
   6902   6930     1   0.14316 258236.480000
   6905   6908     1   0.15375 251793.120000
   6908   6911     1   0.14647 272713.120000
   6911   6912     1   0.14647 272713.120000
   6911   6921     1   0.14647 272713.120000
   6912   6915     1   0.15375 251793.120000
   6915   6918     1   0.15241 261918.400000
   6918   6919     1   0.12183 533627.360000
   6918   6920     1   0.12183 533627.360000
   6921   6924     1   0.15375 251793.120000
   6924   6927     1   0.15241 261918.400000
   6927   6928     1   0.12183 533627.360000
   6927   6929     1   0.12183 533627.360000
   6931   6934     1   0.15375 251793.120000
   6931   6959     1   0.14316 258236.480000
   6934   6937     1   0.15375 251793.120000
   6937   6940     1   0.14647 272713.120000
   6940   6941     1   0.14647 272713.120000
   6940   6950     1   0.14647 272713.120000
   6941   6944     1   0.15375 251793.120000
   6944   6947     1   0.15241 261918.400000
   6947   6948     1   0.12183 533627.360000
   6947   6949     1   0.12183 533627.360000
   6950   6953     1   0.15375 251793.120000
   6953   6956     1   0.15241 261918.400000
   6956   6957     1   0.12183 533627.360000
   6956   6958     1   0.12183 533627.360000
   6960   6963     1   0.15375 251793.120000
   6960   6988     1   0.14316 258236.480000
   6963   6966     1   0.15375 251793.120000
   6966   6969     1   0.14647 272713.120000
   6969   6970     1   0.14647 272713.120000
   6969   6979     1   0.14647 272713.120000
   6970   6973     1   0.15375 251793.120000
   6973   6976     1   0.15241 261918.400000
   6976   6977     1   0.12183 533627.360000
   6976   6978     1   0.12183 533627.360000
   6979   6982     1   0.15375 251793.120000
   6982   6985     1   0.15241 261918.400000
   6985   6986     1   0.12183 533627.360000
   6985   6987     1   0.12183 533627.360000
   6989   6992     1   0.15375 251793.120000
   6989   7017     1   0.14316 258236.480000
   6992   6995     1   0.15375 251793.120000
   6995   6998     1   0.14647 272713.120000
   6998   6999     1   0.14647 272713.120000
   6998   7008     1   0.14647 272713.120000
   6999   7002     1   0.15375 251793.120000
   7002   7005     1   0.15241 261918.400000
   7005   7006     1   0.12183 533627.360000
   7005   7007     1   0.12183 533627.360000
   7008   7011     1   0.15375 251793.120000
   7011   7014     1   0.15241 261918.400000
   7014   7015     1   0.12183 533627.360000
   7014   7016     1   0.12183 533627.360000
   7018   7021     1   0.15375 251793.120000
   7018   7046     1   0.14316 258236.480000
   7021   7024     1   0.15375 251793.120000
   7024   7027     1   0.14647 272713.120000
   7027   7028     1   0.14647 272713.120000
   7027   7037     1   0.14647 272713.120000
   7028   7031     1   0.15375 251793.120000
   7031   7034     1   0.15241 261918.400000
   7034   7035     1   0.12183 533627.360000
   7034   7036     1   0.12183 533627.360000
   7037   7040     1   0.15375 251793.120000
   7040   7043     1   0.15241 261918.400000
   7043   7044     1   0.12183 533627.360000
   7043   7045     1   0.12183 533627.360000
   7047   7050     1   0.15375 251793.120000
   7047   7075     1   0.14316 258236.480000
   7050   7053     1   0.15375 251793.120000
   7053   7056     1   0.14647 272713.120000
   7056   7057     1   0.14647 272713.120000
   7056   7066     1   0.14647 272713.120000
   7057   7060     1   0.15375 251793.120000
   7060   7063     1   0.15241 261918.400000
   7063   7064     1   0.12183 533627.360000
   7063   7065     1   0.12183 533627.360000
   7066   7069     1   0.15375 251793.120000
   7069   7072     1   0.15241 261918.400000
   7072   7073     1   0.12183 533627.360000
   7072   7074     1   0.12183 533627.360000
   7076   7079     1   0.15375 251793.120000
   7076   7104     1   0.14316 258236.480000
   7079   7082     1   0.15375 251793.120000
   7082   7085     1   0.14647 272713.120000
   7085   7086     1   0.14647 272713.120000
   7085   7095     1   0.14647 272713.120000
   7086   7089     1   0.15375 251793.120000
   7089   7092     1   0.15241 261918.400000
   7092   7093     1   0.12183 533627.360000
   7092   7094     1   0.12183 533627.360000
   7095   7098     1   0.15375 251793.120000
   7098   7101     1   0.15241 261918.400000
   7101   7102     1   0.12183 533627.360000
   7101   7103     1   0.12183 533627.360000
   7105   7108     1   0.15375 251793.120000
   7105   7133     1   0.14316 258236.480000
   7108   7111     1   0.15375 251793.120000
   7111   7114     1   0.14647 272713.120000
   7114   7115     1   0.14647 272713.120000
   7114   7124     1   0.14647 272713.120000
   7115   7118     1   0.15375 251793.120000
   7118   7121     1   0.15241 261918.400000
   7121   7122     1   0.12183 533627.360000
   7121   7123     1   0.12183 533627.360000
   7124   7127     1   0.15375 251793.120000
   7127   7130     1   0.15241 261918.400000
   7130   7131     1   0.12183 533627.360000
   7130   7132     1   0.12183 533627.360000
   7134   7137     1   0.15375 251793.120000
   7134   7162     1   0.14316 258236.480000
   7137   7140     1   0.15375 251793.120000
   7140   7143     1   0.14647 272713.120000
   7143   7144     1   0.14647 272713.120000
   7143   7153     1   0.14647 272713.120000
   7144   7147     1   0.15375 251793.120000
   7147   7150     1   0.15241 261918.400000
   7150   7151     1   0.12183 533627.360000
   7150   7152     1   0.12183 533627.360000
   7153   7156     1   0.15375 251793.120000
   7156   7159     1   0.15241 261918.400000
   7159   7160     1   0.12183 533627.360000
   7159   7161     1   0.12183 533627.360000
   7163   7166     1   0.15375 251793.120000
   7163   7191     1   0.14316 258236.480000
   7166   7169     1   0.15375 251793.120000
   7169   7172     1   0.14647 272713.120000
   7172   7173     1   0.14647 272713.120000
   7172   7182     1   0.14647 272713.120000
   7173   7176     1   0.15375 251793.120000
   7176   7179     1   0.15241 261918.400000
   7179   7180     1   0.12183 533627.360000
   7179   7181     1   0.12183 533627.360000
   7182   7185     1   0.15375 251793.120000
   7185   7188     1   0.15241 261918.400000
   7188   7189     1   0.12183 533627.360000
   7188   7190     1   0.12183 533627.360000
   7192   7195     1   0.15375 251793.120000
   7192   7220     1   0.14316 258236.480000
   7195   7198     1   0.15375 251793.120000
   7198   7201     1   0.14647 272713.120000
   7201   7202     1   0.14647 272713.120000
   7201   7211     1   0.14647 272713.120000
   7202   7205     1   0.15375 251793.120000
   7205   7208     1   0.15241 261918.400000
   7208   7209     1   0.12183 533627.360000
   7208   7210     1   0.12183 533627.360000
   7211   7214     1   0.15375 251793.120000
   7214   7217     1   0.15241 261918.400000
   7217   7218     1   0.12183 533627.360000
   7217   7219     1   0.12183 533627.360000
   7221   7224     1   0.15375 251793.120000
   7221   7249     1   0.14316 258236.480000
   7224   7227     1   0.15375 251793.120000
   7227   7230     1   0.14647 272713.120000
   7230   7231     1   0.14647 272713.120000
   7230   7240     1   0.14647 272713.120000
   7231   7234     1   0.15375 251793.120000
   7234   7237     1   0.15241 261918.400000
   7237   7238     1   0.12183 533627.360000
   7237   7239     1   0.12183 533627.360000
   7240   7243     1   0.15375 251793.120000
   7243   7246     1   0.15241 261918.400000
   7246   7247     1   0.12183 533627.360000
   7246   7248     1   0.12183 533627.360000
   7250   7253     1   0.15375 251793.120000
   7250   7278     1   0.14316 258236.480000
   7253   7256     1   0.15375 251793.120000
   7256   7259     1   0.14647 272713.120000
   7259   7260     1   0.14647 272713.120000
   7259   7269     1   0.14647 272713.120000
   7260   7263     1   0.15375 251793.120000
   7263   7266     1   0.15241 261918.400000
   7266   7267     1   0.12183 533627.360000
   7266   7268     1   0.12183 533627.360000
   7269   7272     1   0.15375 251793.120000
   7272   7275     1   0.15241 261918.400000
   7275   7276     1   0.12183 533627.360000
   7275   7277     1   0.12183 533627.360000
   7279   7282     1   0.15375 251793.120000
   7279   7307     1   0.14316 258236.480000
   7282   7285     1   0.15375 251793.120000
   7285   7288     1   0.14647 272713.120000
   7288   7289     1   0.14647 272713.120000
   7288   7298     1   0.14647 272713.120000
   7289   7292     1   0.15375 251793.120000
   7292   7295     1   0.15241 261918.400000
   7295   7296     1   0.12183 533627.360000
   7295   7297     1   0.12183 533627.360000
   7298   7301     1   0.15375 251793.120000
   7301   7304     1   0.15241 261918.400000
   7304   7305     1   0.12183 533627.360000
   7304   7306     1   0.12183 533627.360000
   7308   7311     1   0.15375 251793.120000
   7308   7336     1   0.14316 258236.480000
   7311   7314     1   0.15375 251793.120000
   7314   7317     1   0.14647 272713.120000
   7317   7318     1   0.14647 272713.120000
   7317   7327     1   0.14647 272713.120000
   7318   7321     1   0.15375 251793.120000
   7321   7324     1   0.15241 261918.400000
   7324   7325     1   0.12183 533627.360000
   7324   7326     1   0.12183 533627.360000
   7327   7330     1   0.15375 251793.120000
   7330   7333     1   0.15241 261918.400000
   7333   7334     1   0.12183 533627.360000
   7333   7335     1   0.12183 533627.360000
   7337   7340     1   0.15375 251793.120000
   7337   7365     1   0.14316 258236.480000
   7340   7343     1   0.15375 251793.120000
   7343   7346     1   0.14647 272713.120000
   7346   7347     1   0.14647 272713.120000
   7346   7356     1   0.14647 272713.120000
   7347   7350     1   0.15375 251793.120000
   7350   7353     1   0.15241 261918.400000
   7353   7354     1   0.12183 533627.360000
   7353   7355     1   0.12183 533627.360000
   7356   7359     1   0.15375 251793.120000
   7359   7362     1   0.15241 261918.400000
   7362   7363     1   0.12183 533627.360000
   7362   7364     1   0.12183 533627.360000
   7366   7369     1   0.15375 251793.120000
   7366   7394     1   0.14316 258236.480000
   7369   7372     1   0.15375 251793.120000
   7372   7375     1   0.14647 272713.120000
   7375   7376     1   0.14647 272713.120000
   7375   7385     1   0.14647 272713.120000
   7376   7379     1   0.15375 251793.120000
   7379   7382     1   0.15241 261918.400000
   7382   7383     1   0.12183 533627.360000
   7382   7384     1   0.12183 533627.360000
   7385   7388     1   0.15375 251793.120000
   7388   7391     1   0.15241 261918.400000
   7391   7392     1   0.12183 533627.360000
   7391   7393     1   0.12183 533627.360000
   7395   7398     1   0.15375 251793.120000
   7395   7423     1   0.14316 258236.480000
   7398   7401     1   0.15375 251793.120000
   7401   7404     1   0.14647 272713.120000
   7404   7405     1   0.14647 272713.120000
   7404   7414     1   0.14647 272713.120000
   7405   7408     1   0.15375 251793.120000
   7408   7411     1   0.15241 261918.400000
   7411   7412     1   0.12183 533627.360000
   7411   7413     1   0.12183 533627.360000
   7414   7417     1   0.15375 251793.120000
   7417   7420     1   0.15241 261918.400000
   7420   7421     1   0.12183 533627.360000
   7420   7422     1   0.12183 533627.360000
   7424   7427     1   0.15375 251793.120000
   7424   7452     1   0.14316 258236.480000
   7427   7430     1   0.15375 251793.120000
   7430   7433     1   0.14647 272713.120000
   7433   7434     1   0.14647 272713.120000
   7433   7443     1   0.14647 272713.120000
   7434   7437     1   0.15375 251793.120000
   7437   7440     1   0.15241 261918.400000
   7440   7441     1   0.12183 533627.360000
   7440   7442     1   0.12183 533627.360000
   7443   7446     1   0.15375 251793.120000
   7446   7449     1   0.15241 261918.400000
   7449   7450     1   0.12183 533627.360000
   7449   7451     1   0.12183 533627.360000
   7453   7456     1   0.15375 251793.120000
   7453   7481     1   0.14316 258236.480000
   7456   7459     1   0.15375 251793.120000
   7459   7462     1   0.14647 272713.120000
   7462   7463     1   0.14647 272713.120000
   7462   7472     1   0.14647 272713.120000
   7463   7466     1   0.15375 251793.120000
   7466   7469     1   0.15241 261918.400000
   7469   7470     1   0.12183 533627.360000
   7469   7471     1   0.12183 533627.360000
   7472   7475     1   0.15375 251793.120000
   7475   7478     1   0.15241 261918.400000
   7478   7479     1   0.12183 533627.360000
   7478   7480     1   0.12183 533627.360000
   7482   7485     1   0.15375 251793.120000
   7482   7510     1   0.14316 258236.480000
   7485   7488     1   0.15375 251793.120000
   7488   7491     1   0.14647 272713.120000
   7491   7492     1   0.14647 272713.120000
   7491   7501     1   0.14647 272713.120000
   7492   7495     1   0.15375 251793.120000
   7495   7498     1   0.15241 261918.400000
   7498   7499     1   0.12183 533627.360000
   7498   7500     1   0.12183 533627.360000
   7501   7504     1   0.15375 251793.120000
   7504   7507     1   0.15241 261918.400000
   7507   7508     1   0.12183 533627.360000
   7507   7509     1   0.12183 533627.360000
   7511   7514     1   0.15375 251793.120000
   7511   7539     1   0.14316 258236.480000
   7514   7517     1   0.15375 251793.120000
   7517   7520     1   0.14647 272713.120000
   7520   7521     1   0.14647 272713.120000
   7520   7530     1   0.14647 272713.120000
   7521   7524     1   0.15375 251793.120000
   7524   7527     1   0.15241 261918.400000
   7527   7528     1   0.12183 533627.360000
   7527   7529     1   0.12183 533627.360000
   7530   7533     1   0.15375 251793.120000
   7533   7536     1   0.15241 261918.400000
   7536   7537     1   0.12183 533627.360000
   7536   7538     1   0.12183 533627.360000
   7540   7543     1   0.15375 251793.120000
   7540   7568     1   0.14316 258236.480000
   7543   7546     1   0.15375 251793.120000
   7546   7549     1   0.14647 272713.120000
   7549   7550     1   0.14647 272713.120000
   7549   7559     1   0.14647 272713.120000
   7550   7553     1   0.15375 251793.120000
   7553   7556     1   0.15241 261918.400000
   7556   7557     1   0.12183 533627.360000
   7556   7558     1   0.12183 533627.360000
   7559   7562     1   0.15375 251793.120000
   7562   7565     1   0.15241 261918.400000
   7565   7566     1   0.12183 533627.360000
   7565   7567     1   0.12183 533627.360000
   7569   7572     1   0.15375 251793.120000
   7569   7597     1   0.14316 258236.480000
   7572   7575     1   0.15375 251793.120000
   7575   7578     1   0.14647 272713.120000
   7578   7579     1   0.14647 272713.120000
   7578   7588     1   0.14647 272713.120000
   7579   7582     1   0.15375 251793.120000
   7582   7585     1   0.15241 261918.400000
   7585   7586     1   0.12183 533627.360000
   7585   7587     1   0.12183 533627.360000
   7588   7591     1   0.15375 251793.120000
   7591   7594     1   0.15241 261918.400000
   7594   7595     1   0.12183 533627.360000
   7594   7596     1   0.12183 533627.360000
   7598   7601     1   0.15375 251793.120000
   7598   7626     1   0.14316 258236.480000
   7601   7604     1   0.15375 251793.120000
   7604   7607     1   0.14647 272713.120000
   7607   7608     1   0.14647 272713.120000
   7607   7617     1   0.14647 272713.120000
   7608   7611     1   0.15375 251793.120000
   7611   7614     1   0.15241 261918.400000
   7614   7615     1   0.12183 533627.360000
   7614   7616     1   0.12183 533627.360000
   7617   7620     1   0.15375 251793.120000
   7620   7623     1   0.15241 261918.400000
   7623   7624     1   0.12183 533627.360000
   7623   7625     1   0.12183 533627.360000
   7627   7630     1   0.15375 251793.120000
   7627   7655     1   0.14316 258236.480000
   7630   7633     1   0.15375 251793.120000
   7633   7636     1   0.14647 272713.120000
   7636   7637     1   0.14647 272713.120000
   7636   7646     1   0.14647 272713.120000
   7637   7640     1   0.15375 251793.120000
   7640   7643     1   0.15241 261918.400000
   7643   7644     1   0.12183 533627.360000
   7643   7645     1   0.12183 533627.360000
   7646   7649     1   0.15375 251793.120000
   7649   7652     1   0.15241 261918.400000
   7652   7653     1   0.12183 533627.360000
   7652   7654     1   0.12183 533627.360000
   7656   7659     1   0.15375 251793.120000
   7656   7684     1   0.14316 258236.480000
   7659   7662     1   0.15375 251793.120000
   7662   7665     1   0.14647 272713.120000
   7665   7666     1   0.14647 272713.120000
   7665   7675     1   0.14647 272713.120000
   7666   7669     1   0.15375 251793.120000
   7669   7672     1   0.15241 261918.400000
   7672   7673     1   0.12183 533627.360000
   7672   7674     1   0.12183 533627.360000
   7675   7678     1   0.15375 251793.120000
   7678   7681     1   0.15241 261918.400000
   7681   7682     1   0.12183 533627.360000
   7681   7683     1   0.12183 533627.360000
   7685   7688     1   0.15375 251793.120000
   7685   7713     1   0.14316 258236.480000
   7688   7691     1   0.15375 251793.120000
   7691   7694     1   0.14647 272713.120000
   7694   7695     1   0.14647 272713.120000
   7694   7704     1   0.14647 272713.120000
   7695   7698     1   0.15375 251793.120000
   7698   7701     1   0.15241 261918.400000
   7701   7702     1   0.12183 533627.360000
   7701   7703     1   0.12183 533627.360000
   7704   7707     1   0.15375 251793.120000
   7707   7710     1   0.15241 261918.400000
   7710   7711     1   0.12183 533627.360000
   7710   7712     1   0.12183 533627.360000
   7714   7717     1   0.15375 251793.120000
   7714   7742     1   0.14316 258236.480000
   7717   7720     1   0.15375 251793.120000
   7720   7723     1   0.14647 272713.120000
   7723   7724     1   0.14647 272713.120000
   7723   7733     1   0.14647 272713.120000
   7724   7727     1   0.15375 251793.120000
   7727   7730     1   0.15241 261918.400000
   7730   7731     1   0.12183 533627.360000
   7730   7732     1   0.12183 533627.360000
   7733   7736     1   0.15375 251793.120000
   7736   7739     1   0.15241 261918.400000
   7739   7740     1   0.12183 533627.360000
   7739   7741     1   0.12183 533627.360000
   7743   7746     1   0.15375 251793.120000
   7743   7771     1   0.14316 258236.480000
   7746   7749     1   0.15375 251793.120000
   7749   7752     1   0.14647 272713.120000
   7752   7753     1   0.14647 272713.120000
   7752   7762     1   0.14647 272713.120000
   7753   7756     1   0.15375 251793.120000
   7756   7759     1   0.15241 261918.400000
   7759   7760     1   0.12183 533627.360000
   7759   7761     1   0.12183 533627.360000
   7762   7765     1   0.15375 251793.120000
   7765   7768     1   0.15241 261918.400000
   7768   7769     1   0.12183 533627.360000
   7768   7770     1   0.12183 533627.360000
   7772   7775     1   0.15375 251793.120000
   7772   7800     1   0.14316 258236.480000
   7775   7778     1   0.15375 251793.120000
   7778   7781     1   0.14647 272713.120000
   7781   7782     1   0.14647 272713.120000
   7781   7791     1   0.14647 272713.120000
   7782   7785     1   0.15375 251793.120000
   7785   7788     1   0.15241 261918.400000
   7788   7789     1   0.12183 533627.360000
   7788   7790     1   0.12183 533627.360000
   7791   7794     1   0.15375 251793.120000
   7794   7797     1   0.15241 261918.400000
   7797   7798     1   0.12183 533627.360000
   7797   7799     1   0.12183 533627.360000
   7801   7804     1   0.15375 251793.120000
   7801   7829     1   0.14316 258236.480000
   7804   7807     1   0.15375 251793.120000
   7807   7810     1   0.14647 272713.120000
   7810   7811     1   0.14647 272713.120000
   7810   7820     1   0.14647 272713.120000
   7811   7814     1   0.15375 251793.120000
   7814   7817     1   0.15241 261918.400000
   7817   7818     1   0.12183 533627.360000
   7817   7819     1   0.12183 533627.360000
   7820   7823     1   0.15375 251793.120000
   7823   7826     1   0.15241 261918.400000
   7826   7827     1   0.12183 533627.360000
   7826   7828     1   0.12183 533627.360000
   7830   7833     1   0.15375 251793.120000
   7830   7858     1   0.14316 258236.480000
   7833   7836     1   0.15375 251793.120000
   7836   7839     1   0.14647 272713.120000
   7839   7840     1   0.14647 272713.120000
   7839   7849     1   0.14647 272713.120000
   7840   7843     1   0.15375 251793.120000
   7843   7846     1   0.15241 261918.400000
   7846   7847     1   0.12183 533627.360000
   7846   7848     1   0.12183 533627.360000
   7849   7852     1   0.15375 251793.120000
   7852   7855     1   0.15241 261918.400000
   7855   7856     1   0.12183 533627.360000
   7855   7857     1   0.12183 533627.360000
   7859   7862     1   0.15375 251793.120000
   7859   7887     1   0.14316 258236.480000
   7862   7865     1   0.15375 251793.120000
   7865   7868     1   0.14647 272713.120000
   7868   7869     1   0.14647 272713.120000
   7868   7878     1   0.14647 272713.120000
   7869   7872     1   0.15375 251793.120000
   7872   7875     1   0.15241 261918.400000
   7875   7876     1   0.12183 533627.360000
   7875   7877     1   0.12183 533627.360000
   7878   7881     1   0.15375 251793.120000
   7881   7884     1   0.15241 261918.400000
   7884   7885     1   0.12183 533627.360000
   7884   7886     1   0.12183 533627.360000
   7888   7891     1   0.15375 251793.120000
   7888   7916     1   0.14316 258236.480000
   7891   7894     1   0.15375 251793.120000
   7894   7897     1   0.14647 272713.120000
   7897   7898     1   0.14647 272713.120000
   7897   7907     1   0.14647 272713.120000
   7898   7901     1   0.15375 251793.120000
   7901   7904     1   0.15241 261918.400000
   7904   7905     1   0.12183 533627.360000
   7904   7906     1   0.12183 533627.360000
   7907   7910     1   0.15375 251793.120000
   7910   7913     1   0.15241 261918.400000
   7913   7914     1   0.12183 533627.360000
   7913   7915     1   0.12183 533627.360000
   7917   7920     1   0.15375 251793.120000
   7917   7945     1   0.14316 258236.480000
   7920   7923     1   0.15375 251793.120000
   7923   7926     1   0.14647 272713.120000
   7926   7927     1   0.14647 272713.120000
   7926   7936     1   0.14647 272713.120000
   7927   7930     1   0.15375 251793.120000
   7930   7933     1   0.15241 261918.400000
   7933   7934     1   0.12183 533627.360000
   7933   7935     1   0.12183 533627.360000
   7936   7939     1   0.15375 251793.120000
   7939   7942     1   0.15241 261918.400000
   7942   7943     1   0.12183 533627.360000
   7942   7944     1   0.12183 533627.360000
   7946   7949     1   0.15375 251793.120000
   7946   7974     1   0.14316 258236.480000
   7949   7952     1   0.15375 251793.120000
   7952   7955     1   0.14647 272713.120000
   7955   7956     1   0.14647 272713.120000
   7955   7965     1   0.14647 272713.120000
   7956   7959     1   0.15375 251793.120000
   7959   7962     1   0.15241 261918.400000
   7962   7963     1   0.12183 533627.360000
   7962   7964     1   0.12183 533627.360000
   7965   7968     1   0.15375 251793.120000
   7968   7971     1   0.15241 261918.400000
   7971   7972     1   0.12183 533627.360000
   7971   7973     1   0.12183 533627.360000
   7975   7978     1   0.15375 251793.120000
   7975   8003     1   0.14316 258236.480000
   7978   7981     1   0.15375 251793.120000
   7981   7984     1   0.14647 272713.120000
   7984   7985     1   0.14647 272713.120000
   7984   7994     1   0.14647 272713.120000
   7985   7988     1   0.15375 251793.120000
   7988   7991     1   0.15241 261918.400000
   7991   7992     1   0.12183 533627.360000
   7991   7993     1   0.12183 533627.360000
   7994   7997     1   0.15375 251793.120000
   7997   8000     1   0.15241 261918.400000
   8000   8001     1   0.12183 533627.360000
   8000   8002     1   0.12183 533627.360000
   8004   8007     1   0.15375 251793.120000
   8004   8032     1   0.14316 258236.480000
   8007   8010     1   0.15375 251793.120000
   8010   8013     1   0.14647 272713.120000
   8013   8014     1   0.14647 272713.120000
   8013   8023     1   0.14647 272713.120000
   8014   8017     1   0.15375 251793.120000
   8017   8020     1   0.15241 261918.400000
   8020   8021     1   0.12183 533627.360000
   8020   8022     1   0.12183 533627.360000
   8023   8026     1   0.15375 251793.120000
   8026   8029     1   0.15241 261918.400000
   8029   8030     1   0.12183 533627.360000
   8029   8031     1   0.12183 533627.360000
   8033   8036     1   0.15375 251793.120000
   8033   8061     1   0.14316 258236.480000
   8036   8039     1   0.15375 251793.120000
   8039   8042     1   0.14647 272713.120000
   8042   8043     1   0.14647 272713.120000
   8042   8052     1   0.14647 272713.120000
   8043   8046     1   0.15375 251793.120000
   8046   8049     1   0.15241 261918.400000
   8049   8050     1   0.12183 533627.360000
   8049   8051     1   0.12183 533627.360000
   8052   8055     1   0.15375 251793.120000
   8055   8058     1   0.15241 261918.400000
   8058   8059     1   0.12183 533627.360000
   8058   8060     1   0.12183 533627.360000
   8062   8065     1   0.15375 251793.120000
   8062   8090     1   0.14316 258236.480000
   8065   8068     1   0.15375 251793.120000
   8068   8071     1   0.14647 272713.120000
   8071   8072     1   0.14647 272713.120000
   8071   8081     1   0.14647 272713.120000
   8072   8075     1   0.15375 251793.120000
   8075   8078     1   0.15241 261918.400000
   8078   8079     1   0.12183 533627.360000
   8078   8080     1   0.12183 533627.360000
   8081   8084     1   0.15375 251793.120000
   8084   8087     1   0.15241 261918.400000
   8087   8088     1   0.12183 533627.360000
   8087   8089     1   0.12183 533627.360000
   8091   8094     1   0.15375 251793.120000
   8091   8119     1   0.14316 258236.480000
   8094   8097     1   0.15375 251793.120000
   8097   8100     1   0.14647 272713.120000
   8100   8101     1   0.14647 272713.120000
   8100   8110     1   0.14647 272713.120000
   8101   8104     1   0.15375 251793.120000
   8104   8107     1   0.15241 261918.400000
   8107   8108     1   0.12183 533627.360000
   8107   8109     1   0.12183 533627.360000
   8110   8113     1   0.15375 251793.120000
   8113   8116     1   0.15241 261918.400000
   8116   8117     1   0.12183 533627.360000
   8116   8118     1   0.12183 533627.360000
   8120   8123     1   0.15375 251793.120000
   8120   8148     1   0.14316 258236.480000
   8123   8126     1   0.15375 251793.120000
   8126   8129     1   0.14647 272713.120000
   8129   8130     1   0.14647 272713.120000
   8129   8139     1   0.14647 272713.120000
   8130   8133     1   0.15375 251793.120000
   8133   8136     1   0.15241 261918.400000
   8136   8137     1   0.12183 533627.360000
   8136   8138     1   0.12183 533627.360000
   8139   8142     1   0.15375 251793.120000
   8142   8145     1   0.15241 261918.400000
   8145   8146     1   0.12183 533627.360000
   8145   8147     1   0.12183 533627.360000
   8149   8152     1   0.15375 251793.120000
   8149   8177     1   0.14316 258236.480000
   8152   8155     1   0.15375 251793.120000
   8155   8158     1   0.14647 272713.120000
   8158   8159     1   0.14647 272713.120000
   8158   8168     1   0.14647 272713.120000
   8159   8162     1   0.15375 251793.120000
   8162   8165     1   0.15241 261918.400000
   8165   8166     1   0.12183 533627.360000
   8165   8167     1   0.12183 533627.360000
   8168   8171     1   0.15375 251793.120000
   8171   8174     1   0.15241 261918.400000
   8174   8175     1   0.12183 533627.360000
   8174   8176     1   0.12183 533627.360000
   8178   8181     1   0.15375 251793.120000
   8178   8206     1   0.14316 258236.480000
   8181   8184     1   0.15375 251793.120000
   8184   8187     1   0.14647 272713.120000
   8187   8188     1   0.14647 272713.120000
   8187   8197     1   0.14647 272713.120000
   8188   8191     1   0.15375 251793.120000
   8191   8194     1   0.15241 261918.400000
   8194   8195     1   0.12183 533627.360000
   8194   8196     1   0.12183 533627.360000
   8197   8200     1   0.15375 251793.120000
   8200   8203     1   0.15241 261918.400000
   8203   8204     1   0.12183 533627.360000
   8203   8205     1   0.12183 533627.360000
   8207   8210     1   0.15375 251793.120000
   8207   8235     1   0.14316 258236.480000
   8210   8213     1   0.15375 251793.120000
   8213   8216     1   0.14647 272713.120000
   8216   8217     1   0.14647 272713.120000
   8216   8226     1   0.14647 272713.120000
   8217   8220     1   0.15375 251793.120000
   8220   8223     1   0.15241 261918.400000
   8223   8224     1   0.12183 533627.360000
   8223   8225     1   0.12183 533627.360000
   8226   8229     1   0.15375 251793.120000
   8229   8232     1   0.15241 261918.400000
   8232   8233     1   0.12183 533627.360000
   8232   8234     1   0.12183 533627.360000
   8236   8239     1   0.15375 251793.120000
   8236   8264     1   0.14316 258236.480000
   8239   8242     1   0.15375 251793.120000
   8242   8245     1   0.14647 272713.120000
   8245   8246     1   0.14647 272713.120000
   8245   8255     1   0.14647 272713.120000
   8246   8249     1   0.15375 251793.120000
   8249   8252     1   0.15241 261918.400000
   8252   8253     1   0.12183 533627.360000
   8252   8254     1   0.12183 533627.360000
   8255   8258     1   0.15375 251793.120000
   8258   8261     1   0.15241 261918.400000
   8261   8262     1   0.12183 533627.360000
   8261   8263     1   0.12183 533627.360000
   8265   8268     1   0.15375 251793.120000
   8265   8293     1   0.14316 258236.480000
   8268   8271     1   0.15375 251793.120000
   8271   8274     1   0.14647 272713.120000
   8274   8275     1   0.14647 272713.120000
   8274   8284     1   0.14647 272713.120000
   8275   8278     1   0.15375 251793.120000
   8278   8281     1   0.15241 261918.400000
   8281   8282     1   0.12183 533627.360000
   8281   8283     1   0.12183 533627.360000
   8284   8287     1   0.15375 251793.120000
   8287   8290     1   0.15241 261918.400000
   8290   8291     1   0.12183 533627.360000
   8290   8292     1   0.12183 533627.360000
   8294   8297     1   0.15375 251793.120000
   8294   8322     1   0.14316 258236.480000
   8297   8300     1   0.15375 251793.120000
   8300   8303     1   0.14647 272713.120000
   8303   8304     1   0.14647 272713.120000
   8303   8313     1   0.14647 272713.120000
   8304   8307     1   0.15375 251793.120000
   8307   8310     1   0.15241 261918.400000
   8310   8311     1   0.12183 533627.360000
   8310   8312     1   0.12183 533627.360000
   8313   8316     1   0.15375 251793.120000
   8316   8319     1   0.15241 261918.400000
   8319   8320     1   0.12183 533627.360000
   8319   8321     1   0.12183 533627.360000
   8323   8326     1   0.15375 251793.120000
   8323   8351     1   0.14316 258236.480000
   8326   8329     1   0.15375 251793.120000
   8329   8332     1   0.14647 272713.120000
   8332   8333     1   0.14647 272713.120000
   8332   8342     1   0.14647 272713.120000
   8333   8336     1   0.15375 251793.120000
   8336   8339     1   0.15241 261918.400000
   8339   8340     1   0.12183 533627.360000
   8339   8341     1   0.12183 533627.360000
   8342   8345     1   0.15375 251793.120000
   8345   8348     1   0.15241 261918.400000
   8348   8349     1   0.12183 533627.360000
   8348   8350     1   0.12183 533627.360000
   8352   8355     1   0.15375 251793.120000
   8352   8380     1   0.14316 258236.480000
   8355   8358     1   0.15375 251793.120000
   8358   8361     1   0.14647 272713.120000
   8361   8362     1   0.14647 272713.120000
   8361   8371     1   0.14647 272713.120000
   8362   8365     1   0.15375 251793.120000
   8365   8368     1   0.15241 261918.400000
   8368   8369     1   0.12183 533627.360000
   8368   8370     1   0.12183 533627.360000
   8371   8374     1   0.15375 251793.120000
   8374   8377     1   0.15241 261918.400000
   8377   8378     1   0.12183 533627.360000
   8377   8379     1   0.12183 533627.360000
   8381   8384     1   0.15375 251793.120000
   8381   8409     1   0.14316 258236.480000
   8384   8387     1   0.15375 251793.120000
   8387   8390     1   0.14647 272713.120000
   8390   8391     1   0.14647 272713.120000
   8390   8400     1   0.14647 272713.120000
   8391   8394     1   0.15375 251793.120000
   8394   8397     1   0.15241 261918.400000
   8397   8398     1   0.12183 533627.360000
   8397   8399     1   0.12183 533627.360000
   8400   8403     1   0.15375 251793.120000
   8403   8406     1   0.15241 261918.400000
   8406   8407     1   0.12183 533627.360000
   8406   8408     1   0.12183 533627.360000
   8410   8413     1   0.15375 251793.120000
   8410   8438     1   0.14316 258236.480000
   8413   8416     1   0.15375 251793.120000
   8416   8419     1   0.14647 272713.120000
   8419   8420     1   0.14647 272713.120000
   8419   8429     1   0.14647 272713.120000
   8420   8423     1   0.15375 251793.120000
   8423   8426     1   0.15241 261918.400000
   8426   8427     1   0.12183 533627.360000
   8426   8428     1   0.12183 533627.360000
   8429   8432     1   0.15375 251793.120000
   8432   8435     1   0.15241 261918.400000
   8435   8436     1   0.12183 533627.360000
   8435   8437     1   0.12183 533627.360000
   8439   8442     1   0.15375 251793.120000
   8439   8467     1   0.14316 258236.480000
   8442   8445     1   0.15375 251793.120000
   8445   8448     1   0.14647 272713.120000
   8448   8449     1   0.14647 272713.120000
   8448   8458     1   0.14647 272713.120000
   8449   8452     1   0.15375 251793.120000
   8452   8455     1   0.15241 261918.400000
   8455   8456     1   0.12183 533627.360000
   8455   8457     1   0.12183 533627.360000
   8458   8461     1   0.15375 251793.120000
   8461   8464     1   0.15241 261918.400000
   8464   8465     1   0.12183 533627.360000
   8464   8466     1   0.12183 533627.360000
   8468   8471     1   0.15375 251793.120000
   8468   8496     1   0.14316 258236.480000
   8471   8474     1   0.15375 251793.120000
   8474   8477     1   0.14647 272713.120000
   8477   8478     1   0.14647 272713.120000
   8477   8487     1   0.14647 272713.120000
   8478   8481     1   0.15375 251793.120000
   8481   8484     1   0.15241 261918.400000
   8484   8485     1   0.12183 533627.360000
   8484   8486     1   0.12183 533627.360000
   8487   8490     1   0.15375 251793.120000
   8490   8493     1   0.15241 261918.400000
   8493   8494     1   0.12183 533627.360000
   8493   8495     1   0.12183 533627.360000
   8497   8500     1   0.15375 251793.120000
   8497   8525     1   0.14316 258236.480000
   8500   8503     1   0.15375 251793.120000
   8503   8506     1   0.14647 272713.120000
   8506   8507     1   0.14647 272713.120000
   8506   8516     1   0.14647 272713.120000
   8507   8510     1   0.15375 251793.120000
   8510   8513     1   0.15241 261918.400000
   8513   8514     1   0.12183 533627.360000
   8513   8515     1   0.12183 533627.360000
   8516   8519     1   0.15375 251793.120000
   8519   8522     1   0.15241 261918.400000
   8522   8523     1   0.12183 533627.360000
   8522   8524     1   0.12183 533627.360000
   8526   8529     1   0.15375 251793.120000
   8526   8554     1   0.14316 258236.480000
   8529   8532     1   0.15375 251793.120000
   8532   8535     1   0.14647 272713.120000
   8535   8536     1   0.14647 272713.120000
   8535   8545     1   0.14647 272713.120000
   8536   8539     1   0.15375 251793.120000
   8539   8542     1   0.15241 261918.400000
   8542   8543     1   0.12183 533627.360000
   8542   8544     1   0.12183 533627.360000
   8545   8548     1   0.15375 251793.120000
   8548   8551     1   0.15241 261918.400000
   8551   8552     1   0.12183 533627.360000
   8551   8553     1   0.12183 533627.360000
   8555   8558     1   0.15375 251793.120000
   8555   8583     1   0.14316 258236.480000
   8558   8561     1   0.15375 251793.120000
   8561   8564     1   0.14647 272713.120000
   8564   8565     1   0.14647 272713.120000
   8564   8574     1   0.14647 272713.120000
   8565   8568     1   0.15375 251793.120000
   8568   8571     1   0.15241 261918.400000
   8571   8572     1   0.12183 533627.360000
   8571   8573     1   0.12183 533627.360000
   8574   8577     1   0.15375 251793.120000
   8577   8580     1   0.15241 261918.400000
   8580   8581     1   0.12183 533627.360000
   8580   8582     1   0.12183 533627.360000
   8584   8587     1   0.15375 251793.120000
   8584   8612     1   0.14316 258236.480000
   8587   8590     1   0.15375 251793.120000
   8590   8593     1   0.14647 272713.120000
   8593   8594     1   0.14647 272713.120000
   8593   8603     1   0.14647 272713.120000
   8594   8597     1   0.15375 251793.120000
   8597   8600     1   0.15241 261918.400000
   8600   8601     1   0.12183 533627.360000
   8600   8602     1   0.12183 533627.360000
   8603   8606     1   0.15375 251793.120000
   8606   8609     1   0.15241 261918.400000
   8609   8610     1   0.12183 533627.360000
   8609   8611     1   0.12183 533627.360000
   8613   8616     1   0.15375 251793.120000
   8613   8641     1   0.14316 258236.480000
   8616   8619     1   0.15375 251793.120000
   8619   8622     1   0.14647 272713.120000
   8622   8623     1   0.14647 272713.120000
   8622   8632     1   0.14647 272713.120000
   8623   8626     1   0.15375 251793.120000
   8626   8629     1   0.15241 261918.400000
   8629   8630     1   0.12183 533627.360000
   8629   8631     1   0.12183 533627.360000
   8632   8635     1   0.15375 251793.120000
   8635   8638     1   0.15241 261918.400000
   8638   8639     1   0.12183 533627.360000
   8638   8640     1   0.12183 533627.360000
   8642   8645     1   0.15375 251793.120000
   8642   8670     1   0.14316 258236.480000
   8645   8648     1   0.15375 251793.120000
   8648   8651     1   0.14647 272713.120000
   8651   8652     1   0.14647 272713.120000
   8651   8661     1   0.14647 272713.120000
   8652   8655     1   0.15375 251793.120000
   8655   8658     1   0.15241 261918.400000
   8658   8659     1   0.12183 533627.360000
   8658   8660     1   0.12183 533627.360000
   8661   8664     1   0.15375 251793.120000
   8664   8667     1   0.15241 261918.400000
   8667   8668     1   0.12183 533627.360000
   8667   8669     1   0.12183 533627.360000
   8671   8674     1   0.15375 251793.120000
   8671   8699     1   0.14316 258236.480000
   8674   8677     1   0.15375 251793.120000
   8677   8680     1   0.14647 272713.120000
   8680   8681     1   0.14647 272713.120000
   8680   8690     1   0.14647 272713.120000
   8681   8684     1   0.15375 251793.120000
   8684   8687     1   0.15241 261918.400000
   8687   8688     1   0.12183 533627.360000
   8687   8689     1   0.12183 533627.360000
   8690   8693     1   0.15375 251793.120000
   8693   8696     1   0.15241 261918.400000
   8696   8697     1   0.12183 533627.360000
   8696   8698     1   0.12183 533627.360000
   8700   8703     1   0.15375 251793.120000
   8700   8728     1   0.14316 258236.480000
   8703   8706     1   0.15375 251793.120000
   8706   8709     1   0.14647 272713.120000
   8709   8710     1   0.14647 272713.120000
   8709   8719     1   0.14647 272713.120000
   8710   8713     1   0.15375 251793.120000
   8713   8716     1   0.15241 261918.400000
   8716   8717     1   0.12183 533627.360000
   8716   8718     1   0.12183 533627.360000
   8719   8722     1   0.15375 251793.120000
   8722   8725     1   0.15241 261918.400000
   8725   8726     1   0.12183 533627.360000
   8725   8727     1   0.12183 533627.360000
   8729   8732     1   0.15375 251793.120000
   8729   8757     1   0.14316 258236.480000
   8732   8735     1   0.15375 251793.120000
   8735   8738     1   0.14647 272713.120000
   8738   8739     1   0.14647 272713.120000
   8738   8748     1   0.14647 272713.120000
   8739   8742     1   0.15375 251793.120000
   8742   8745     1   0.15241 261918.400000
   8745   8746     1   0.12183 533627.360000
   8745   8747     1   0.12183 533627.360000
   8748   8751     1   0.15375 251793.120000
   8751   8754     1   0.15241 261918.400000
   8754   8755     1   0.12183 533627.360000
   8754   8756     1   0.12183 533627.360000
   8758   8761     1   0.15375 251793.120000
   8758   8786     1   0.14316 258236.480000
   8761   8764     1   0.15375 251793.120000
   8764   8767     1   0.14647 272713.120000
   8767   8768     1   0.14647 272713.120000
   8767   8777     1   0.14647 272713.120000
   8768   8771     1   0.15375 251793.120000
   8771   8774     1   0.15241 261918.400000
   8774   8775     1   0.12183 533627.360000
   8774   8776     1   0.12183 533627.360000
   8777   8780     1   0.15375 251793.120000
   8780   8783     1   0.15241 261918.400000
   8783   8784     1   0.12183 533627.360000
   8783   8785     1   0.12183 533627.360000
   8787   8790     1   0.15375 251793.120000
   8787   8815     1   0.14316 258236.480000
   8790   8793     1   0.15375 251793.120000
   8793   8796     1   0.14647 272713.120000
   8796   8797     1   0.14647 272713.120000
   8796   8806     1   0.14647 272713.120000
   8797   8800     1   0.15375 251793.120000
   8800   8803     1   0.15241 261918.400000
   8803   8804     1   0.12183 533627.360000
   8803   8805     1   0.12183 533627.360000
   8806   8809     1   0.15375 251793.120000
   8809   8812     1   0.15241 261918.400000
   8812   8813     1   0.12183 533627.360000
   8812   8814     1   0.12183 533627.360000
   8816   8819     1   0.15375 251793.120000
   8816   8844     1   0.14316 258236.480000
   8819   8822     1   0.15375 251793.120000
   8822   8825     1   0.14647 272713.120000
   8825   8826     1   0.14647 272713.120000
   8825   8835     1   0.14647 272713.120000
   8826   8829     1   0.15375 251793.120000
   8829   8832     1   0.15241 261918.400000
   8832   8833     1   0.12183 533627.360000
   8832   8834     1   0.12183 533627.360000
   8835   8838     1   0.15375 251793.120000
   8838   8841     1   0.15241 261918.400000
   8841   8842     1   0.12183 533627.360000
   8841   8843     1   0.12183 533627.360000
   8845   8848     1   0.15375 251793.120000
   8845   8873     1   0.14316 258236.480000
   8848   8851     1   0.15375 251793.120000
   8851   8854     1   0.14647 272713.120000
   8854   8855     1   0.14647 272713.120000
   8854   8864     1   0.14647 272713.120000
   8855   8858     1   0.15375 251793.120000
   8858   8861     1   0.15241 261918.400000
   8861   8862     1   0.12183 533627.360000
   8861   8863     1   0.12183 533627.360000
   8864   8867     1   0.15375 251793.120000
   8867   8870     1   0.15241 261918.400000
   8870   8871     1   0.12183 533627.360000
   8870   8872     1   0.12183 533627.360000
   8874   8877     1   0.15375 251793.120000
   8874   8902     1   0.14316 258236.480000
   8877   8880     1   0.15375 251793.120000
   8880   8883     1   0.14647 272713.120000
   8883   8884     1   0.14647 272713.120000
   8883   8893     1   0.14647 272713.120000
   8884   8887     1   0.15375 251793.120000
   8887   8890     1   0.15241 261918.400000
   8890   8891     1   0.12183 533627.360000
   8890   8892     1   0.12183 533627.360000
   8893   8896     1   0.15375 251793.120000
   8896   8899     1   0.15241 261918.400000
   8899   8900     1   0.12183 533627.360000
   8899   8901     1   0.12183 533627.360000
   8903   8906     1   0.15375 251793.120000
   8903   8931     1   0.14316 258236.480000
   8906   8909     1   0.15375 251793.120000
   8909   8912     1   0.14647 272713.120000
   8912   8913     1   0.14647 272713.120000
   8912   8922     1   0.14647 272713.120000
   8913   8916     1   0.15375 251793.120000
   8916   8919     1   0.15241 261918.400000
   8919   8920     1   0.12183 533627.360000
   8919   8921     1   0.12183 533627.360000
   8922   8925     1   0.15375 251793.120000
   8925   8928     1   0.15241 261918.400000
   8928   8929     1   0.12183 533627.360000
   8928   8930     1   0.12183 533627.360000
   8932   8935     1   0.15375 251793.120000
   8932   8960     1   0.14316 258236.480000
   8935   8938     1   0.15375 251793.120000
   8938   8941     1   0.14647 272713.120000
   8941   8942     1   0.14647 272713.120000
   8941   8951     1   0.14647 272713.120000
   8942   8945     1   0.15375 251793.120000
   8945   8948     1   0.15241 261918.400000
   8948   8949     1   0.12183 533627.360000
   8948   8950     1   0.12183 533627.360000
   8951   8954     1   0.15375 251793.120000
   8954   8957     1   0.15241 261918.400000
   8957   8958     1   0.12183 533627.360000
   8957   8959     1   0.12183 533627.360000
   8961   8964     1   0.15375 251793.120000
   8961   8989     1   0.14316 258236.480000
   8964   8967     1   0.15375 251793.120000
   8967   8970     1   0.14647 272713.120000
   8970   8971     1   0.14647 272713.120000
   8970   8980     1   0.14647 272713.120000
   8971   8974     1   0.15375 251793.120000
   8974   8977     1   0.15241 261918.400000
   8977   8978     1   0.12183 533627.360000
   8977   8979     1   0.12183 533627.360000
   8980   8983     1   0.15375 251793.120000
   8983   8986     1   0.15241 261918.400000
   8986   8987     1   0.12183 533627.360000
   8986   8988     1   0.12183 533627.360000
   8990   8993     1   0.15375 251793.120000
   8990   9018     1   0.14316 258236.480000
   8993   8996     1   0.15375 251793.120000
   8996   8999     1   0.14647 272713.120000
   8999   9000     1   0.14647 272713.120000
   8999   9009     1   0.14647 272713.120000
   9000   9003     1   0.15375 251793.120000
   9003   9006     1   0.15241 261918.400000
   9006   9007     1   0.12183 533627.360000
   9006   9008     1   0.12183 533627.360000
   9009   9012     1   0.15375 251793.120000
   9012   9015     1   0.15241 261918.400000
   9015   9016     1   0.12183 533627.360000
   9015   9017     1   0.12183 533627.360000
   9019   9022     1   0.15375 251793.120000
   9019   9047     1   0.14316 258236.480000
   9022   9025     1   0.15375 251793.120000
   9025   9028     1   0.14647 272713.120000
   9028   9029     1   0.14647 272713.120000
   9028   9038     1   0.14647 272713.120000
   9029   9032     1   0.15375 251793.120000
   9032   9035     1   0.15241 261918.400000
   9035   9036     1   0.12183 533627.360000
   9035   9037     1   0.12183 533627.360000
   9038   9041     1   0.15375 251793.120000
   9041   9044     1   0.15241 261918.400000
   9044   9045     1   0.12183 533627.360000
   9044   9046     1   0.12183 533627.360000
   9048   9051     1   0.15375 251793.120000
   9048   9076     1   0.14316 258236.480000
   9051   9054     1   0.15375 251793.120000
   9054   9057     1   0.14647 272713.120000
   9057   9058     1   0.14647 272713.120000
   9057   9067     1   0.14647 272713.120000
   9058   9061     1   0.15375 251793.120000
   9061   9064     1   0.15241 261918.400000
   9064   9065     1   0.12183 533627.360000
   9064   9066     1   0.12183 533627.360000
   9067   9070     1   0.15375 251793.120000
   9070   9073     1   0.15241 261918.400000
   9073   9074     1   0.12183 533627.360000
   9073   9075     1   0.12183 533627.360000
   9077   9080     1   0.15375 251793.120000
   9077   9105     1   0.14316 258236.480000
   9080   9083     1   0.15375 251793.120000
   9083   9086     1   0.14647 272713.120000
   9086   9087     1   0.14647 272713.120000
   9086   9096     1   0.14647 272713.120000
   9087   9090     1   0.15375 251793.120000
   9090   9093     1   0.15241 261918.400000
   9093   9094     1   0.12183 533627.360000
   9093   9095     1   0.12183 533627.360000
   9096   9099     1   0.15375 251793.120000
   9099   9102     1   0.15241 261918.400000
   9102   9103     1   0.12183 533627.360000
   9102   9104     1   0.12183 533627.360000
   9106   9109     1   0.15375 251793.120000
   9106   9134     1   0.14316 258236.480000
   9109   9112     1   0.15375 251793.120000
   9112   9115     1   0.14647 272713.120000
   9115   9116     1   0.14647 272713.120000
   9115   9125     1   0.14647 272713.120000
   9116   9119     1   0.15375 251793.120000
   9119   9122     1   0.15241 261918.400000
   9122   9123     1   0.12183 533627.360000
   9122   9124     1   0.12183 533627.360000
   9125   9128     1   0.15375 251793.120000
   9128   9131     1   0.15241 261918.400000
   9131   9132     1   0.12183 533627.360000
   9131   9133     1   0.12183 533627.360000
   9135   9138     1   0.15375 251793.120000
   9135   9163     1   0.14316 258236.480000
   9138   9141     1   0.15375 251793.120000
   9141   9144     1   0.14647 272713.120000
   9144   9145     1   0.14647 272713.120000
   9144   9154     1   0.14647 272713.120000
   9145   9148     1   0.15375 251793.120000
   9148   9151     1   0.15241 261918.400000
   9151   9152     1   0.12183 533627.360000
   9151   9153     1   0.12183 533627.360000
   9154   9157     1   0.15375 251793.120000
   9157   9160     1   0.15241 261918.400000
   9160   9161     1   0.12183 533627.360000
   9160   9162     1   0.12183 533627.360000
   9164   9167     1   0.15375 251793.120000
   9164   9192     1   0.14316 258236.480000
   9167   9170     1   0.15375 251793.120000
   9170   9173     1   0.14647 272713.120000
   9173   9174     1   0.14647 272713.120000
   9173   9183     1   0.14647 272713.120000
   9174   9177     1   0.15375 251793.120000
   9177   9180     1   0.15241 261918.400000
   9180   9181     1   0.12183 533627.360000
   9180   9182     1   0.12183 533627.360000
   9183   9186     1   0.15375 251793.120000
   9186   9189     1   0.15241 261918.400000
   9189   9190     1   0.12183 533627.360000
   9189   9191     1   0.12183 533627.360000
   9193   9196     1   0.15375 251793.120000
   9193   9221     1   0.14316 258236.480000
   9196   9199     1   0.15375 251793.120000
   9199   9202     1   0.14647 272713.120000
   9202   9203     1   0.14647 272713.120000
   9202   9212     1   0.14647 272713.120000
   9203   9206     1   0.15375 251793.120000
   9206   9209     1   0.15241 261918.400000
   9209   9210     1   0.12183 533627.360000
   9209   9211     1   0.12183 533627.360000
   9212   9215     1   0.15375 251793.120000
   9215   9218     1   0.15241 261918.400000
   9218   9219     1   0.12183 533627.360000
   9218   9220     1   0.12183 533627.360000
   9222   9225     1   0.15375 251793.120000
   9222   9250     1   0.14316 258236.480000
   9225   9228     1   0.15375 251793.120000
   9228   9231     1   0.14647 272713.120000
   9231   9232     1   0.14647 272713.120000
   9231   9241     1   0.14647 272713.120000
   9232   9235     1   0.15375 251793.120000
   9235   9238     1   0.15241 261918.400000
   9238   9239     1   0.12183 533627.360000
   9238   9240     1   0.12183 533627.360000
   9241   9244     1   0.15375 251793.120000
   9244   9247     1   0.15241 261918.400000
   9247   9248     1   0.12183 533627.360000
   9247   9249     1   0.12183 533627.360000
   9251   9254     1   0.15375 251793.120000
   9251   9279     1   0.14316 258236.480000
   9254   9257     1   0.15375 251793.120000
   9257   9260     1   0.14647 272713.120000
   9260   9261     1   0.14647 272713.120000
   9260   9270     1   0.14647 272713.120000
   9261   9264     1   0.15375 251793.120000
   9264   9267     1   0.15241 261918.400000
   9267   9268     1   0.12183 533627.360000
   9267   9269     1   0.12183 533627.360000
   9270   9273     1   0.15375 251793.120000
   9273   9276     1   0.15241 261918.400000
   9276   9277     1   0.12183 533627.360000
   9276   9278     1   0.12183 533627.360000
   9280   9283     1   0.15375 251793.120000
   9280   9308     1   0.14316 258236.480000
   9283   9286     1   0.15375 251793.120000
   9286   9289     1   0.14647 272713.120000
   9289   9290     1   0.14647 272713.120000
   9289   9299     1   0.14647 272713.120000
   9290   9293     1   0.15375 251793.120000
   9293   9296     1   0.15241 261918.400000
   9296   9297     1   0.12183 533627.360000
   9296   9298     1   0.12183 533627.360000
   9299   9302     1   0.15375 251793.120000
   9302   9305     1   0.15241 261918.400000
   9305   9306     1   0.12183 533627.360000
   9305   9307     1   0.12183 533627.360000
   9309   9312     1   0.15375 251793.120000
   9309   9337     1   0.14316 258236.480000
   9312   9315     1   0.15375 251793.120000
   9315   9318     1   0.14647 272713.120000
   9318   9319     1   0.14647 272713.120000
   9318   9328     1   0.14647 272713.120000
   9319   9322     1   0.15375 251793.120000
   9322   9325     1   0.15241 261918.400000
   9325   9326     1   0.12183 533627.360000
   9325   9327     1   0.12183 533627.360000
   9328   9331     1   0.15375 251793.120000
   9331   9334     1   0.15241 261918.400000
   9334   9335     1   0.12183 533627.360000
   9334   9336     1   0.12183 533627.360000
   9338   9341     1   0.15375 251793.120000
   9338   9366     1   0.14316 258236.480000
   9341   9344     1   0.15375 251793.120000
   9344   9347     1   0.14647 272713.120000
   9347   9348     1   0.14647 272713.120000
   9347   9357     1   0.14647 272713.120000
   9348   9351     1   0.15375 251793.120000
   9351   9354     1   0.15241 261918.400000
   9354   9355     1   0.12183 533627.360000
   9354   9356     1   0.12183 533627.360000
   9357   9360     1   0.15375 251793.120000
   9360   9363     1   0.15241 261918.400000
   9363   9364     1   0.12183 533627.360000
   9363   9365     1   0.12183 533627.360000
   9367   9370     1   0.15375 251793.120000
   9367   9395     1   0.14316 258236.480000
   9370   9373     1   0.15375 251793.120000
   9373   9376     1   0.14647 272713.120000
   9376   9377     1   0.14647 272713.120000
   9376   9386     1   0.14647 272713.120000
   9377   9380     1   0.15375 251793.120000
   9380   9383     1   0.15241 261918.400000
   9383   9384     1   0.12183 533627.360000
   9383   9385     1   0.12183 533627.360000
   9386   9389     1   0.15375 251793.120000
   9389   9392     1   0.15241 261918.400000
   9392   9393     1   0.12183 533627.360000
   9392   9394     1   0.12183 533627.360000
   9396   9399     1   0.15375 251793.120000
   9396   9424     1   0.14316 258236.480000
   9399   9402     1   0.15375 251793.120000
   9402   9405     1   0.14647 272713.120000
   9405   9406     1   0.14647 272713.120000
   9405   9415     1   0.14647 272713.120000
   9406   9409     1   0.15375 251793.120000
   9409   9412     1   0.15241 261918.400000
   9412   9413     1   0.12183 533627.360000
   9412   9414     1   0.12183 533627.360000
   9415   9418     1   0.15375 251793.120000
   9418   9421     1   0.15241 261918.400000
   9421   9422     1   0.12183 533627.360000
   9421   9423     1   0.12183 533627.360000
   9425   9428     1   0.15375 251793.120000
   9425   9453     1   0.14316 258236.480000
   9428   9431     1   0.15375 251793.120000
   9431   9434     1   0.14647 272713.120000
   9434   9435     1   0.14647 272713.120000
   9434   9444     1   0.14647 272713.120000
   9435   9438     1   0.15375 251793.120000
   9438   9441     1   0.15241 261918.400000
   9441   9442     1   0.12183 533627.360000
   9441   9443     1   0.12183 533627.360000
   9444   9447     1   0.15375 251793.120000
   9447   9450     1   0.15241 261918.400000
   9450   9451     1   0.12183 533627.360000
   9450   9452     1   0.12183 533627.360000
   9454   9457     1   0.15375 251793.120000
   9454   9482     1   0.14316 258236.480000
   9457   9460     1   0.15375 251793.120000
   9460   9463     1   0.14647 272713.120000
   9463   9464     1   0.14647 272713.120000
   9463   9473     1   0.14647 272713.120000
   9464   9467     1   0.15375 251793.120000
   9467   9470     1   0.15241 261918.400000
   9470   9471     1   0.12183 533627.360000
   9470   9472     1   0.12183 533627.360000
   9473   9476     1   0.15375 251793.120000
   9476   9479     1   0.15241 261918.400000
   9479   9480     1   0.12183 533627.360000
   9479   9481     1   0.12183 533627.360000
   9483   9486     1   0.15375 251793.120000
   9483   9511     1   0.14316 258236.480000
   9486   9489     1   0.15375 251793.120000
   9489   9492     1   0.14647 272713.120000
   9492   9493     1   0.14647 272713.120000
   9492   9502     1   0.14647 272713.120000
   9493   9496     1   0.15375 251793.120000
   9496   9499     1   0.15241 261918.400000
   9499   9500     1   0.12183 533627.360000
   9499   9501     1   0.12183 533627.360000
   9502   9505     1   0.15375 251793.120000
   9505   9508     1   0.15241 261918.400000
   9508   9509     1   0.12183 533627.360000
   9508   9510     1   0.12183 533627.360000
   9512   9515     1   0.15375 251793.120000
   9512   9540     1   0.14316 258236.480000
   9515   9518     1   0.15375 251793.120000
   9518   9521     1   0.14647 272713.120000
   9521   9522     1   0.14647 272713.120000
   9521   9531     1   0.14647 272713.120000
   9522   9525     1   0.15375 251793.120000
   9525   9528     1   0.15241 261918.400000
   9528   9529     1   0.12183 533627.360000
   9528   9530     1   0.12183 533627.360000
   9531   9534     1   0.15375 251793.120000
   9534   9537     1   0.15241 261918.400000
   9537   9538     1   0.12183 533627.360000
   9537   9539     1   0.12183 533627.360000
   9541   9544     1   0.15375 251793.120000
   9541   9569     1   0.14316 258236.480000
   9544   9547     1   0.15375 251793.120000
   9547   9550     1   0.14647 272713.120000
   9550   9551     1   0.14647 272713.120000
   9550   9560     1   0.14647 272713.120000
   9551   9554     1   0.15375 251793.120000
   9554   9557     1   0.15241 261918.400000
   9557   9558     1   0.12183 533627.360000
   9557   9559     1   0.12183 533627.360000
   9560   9563     1   0.15375 251793.120000
   9563   9566     1   0.15241 261918.400000
   9566   9567     1   0.12183 533627.360000
   9566   9568     1   0.12183 533627.360000
   9570   9573     1   0.15375 251793.120000
   9570   9598     1   0.14316 258236.480000
   9573   9576     1   0.15375 251793.120000
   9576   9579     1   0.14647 272713.120000
   9579   9580     1   0.14647 272713.120000
   9579   9589     1   0.14647 272713.120000
   9580   9583     1   0.15375 251793.120000
   9583   9586     1   0.15241 261918.400000
   9586   9587     1   0.12183 533627.360000
   9586   9588     1   0.12183 533627.360000
   9589   9592     1   0.15375 251793.120000
   9592   9595     1   0.15241 261918.400000
   9595   9596     1   0.12183 533627.360000
   9595   9597     1   0.12183 533627.360000
   9599   9602     1   0.15375 251793.120000
   9599   9627     1   0.14316 258236.480000
   9602   9605     1   0.15375 251793.120000
   9605   9608     1   0.14647 272713.120000
   9608   9609     1   0.14647 272713.120000
   9608   9618     1   0.14647 272713.120000
   9609   9612     1   0.15375 251793.120000
   9612   9615     1   0.15241 261918.400000
   9615   9616     1   0.12183 533627.360000
   9615   9617     1   0.12183 533627.360000
   9618   9621     1   0.15375 251793.120000
   9621   9624     1   0.15241 261918.400000
   9624   9625     1   0.12183 533627.360000
   9624   9626     1   0.12183 533627.360000
   9628   9631     1   0.15375 251793.120000
   9628   9656     1   0.14316 258236.480000
   9631   9634     1   0.15375 251793.120000
   9634   9637     1   0.14647 272713.120000
   9637   9638     1   0.14647 272713.120000
   9637   9647     1   0.14647 272713.120000
   9638   9641     1   0.15375 251793.120000
   9641   9644     1   0.15241 261918.400000
   9644   9645     1   0.12183 533627.360000
   9644   9646     1   0.12183 533627.360000
   9647   9650     1   0.15375 251793.120000
   9650   9653     1   0.15241 261918.400000
   9653   9654     1   0.12183 533627.360000
   9653   9655     1   0.12183 533627.360000
   9657   9660     1   0.15375 251793.120000
   9657   9685     1   0.14316 258236.480000
   9660   9663     1   0.15375 251793.120000
   9663   9666     1   0.14647 272713.120000
   9666   9667     1   0.14647 272713.120000
   9666   9676     1   0.14647 272713.120000
   9667   9670     1   0.15375 251793.120000
   9670   9673     1   0.15241 261918.400000
   9673   9674     1   0.12183 533627.360000
   9673   9675     1   0.12183 533627.360000
   9676   9679     1   0.15375 251793.120000
   9679   9682     1   0.15241 261918.400000
   9682   9683     1   0.12183 533627.360000
   9682   9684     1   0.12183 533627.360000
   9686   9689     1   0.15375 251793.120000
   9686   9714     1   0.14316 258236.480000
   9689   9692     1   0.15375 251793.120000
   9692   9695     1   0.14647 272713.120000
   9695   9696     1   0.14647 272713.120000
   9695   9705     1   0.14647 272713.120000
   9696   9699     1   0.15375 251793.120000
   9699   9702     1   0.15241 261918.400000
   9702   9703     1   0.12183 533627.360000
   9702   9704     1   0.12183 533627.360000
   9705   9708     1   0.15375 251793.120000
   9708   9711     1   0.15241 261918.400000
   9711   9712     1   0.12183 533627.360000
   9711   9713     1   0.12183 533627.360000
   9715   9718     1   0.15375 251793.120000
   9715   9743     1   0.14316 258236.480000
   9718   9721     1   0.15375 251793.120000
   9721   9724     1   0.14647 272713.120000
   9724   9725     1   0.14647 272713.120000
   9724   9734     1   0.14647 272713.120000
   9725   9728     1   0.15375 251793.120000
   9728   9731     1   0.15241 261918.400000
   9731   9732     1   0.12183 533627.360000
   9731   9733     1   0.12183 533627.360000
   9734   9737     1   0.15375 251793.120000
   9737   9740     1   0.15241 261918.400000
   9740   9741     1   0.12183 533627.360000
   9740   9742     1   0.12183 533627.360000
   9744   9747     1   0.15375 251793.120000
   9744   9772     1   0.14316 258236.480000
   9747   9750     1   0.15375 251793.120000
   9750   9753     1   0.14647 272713.120000
   9753   9754     1   0.14647 272713.120000
   9753   9763     1   0.14647 272713.120000
   9754   9757     1   0.15375 251793.120000
   9757   9760     1   0.15241 261918.400000
   9760   9761     1   0.12183 533627.360000
   9760   9762     1   0.12183 533627.360000
   9763   9766     1   0.15375 251793.120000
   9766   9769     1   0.15241 261918.400000
   9769   9770     1   0.12183 533627.360000
   9769   9771     1   0.12183 533627.360000
   9773   9776     1   0.15375 251793.120000
   9773   9801     1   0.14316 258236.480000
   9776   9779     1   0.15375 251793.120000
   9779   9782     1   0.14647 272713.120000
   9782   9783     1   0.14647 272713.120000
   9782   9792     1   0.14647 272713.120000
   9783   9786     1   0.15375 251793.120000
   9786   9789     1   0.15241 261918.400000
   9789   9790     1   0.12183 533627.360000
   9789   9791     1   0.12183 533627.360000
   9792   9795     1   0.15375 251793.120000
   9795   9798     1   0.15241 261918.400000
   9798   9799     1   0.12183 533627.360000
   9798   9800     1   0.12183 533627.360000
   9802   9805     1   0.15375 251793.120000
   9802   9830     1   0.14316 258236.480000
   9805   9808     1   0.15375 251793.120000
   9808   9811     1   0.14647 272713.120000
   9811   9812     1   0.14647 272713.120000
   9811   9821     1   0.14647 272713.120000
   9812   9815     1   0.15375 251793.120000
   9815   9818     1   0.15241 261918.400000
   9818   9819     1   0.12183 533627.360000
   9818   9820     1   0.12183 533627.360000
   9821   9824     1   0.15375 251793.120000
   9824   9827     1   0.15241 261918.400000
   9827   9828     1   0.12183 533627.360000
   9827   9829     1   0.12183 533627.360000
   9831   9834     1   0.15375 251793.120000
   9831   9859     1   0.14316 258236.480000
   9834   9837     1   0.15375 251793.120000
   9837   9840     1   0.14647 272713.120000
   9840   9841     1   0.14647 272713.120000
   9840   9850     1   0.14647 272713.120000
   9841   9844     1   0.15375 251793.120000
   9844   9847     1   0.15241 261918.400000
   9847   9848     1   0.12183 533627.360000
   9847   9849     1   0.12183 533627.360000
   9850   9853     1   0.15375 251793.120000
   9853   9856     1   0.15241 261918.400000
   9856   9857     1   0.12183 533627.360000
   9856   9858     1   0.12183 533627.360000
   9860   9863     1   0.15375 251793.120000
   9860   9888     1   0.14316 258236.480000
   9863   9866     1   0.15375 251793.120000
   9866   9869     1   0.14647 272713.120000
   9869   9870     1   0.14647 272713.120000
   9869   9879     1   0.14647 272713.120000
   9870   9873     1   0.15375 251793.120000
   9873   9876     1   0.15241 261918.400000
   9876   9877     1   0.12183 533627.360000
   9876   9878     1   0.12183 533627.360000
   9879   9882     1   0.15375 251793.120000
   9882   9885     1   0.15241 261918.400000
   9885   9886     1   0.12183 533627.360000
   9885   9887     1   0.12183 533627.360000
   9889   9892     1   0.15375 251793.120000
   9889   9917     1   0.14316 258236.480000
   9892   9895     1   0.15375 251793.120000
   9895   9898     1   0.14647 272713.120000
   9898   9899     1   0.14647 272713.120000
   9898   9908     1   0.14647 272713.120000
   9899   9902     1   0.15375 251793.120000
   9902   9905     1   0.15241 261918.400000
   9905   9906     1   0.12183 533627.360000
   9905   9907     1   0.12183 533627.360000
   9908   9911     1   0.15375 251793.120000
   9911   9914     1   0.15241 261918.400000
   9914   9915     1   0.12183 533627.360000
   9914   9916     1   0.12183 533627.360000
   9918   9921     1   0.15375 251793.120000
   9918   9946     1   0.14316 258236.480000
   9921   9924     1   0.15375 251793.120000
   9924   9927     1   0.14647 272713.120000
   9927   9928     1   0.14647 272713.120000
   9927   9937     1   0.14647 272713.120000
   9928   9931     1   0.15375 251793.120000
   9931   9934     1   0.15241 261918.400000
   9934   9935     1   0.12183 533627.360000
   9934   9936     1   0.12183 533627.360000
   9937   9940     1   0.15375 251793.120000
   9940   9943     1   0.15241 261918.400000
   9943   9944     1   0.12183 533627.360000
   9943   9945     1   0.12183 533627.360000
   9947   9950     1   0.15375 251793.120000
   9947   9975     1   0.14316 258236.480000
   9950   9953     1   0.15375 251793.120000
   9953   9956     1   0.14647 272713.120000
   9956   9957     1   0.14647 272713.120000
   9956   9966     1   0.14647 272713.120000
   9957   9960     1   0.15375 251793.120000
   9960   9963     1   0.15241 261918.400000
   9963   9964     1   0.12183 533627.360000
   9963   9965     1   0.12183 533627.360000
   9966   9969     1   0.15375 251793.120000
   9969   9972     1   0.15241 261918.400000
   9972   9973     1   0.12183 533627.360000
   9972   9974     1   0.12183 533627.360000
   9976   9979     1   0.15375 251793.120000
   9976  10004     1   0.14316 258236.480000
   9979   9982     1   0.15375 251793.120000
   9982   9985     1   0.14647 272713.120000
   9985   9986     1   0.14647 272713.120000
   9985   9995     1   0.14647 272713.120000
   9986   9989     1   0.15375 251793.120000
   9989   9992     1   0.15241 261918.400000
   9992   9993     1   0.12183 533627.360000
   9992   9994     1   0.12183 533627.360000
   9995   9998     1   0.15375 251793.120000
   9998  10001     1   0.15241 261918.400000
  10001  10002     1   0.12183 533627.360000
  10001  10003     1   0.12183 533627.360000
  10005  10008     1   0.15375 251793.120000
  10005  10033     1   0.14316 258236.480000
  10008  10011     1   0.15375 251793.120000
  10011  10014     1   0.14647 272713.120000
  10014  10015     1   0.14647 272713.120000
  10014  10024     1   0.14647 272713.120000
  10015  10018     1   0.15375 251793.120000
  10018  10021     1   0.15241 261918.400000
  10021  10022     1   0.12183 533627.360000
  10021  10023     1   0.12183 533627.360000
  10024  10027     1   0.15375 251793.120000
  10027  10030     1   0.15241 261918.400000
  10030  10031     1   0.12183 533627.360000
  10030  10032     1   0.12183 533627.360000
  10034  10037     1   0.15375 251793.120000
  10034  10062     1   0.14316 258236.480000
  10037  10040     1   0.15375 251793.120000
  10040  10043     1   0.14647 272713.120000
  10043  10044     1   0.14647 272713.120000
  10043  10053     1   0.14647 272713.120000
  10044  10047     1   0.15375 251793.120000
  10047  10050     1   0.15241 261918.400000
  10050  10051     1   0.12183 533627.360000
  10050  10052     1   0.12183 533627.360000
  10053  10056     1   0.15375 251793.120000
  10056  10059     1   0.15241 261918.400000
  10059  10060     1   0.12183 533627.360000
  10059  10061     1   0.12183 533627.360000
  10063  10066     1   0.15375 251793.120000
  10063  10091     1   0.14316 258236.480000
  10066  10069     1   0.15375 251793.120000
  10069  10072     1   0.14647 272713.120000
  10072  10073     1   0.14647 272713.120000
  10072  10082     1   0.14647 272713.120000
  10073  10076     1   0.15375 251793.120000
  10076  10079     1   0.15241 261918.400000
  10079  10080     1   0.12183 533627.360000
  10079  10081     1   0.12183 533627.360000
  10082  10085     1   0.15375 251793.120000
  10085  10088     1   0.15241 261918.400000
  10088  10089     1   0.12183 533627.360000
  10088  10090     1   0.12183 533627.360000
  10092  10095     1   0.15375 251793.120000
  10092  10120     1   0.14316 258236.480000
  10095  10098     1   0.15375 251793.120000
  10098  10101     1   0.14647 272713.120000
  10101  10102     1   0.14647 272713.120000
  10101  10111     1   0.14647 272713.120000
  10102  10105     1   0.15375 251793.120000
  10105  10108     1   0.15241 261918.400000
  10108  10109     1   0.12183 533627.360000
  10108  10110     1   0.12183 533627.360000
  10111  10114     1   0.15375 251793.120000
  10114  10117     1   0.15241 261918.400000
  10117  10118     1   0.12183 533627.360000
  10117  10119     1   0.12183 533627.360000
  10121  10124     1   0.15375 251793.120000
  10121  10149     1   0.14316 258236.480000
  10124  10127     1   0.15375 251793.120000
  10127  10130     1   0.14647 272713.120000
  10130  10131     1   0.14647 272713.120000
  10130  10140     1   0.14647 272713.120000
  10131  10134     1   0.15375 251793.120000
  10134  10137     1   0.15241 261918.400000
  10137  10138     1   0.12183 533627.360000
  10137  10139     1   0.12183 533627.360000
  10140  10143     1   0.15375 251793.120000
  10143  10146     1   0.15241 261918.400000
  10146  10147     1   0.12183 533627.360000
  10146  10148     1   0.12183 533627.360000
  10150  10153     1   0.15375 251793.120000
  10150  10178     1   0.14316 258236.480000
  10153  10156     1   0.15375 251793.120000
  10156  10159     1   0.14647 272713.120000
  10159  10160     1   0.14647 272713.120000
  10159  10169     1   0.14647 272713.120000
  10160  10163     1   0.15375 251793.120000
  10163  10166     1   0.15241 261918.400000
  10166  10167     1   0.12183 533627.360000
  10166  10168     1   0.12183 533627.360000
  10169  10172     1   0.15375 251793.120000
  10172  10175     1   0.15241 261918.400000
  10175  10176     1   0.12183 533627.360000
  10175  10177     1   0.12183 533627.360000
  10179  10182     1   0.15375 251793.120000
  10179  10207     1   0.14316 258236.480000
  10182  10185     1   0.15375 251793.120000
  10185  10188     1   0.14647 272713.120000
  10188  10189     1   0.14647 272713.120000
  10188  10198     1   0.14647 272713.120000
  10189  10192     1   0.15375 251793.120000
  10192  10195     1   0.15241 261918.400000
  10195  10196     1   0.12183 533627.360000
  10195  10197     1   0.12183 533627.360000
  10198  10201     1   0.15375 251793.120000
  10201  10204     1   0.15241 261918.400000
  10204  10205     1   0.12183 533627.360000
  10204  10206     1   0.12183 533627.360000
  10208  10211     1   0.15375 251793.120000
  10208  10236     1   0.14316 258236.480000
  10211  10214     1   0.15375 251793.120000
  10214  10217     1   0.14647 272713.120000
  10217  10218     1   0.14647 272713.120000
  10217  10227     1   0.14647 272713.120000
  10218  10221     1   0.15375 251793.120000
  10221  10224     1   0.15241 261918.400000
  10224  10225     1   0.12183 533627.360000
  10224  10226     1   0.12183 533627.360000
  10227  10230     1   0.15375 251793.120000
  10230  10233     1   0.15241 261918.400000
  10233  10234     1   0.12183 533627.360000
  10233  10235     1   0.12183 533627.360000
  10237  10240     1   0.15375 251793.120000
  10237  10265     1   0.14316 258236.480000
  10240  10243     1   0.15375 251793.120000
  10243  10246     1   0.14647 272713.120000
  10246  10247     1   0.14647 272713.120000
  10246  10256     1   0.14647 272713.120000
  10247  10250     1   0.15375 251793.120000
  10250  10253     1   0.15241 261918.400000
  10253  10254     1   0.12183 533627.360000
  10253  10255     1   0.12183 533627.360000
  10256  10259     1   0.15375 251793.120000
  10259  10262     1   0.15241 261918.400000
  10262  10263     1   0.12183 533627.360000
  10262  10264     1   0.12183 533627.360000
  10266  10269     1   0.15375 251793.120000
  10266  10294     1   0.14316 258236.480000
  10269  10272     1   0.15375 251793.120000
  10272  10275     1   0.14647 272713.120000
  10275  10276     1   0.14647 272713.120000
  10275  10285     1   0.14647 272713.120000
  10276  10279     1   0.15375 251793.120000
  10279  10282     1   0.15241 261918.400000
  10282  10283     1   0.12183 533627.360000
  10282  10284     1   0.12183 533627.360000
  10285  10288     1   0.15375 251793.120000
  10288  10291     1   0.15241 261918.400000
  10291  10292     1   0.12183 533627.360000
  10291  10293     1   0.12183 533627.360000
  10295  10298     1   0.15375 251793.120000
  10295  10323     1   0.14316 258236.480000
  10298  10301     1   0.15375 251793.120000
  10301  10304     1   0.14647 272713.120000
  10304  10305     1   0.14647 272713.120000
  10304  10314     1   0.14647 272713.120000
  10305  10308     1   0.15375 251793.120000
  10308  10311     1   0.15241 261918.400000
  10311  10312     1   0.12183 533627.360000
  10311  10313     1   0.12183 533627.360000
  10314  10317     1   0.15375 251793.120000
  10317  10320     1   0.15241 261918.400000
  10320  10321     1   0.12183 533627.360000
  10320  10322     1   0.12183 533627.360000
  10324  10327     1   0.15375 251793.120000
  10324  10352     1   0.14316 258236.480000
  10327  10330     1   0.15375 251793.120000
  10330  10333     1   0.14647 272713.120000
  10333  10334     1   0.14647 272713.120000
  10333  10343     1   0.14647 272713.120000
  10334  10337     1   0.15375 251793.120000
  10337  10340     1   0.15241 261918.400000
  10340  10341     1   0.12183 533627.360000
  10340  10342     1   0.12183 533627.360000
  10343  10346     1   0.15375 251793.120000
  10346  10349     1   0.15241 261918.400000
  10349  10350     1   0.12183 533627.360000
  10349  10351     1   0.12183 533627.360000
  10353  10356     1   0.15375 251793.120000
  10353  10381     1   0.14316 258236.480000
  10356  10359     1   0.15375 251793.120000
  10359  10362     1   0.14647 272713.120000
  10362  10363     1   0.14647 272713.120000
  10362  10372     1   0.14647 272713.120000
  10363  10366     1   0.15375 251793.120000
  10366  10369     1   0.15241 261918.400000
  10369  10370     1   0.12183 533627.360000
  10369  10371     1   0.12183 533627.360000
  10372  10375     1   0.15375 251793.120000
  10375  10378     1   0.15241 261918.400000
  10378  10379     1   0.12183 533627.360000
  10378  10380     1   0.12183 533627.360000
  10382  10385     1   0.15375 251793.120000
  10382  10410     1   0.14316 258236.480000
  10385  10388     1   0.15375 251793.120000
  10388  10391     1   0.14647 272713.120000
  10391  10392     1   0.14647 272713.120000
  10391  10401     1   0.14647 272713.120000
  10392  10395     1   0.15375 251793.120000
  10395  10398     1   0.15241 261918.400000
  10398  10399     1   0.12183 533627.360000
  10398  10400     1   0.12183 533627.360000
  10401  10404     1   0.15375 251793.120000
  10404  10407     1   0.15241 261918.400000
  10407  10408     1   0.12183 533627.360000
  10407  10409     1   0.12183 533627.360000
  10411  10414     1   0.15375 251793.120000
  10411  10439     1   0.14316 258236.480000
  10414  10417     1   0.15375 251793.120000
  10417  10420     1   0.14647 272713.120000
  10420  10421     1   0.14647 272713.120000
  10420  10430     1   0.14647 272713.120000
  10421  10424     1   0.15375 251793.120000
  10424  10427     1   0.15241 261918.400000
  10427  10428     1   0.12183 533627.360000
  10427  10429     1   0.12183 533627.360000
  10430  10433     1   0.15375 251793.120000
  10433  10436     1   0.15241 261918.400000
  10436  10437     1   0.12183 533627.360000
  10436  10438     1   0.12183 533627.360000
  10440  10443     1   0.15375 251793.120000
  10440  10468     1   0.14316 258236.480000
  10443  10446     1   0.15375 251793.120000
  10446  10449     1   0.14647 272713.120000
  10449  10450     1   0.14647 272713.120000
  10449  10459     1   0.14647 272713.120000
  10450  10453     1   0.15375 251793.120000
  10453  10456     1   0.15241 261918.400000
  10456  10457     1   0.12183 533627.360000
  10456  10458     1   0.12183 533627.360000
  10459  10462     1   0.15375 251793.120000
  10462  10465     1   0.15241 261918.400000
  10465  10466     1   0.12183 533627.360000
  10465  10467     1   0.12183 533627.360000
  10469  10472     1   0.15375 251793.120000
  10469  10497     1   0.14316 258236.480000
  10472  10475     1   0.15375 251793.120000
  10475  10478     1   0.14647 272713.120000
  10478  10479     1   0.14647 272713.120000
  10478  10488     1   0.14647 272713.120000
  10479  10482     1   0.15375 251793.120000
  10482  10485     1   0.15241 261918.400000
  10485  10486     1   0.12183 533627.360000
  10485  10487     1   0.12183 533627.360000
  10488  10491     1   0.15375 251793.120000
  10491  10494     1   0.15241 261918.400000
  10494  10495     1   0.12183 533627.360000
  10494  10496     1   0.12183 533627.360000
  10498  10501     1   0.15375 251793.120000
  10498  10526     1   0.14316 258236.480000
  10501  10504     1   0.15375 251793.120000
  10504  10507     1   0.14647 272713.120000
  10507  10508     1   0.14647 272713.120000
  10507  10517     1   0.14647 272713.120000
  10508  10511     1   0.15375 251793.120000
  10511  10514     1   0.15241 261918.400000
  10514  10515     1   0.12183 533627.360000
  10514  10516     1   0.12183 533627.360000
  10517  10520     1   0.15375 251793.120000
  10520  10523     1   0.15241 261918.400000
  10523  10524     1   0.12183 533627.360000
  10523  10525     1   0.12183 533627.360000
  10527  10530     1   0.15375 251793.120000
  10527  10555     1   0.14316 258236.480000
  10530  10533     1   0.15375 251793.120000
  10533  10536     1   0.14647 272713.120000
  10536  10537     1   0.14647 272713.120000
  10536  10546     1   0.14647 272713.120000
  10537  10540     1   0.15375 251793.120000
  10540  10543     1   0.15241 261918.400000
  10543  10544     1   0.12183 533627.360000
  10543  10545     1   0.12183 533627.360000
  10546  10549     1   0.15375 251793.120000
  10549  10552     1   0.15241 261918.400000
  10552  10553     1   0.12183 533627.360000
  10552  10554     1   0.12183 533627.360000
  10556  10559     1   0.15375 251793.120000
  10556  10584     1   0.14316 258236.480000
  10559  10562     1   0.15375 251793.120000
  10562  10565     1   0.14647 272713.120000
  10565  10566     1   0.14647 272713.120000
  10565  10575     1   0.14647 272713.120000
  10566  10569     1   0.15375 251793.120000
  10569  10572     1   0.15241 261918.400000
  10572  10573     1   0.12183 533627.360000
  10572  10574     1   0.12183 533627.360000
  10575  10578     1   0.15375 251793.120000
  10578  10581     1   0.15241 261918.400000
  10581  10582     1   0.12183 533627.360000
  10581  10583     1   0.12183 533627.360000
  10585  10588     1   0.15375 251793.120000
  10585  10613     1   0.14316 258236.480000
  10588  10591     1   0.15375 251793.120000
  10591  10594     1   0.14647 272713.120000
  10594  10595     1   0.14647 272713.120000
  10594  10604     1   0.14647 272713.120000
  10595  10598     1   0.15375 251793.120000
  10598  10601     1   0.15241 261918.400000
  10601  10602     1   0.12183 533627.360000
  10601  10603     1   0.12183 533627.360000
  10604  10607     1   0.15375 251793.120000
  10607  10610     1   0.15241 261918.400000
  10610  10611     1   0.12183 533627.360000
  10610  10612     1   0.12183 533627.360000
  10614  10617     1   0.15375 251793.120000
  10614  10642     1   0.14316 258236.480000
  10617  10620     1   0.15375 251793.120000
  10620  10623     1   0.14647 272713.120000
  10623  10624     1   0.14647 272713.120000
  10623  10633     1   0.14647 272713.120000
  10624  10627     1   0.15375 251793.120000
  10627  10630     1   0.15241 261918.400000
  10630  10631     1   0.12183 533627.360000
  10630  10632     1   0.12183 533627.360000
  10633  10636     1   0.15375 251793.120000
  10636  10639     1   0.15241 261918.400000
  10639  10640     1   0.12183 533627.360000
  10639  10641     1   0.12183 533627.360000
  10643  10646     1   0.15375 251793.120000
  10643  10671     1   0.14316 258236.480000
  10646  10649     1   0.15375 251793.120000
  10649  10652     1   0.14647 272713.120000
  10652  10653     1   0.14647 272713.120000
  10652  10662     1   0.14647 272713.120000
  10653  10656     1   0.15375 251793.120000
  10656  10659     1   0.15241 261918.400000
  10659  10660     1   0.12183 533627.360000
  10659  10661     1   0.12183 533627.360000
  10662  10665     1   0.15375 251793.120000
  10665  10668     1   0.15241 261918.400000
  10668  10669     1   0.12183 533627.360000
  10668  10670     1   0.12183 533627.360000
  10672  10675     1   0.15375 251793.120000
  10672  10700     1   0.14316 258236.480000
  10675  10678     1   0.15375 251793.120000
  10678  10681     1   0.14647 272713.120000
  10681  10682     1   0.14647 272713.120000
  10681  10691     1   0.14647 272713.120000
  10682  10685     1   0.15375 251793.120000
  10685  10688     1   0.15241 261918.400000
  10688  10689     1   0.12183 533627.360000
  10688  10690     1   0.12183 533627.360000
  10691  10694     1   0.15375 251793.120000
  10694  10697     1   0.15241 261918.400000
  10697  10698     1   0.12183 533627.360000
  10697  10699     1   0.12183 533627.360000
  10701  10704     1   0.15375 251793.120000
  10701  10729     1   0.14316 258236.480000
  10704  10707     1   0.15375 251793.120000
  10707  10710     1   0.14647 272713.120000
  10710  10711     1   0.14647 272713.120000
  10710  10720     1   0.14647 272713.120000
  10711  10714     1   0.15375 251793.120000
  10714  10717     1   0.15241 261918.400000
  10717  10718     1   0.12183 533627.360000
  10717  10719     1   0.12183 533627.360000
  10720  10723     1   0.15375 251793.120000
  10723  10726     1   0.15241 261918.400000
  10726  10727     1   0.12183 533627.360000
  10726  10728     1   0.12183 533627.360000
  10730  10733     1   0.15375 251793.120000
  10730  10758     1   0.14316 258236.480000
  10733  10736     1   0.15375 251793.120000
  10736  10739     1   0.14647 272713.120000
  10739  10740     1   0.14647 272713.120000
  10739  10749     1   0.14647 272713.120000
  10740  10743     1   0.15375 251793.120000
  10743  10746     1   0.15241 261918.400000
  10746  10747     1   0.12183 533627.360000
  10746  10748     1   0.12183 533627.360000
  10749  10752     1   0.15375 251793.120000
  10752  10755     1   0.15241 261918.400000
  10755  10756     1   0.12183 533627.360000
  10755  10757     1   0.12183 533627.360000
  10759  10762     1   0.15375 251793.120000
  10759  10787     1   0.14316 258236.480000
  10762  10765     1   0.15375 251793.120000
  10765  10768     1   0.14647 272713.120000
  10768  10769     1   0.14647 272713.120000
  10768  10778     1   0.14647 272713.120000
  10769  10772     1   0.15375 251793.120000
  10772  10775     1   0.15241 261918.400000
  10775  10776     1   0.12183 533627.360000
  10775  10777     1   0.12183 533627.360000
  10778  10781     1   0.15375 251793.120000
  10781  10784     1   0.15241 261918.400000
  10784  10785     1   0.12183 533627.360000
  10784  10786     1   0.12183 533627.360000
  10788  10791     1   0.15375 251793.120000
  10788  10816     1   0.14316 258236.480000
  10791  10794     1   0.15375 251793.120000
  10794  10797     1   0.14647 272713.120000
  10797  10798     1   0.14647 272713.120000
  10797  10807     1   0.14647 272713.120000
  10798  10801     1   0.15375 251793.120000
  10801  10804     1   0.15241 261918.400000
  10804  10805     1   0.12183 533627.360000
  10804  10806     1   0.12183 533627.360000
  10807  10810     1   0.15375 251793.120000
  10810  10813     1   0.15241 261918.400000
  10813  10814     1   0.12183 533627.360000
  10813  10815     1   0.12183 533627.360000
  10817  10820     1   0.15375 251793.120000
  10817  10845     1   0.14316 258236.480000
  10820  10823     1   0.15375 251793.120000
  10823  10826     1   0.14647 272713.120000
  10826  10827     1   0.14647 272713.120000
  10826  10836     1   0.14647 272713.120000
  10827  10830     1   0.15375 251793.120000
  10830  10833     1   0.15241 261918.400000
  10833  10834     1   0.12183 533627.360000
  10833  10835     1   0.12183 533627.360000
  10836  10839     1   0.15375 251793.120000
  10839  10842     1   0.15241 261918.400000
  10842  10843     1   0.12183 533627.360000
  10842  10844     1   0.12183 533627.360000
  10846  10849     1   0.15375 251793.120000
  10846  10874     1   0.14316 258236.480000
  10849  10852     1   0.15375 251793.120000
  10852  10855     1   0.14647 272713.120000
  10855  10856     1   0.14647 272713.120000
  10855  10865     1   0.14647 272713.120000
  10856  10859     1   0.15375 251793.120000
  10859  10862     1   0.15241 261918.400000
  10862  10863     1   0.12183 533627.360000
  10862  10864     1   0.12183 533627.360000
  10865  10868     1   0.15375 251793.120000
  10868  10871     1   0.15241 261918.400000
  10871  10872     1   0.12183 533627.360000
  10871  10873     1   0.12183 533627.360000
  10875  10878     1   0.15375 251793.120000
  10875  10903     1   0.14316 258236.480000
  10878  10881     1   0.15375 251793.120000
  10881  10884     1   0.14647 272713.120000
  10884  10885     1   0.14647 272713.120000
  10884  10894     1   0.14647 272713.120000
  10885  10888     1   0.15375 251793.120000
  10888  10891     1   0.15241 261918.400000
  10891  10892     1   0.12183 533627.360000
  10891  10893     1   0.12183 533627.360000
  10894  10897     1   0.15375 251793.120000
  10897  10900     1   0.15241 261918.400000
  10900  10901     1   0.12183 533627.360000
  10900  10902     1   0.12183 533627.360000
  10904  10907     1   0.15375 251793.120000
  10904  10932     1   0.14316 258236.480000
  10907  10910     1   0.15375 251793.120000
  10910  10913     1   0.14647 272713.120000
  10913  10914     1   0.14647 272713.120000
  10913  10923     1   0.14647 272713.120000
  10914  10917     1   0.15375 251793.120000
  10917  10920     1   0.15241 261918.400000
  10920  10921     1   0.12183 533627.360000
  10920  10922     1   0.12183 533627.360000
  10923  10926     1   0.15375 251793.120000
  10926  10929     1   0.15241 261918.400000
  10929  10930     1   0.12183 533627.360000
  10929  10931     1   0.12183 533627.360000
  10933  10936     1   0.15375 251793.120000
  10933  10961     1   0.14316 258236.480000
  10936  10939     1   0.15375 251793.120000
  10939  10942     1   0.14647 272713.120000
  10942  10943     1   0.14647 272713.120000
  10942  10952     1   0.14647 272713.120000
  10943  10946     1   0.15375 251793.120000
  10946  10949     1   0.15241 261918.400000
  10949  10950     1   0.12183 533627.360000
  10949  10951     1   0.12183 533627.360000
  10952  10955     1   0.15375 251793.120000
  10955  10958     1   0.15241 261918.400000
  10958  10959     1   0.12183 533627.360000
  10958  10960     1   0.12183 533627.360000
  10962  10965     1   0.15375 251793.120000
  10962  10990     1   0.14316 258236.480000
  10965  10968     1   0.15375 251793.120000
  10968  10971     1   0.14647 272713.120000
  10971  10972     1   0.14647 272713.120000
  10971  10981     1   0.14647 272713.120000
  10972  10975     1   0.15375 251793.120000
  10975  10978     1   0.15241 261918.400000
  10978  10979     1   0.12183 533627.360000
  10978  10980     1   0.12183 533627.360000
  10981  10984     1   0.15375 251793.120000
  10984  10987     1   0.15241 261918.400000
  10987  10988     1   0.12183 533627.360000
  10987  10989     1   0.12183 533627.360000
  10991  10994     1   0.15375 251793.120000
  10991  11019     1   0.14316 258236.480000
  10994  10997     1   0.15375 251793.120000
  10997  11000     1   0.14647 272713.120000
  11000  11001     1   0.14647 272713.120000
  11000  11010     1   0.14647 272713.120000
  11001  11004     1   0.15375 251793.120000
  11004  11007     1   0.15241 261918.400000
  11007  11008     1   0.12183 533627.360000
  11007  11009     1   0.12183 533627.360000
  11010  11013     1   0.15375 251793.120000
  11013  11016     1   0.15241 261918.400000
  11016  11017     1   0.12183 533627.360000
  11016  11018     1   0.12183 533627.360000
  11020  11023     1   0.15375 251793.120000
  11020  11048     1   0.14316 258236.480000
  11023  11026     1   0.15375 251793.120000
  11026  11029     1   0.14647 272713.120000
  11029  11030     1   0.14647 272713.120000
  11029  11039     1   0.14647 272713.120000
  11030  11033     1   0.15375 251793.120000
  11033  11036     1   0.15241 261918.400000
  11036  11037     1   0.12183 533627.360000
  11036  11038     1   0.12183 533627.360000
  11039  11042     1   0.15375 251793.120000
  11042  11045     1   0.15241 261918.400000
  11045  11046     1   0.12183 533627.360000
  11045  11047     1   0.12183 533627.360000
  11049  11052     1   0.15375 251793.120000
  11049  11077     1   0.14316 258236.480000
  11052  11055     1   0.15375 251793.120000
  11055  11058     1   0.14647 272713.120000
  11058  11059     1   0.14647 272713.120000
  11058  11068     1   0.14647 272713.120000
  11059  11062     1   0.15375 251793.120000
  11062  11065     1   0.15241 261918.400000
  11065  11066     1   0.12183 533627.360000
  11065  11067     1   0.12183 533627.360000
  11068  11071     1   0.15375 251793.120000
  11071  11074     1   0.15241 261918.400000
  11074  11075     1   0.12183 533627.360000
  11074  11076     1   0.12183 533627.360000
      2      3     1   0.10969 276646.080000
      2      4     1   0.10969 276646.080000
      5      6     1   0.10969 276646.080000
      5      7     1   0.10969 276646.080000
      8      9     1   0.10969 276646.080000
      8     10     1   0.10969 276646.080000
     11     12     1   0.10969 276646.080000
     11     13     1   0.10969 276646.080000
     14     15     1   0.10969 276646.080000
     14     16     1   0.10969 276646.080000
     17     18     1   0.10969 276646.080000
     17     19     1   0.10969 276646.080000
     20     21     1   0.10969 276646.080000
     20     22     1   0.10969 276646.080000
     23     24     1   0.10969 276646.080000
     23     25     1   0.10969 276646.080000
     26     27     1   0.10969 276646.080000
     26     28     1   0.10969 276646.080000
     30     31     1   0.10969 276646.080000
     30     32     1   0.10969 276646.080000
     33     34     1   0.10969 276646.080000
     33     35     1   0.10969 276646.080000
     36     37     1   0.10969 276646.080000
     36     38     1   0.10969 276646.080000
     39     40     1   0.10969 276646.080000
     39     41     1   0.10969 276646.080000
     42     43     1   0.10969 276646.080000
     42     44     1   0.10969 276646.080000
     45     46     1   0.10969 276646.080000
     45     47     1   0.10969 276646.080000
     48     49     1   0.10969 276646.080000
     48     50     1   0.10969 276646.080000
     51     52     1   0.10969 276646.080000
     51     53     1   0.10969 276646.080000
     54     55     1   0.10969 276646.080000
     54     56     1   0.10969 276646.080000
     59     60     1   0.10969 276646.080000
     59     61     1   0.10969 276646.080000
     62     63     1   0.10969 276646.080000
     62     64     1   0.10969 276646.080000
     65     66     1   0.10969 276646.080000
     65     67     1   0.10969 276646.080000
     68     69     1   0.10969 276646.080000
     68     70     1   0.10969 276646.080000
     71     72     1   0.10969 276646.080000
     71     73     1   0.10969 276646.080000
     74     75     1   0.10969 276646.080000
     74     76     1   0.10969 276646.080000
     77     78     1   0.10969 276646.080000
     77     79     1   0.10969 276646.080000
     80     81     1   0.10969 276646.080000
     80     82     1   0.10969 276646.080000
     83     84     1   0.10969 276646.080000
     83     85     1   0.10969 276646.080000
     88     89     1   0.10969 276646.080000
     88     90     1   0.10969 276646.080000
     91     92     1   0.10969 276646.080000
     91     93     1   0.10969 276646.080000
     94     95     1   0.10969 276646.080000
     94     96     1   0.10969 276646.080000
     97     98     1   0.10969 276646.080000
     97     99     1   0.10969 276646.080000
    100    101     1   0.10969 276646.080000
    100    102     1   0.10969 276646.080000
    103    104     1   0.10969 276646.080000
    103    105     1   0.10969 276646.080000
    106    107     1   0.10969 276646.080000
    106    108     1   0.10969 276646.080000
    109    110     1   0.10969 276646.080000
    109    111     1   0.10969 276646.080000
    112    113     1   0.10969 276646.080000
    112    114     1   0.10969 276646.080000
    117    118     1   0.10969 276646.080000
    117    119     1   0.10969 276646.080000
    120    121     1   0.10969 276646.080000
    120    122     1   0.10969 276646.080000
    123    124     1   0.10969 276646.080000
    123    125     1   0.10969 276646.080000
    126    127     1   0.10969 276646.080000
    126    128     1   0.10969 276646.080000
    129    130     1   0.10969 276646.080000
    129    131     1   0.10969 276646.080000
    132    133     1   0.10969 276646.080000
    132    134     1   0.10969 276646.080000
    135    136     1   0.10969 276646.080000
    135    137     1   0.10969 276646.080000
    138    139     1   0.10969 276646.080000
    138    140     1   0.10969 276646.080000
    141    142     1   0.10969 276646.080000
    141    143     1   0.10969 276646.080000
    146    147     1   0.10969 276646.080000
    146    148     1   0.10969 276646.080000
    149    150     1   0.10969 276646.080000
    149    151     1   0.10969 276646.080000
    152    153     1   0.10969 276646.080000
    152    154     1   0.10969 276646.080000
    155    156     1   0.10969 276646.080000
    155    157     1   0.10969 276646.080000
    158    159     1   0.10969 276646.080000
    158    160     1   0.10969 276646.080000
    161    162     1   0.10969 276646.080000
    161    163     1   0.10969 276646.080000
    164    165     1   0.10969 276646.080000
    164    166     1   0.10969 276646.080000
    167    168     1   0.10969 276646.080000
    167    169     1   0.10969 276646.080000
    170    171     1   0.10969 276646.080000
    170    172     1   0.10969 276646.080000
    175    176     1   0.10969 276646.080000
    175    177     1   0.10969 276646.080000
    178    179     1   0.10969 276646.080000
    178    180     1   0.10969 276646.080000
    181    182     1   0.10969 276646.080000
    181    183     1   0.10969 276646.080000
    184    185     1   0.10969 276646.080000
    184    186     1   0.10969 276646.080000
    187    188     1   0.10969 276646.080000
    187    189     1   0.10969 276646.080000
    190    191     1   0.10969 276646.080000
    190    192     1   0.10969 276646.080000
    193    194     1   0.10969 276646.080000
    193    195     1   0.10969 276646.080000
    196    197     1   0.10969 276646.080000
    196    198     1   0.10969 276646.080000
    199    200     1   0.10969 276646.080000
    199    201     1   0.10969 276646.080000
    204    205     1   0.10969 276646.080000
    204    206     1   0.10969 276646.080000
    207    208     1   0.10969 276646.080000
    207    209     1   0.10969 276646.080000
    210    211     1   0.10969 276646.080000
    210    212     1   0.10969 276646.080000
    213    214     1   0.10969 276646.080000
    213    215     1   0.10969 276646.080000
    216    217     1   0.10969 276646.080000
    216    218     1   0.10969 276646.080000
    219    220     1   0.10969 276646.080000
    219    221     1   0.10969 276646.080000
    222    223     1   0.10969 276646.080000
    222    224     1   0.10969 276646.080000
    225    226     1   0.10969 276646.080000
    225    227     1   0.10969 276646.080000
    228    229     1   0.10969 276646.080000
    228    230     1   0.10969 276646.080000
    233    234     1   0.10969 276646.080000
    233    235     1   0.10969 276646.080000
    236    237     1   0.10969 276646.080000
    236    238     1   0.10969 276646.080000
    239    240     1   0.10969 276646.080000
    239    241     1   0.10969 276646.080000
    242    243     1   0.10969 276646.080000
    242    244     1   0.10969 276646.080000
    245    246     1   0.10969 276646.080000
    245    247     1   0.10969 276646.080000
    248    249     1   0.10969 276646.080000
    248    250     1   0.10969 276646.080000
    251    252     1   0.10969 276646.080000
    251    253     1   0.10969 276646.080000
    254    255     1   0.10969 276646.080000
    254    256     1   0.10969 276646.080000
    257    258     1   0.10969 276646.080000
    257    259     1   0.10969 276646.080000
    262    263     1   0.10969 276646.080000
    262    264     1   0.10969 276646.080000
    265    266     1   0.10969 276646.080000
    265    267     1   0.10969 276646.080000
    268    269     1   0.10969 276646.080000
    268    270     1   0.10969 276646.080000
    271    272     1   0.10969 276646.080000
    271    273     1   0.10969 276646.080000
    274    275     1   0.10969 276646.080000
    274    276     1   0.10969 276646.080000
    277    278     1   0.10969 276646.080000
    277    279     1   0.10969 276646.080000
    280    281     1   0.10969 276646.080000
    280    282     1   0.10969 276646.080000
    283    284     1   0.10969 276646.080000
    283    285     1   0.10969 276646.080000
    286    287     1   0.10969 276646.080000
    286    288     1   0.10969 276646.080000
    291    292     1   0.10969 276646.080000
    291    293     1   0.10969 276646.080000
    294    295     1   0.10969 276646.080000
    294    296     1   0.10969 276646.080000
    297    298     1   0.10969 276646.080000
    297    299     1   0.10969 276646.080000
    300    301     1   0.10969 276646.080000
    300    302     1   0.10969 276646.080000
    303    304     1   0.10969 276646.080000
    303    305     1   0.10969 276646.080000
    306    307     1   0.10969 276646.080000
    306    308     1   0.10969 276646.080000
    309    310     1   0.10969 276646.080000
    309    311     1   0.10969 276646.080000
    312    313     1   0.10969 276646.080000
    312    314     1   0.10969 276646.080000
    315    316     1   0.10969 276646.080000
    315    317     1   0.10969 276646.080000
    320    321     1   0.10969 276646.080000
    320    322     1   0.10969 276646.080000
    323    324     1   0.10969 276646.080000
    323    325     1   0.10969 276646.080000
    326    327     1   0.10969 276646.080000
    326    328     1   0.10969 276646.080000
    329    330     1   0.10969 276646.080000
    329    331     1   0.10969 276646.080000
    332    333     1   0.10969 276646.080000
    332    334     1   0.10969 276646.080000
    335    336     1   0.10969 276646.080000
    335    337     1   0.10969 276646.080000
    338    339     1   0.10969 276646.080000
    338    340     1   0.10969 276646.080000
    341    342     1   0.10969 276646.080000
    341    343     1   0.10969 276646.080000
    344    345     1   0.10969 276646.080000
    344    346     1   0.10969 276646.080000
    349    350     1   0.10969 276646.080000
    349    351     1   0.10969 276646.080000
    352    353     1   0.10969 276646.080000
    352    354     1   0.10969 276646.080000
    355    356     1   0.10969 276646.080000
    355    357     1   0.10969 276646.080000
    358    359     1   0.10969 276646.080000
    358    360     1   0.10969 276646.080000
    361    362     1   0.10969 276646.080000
    361    363     1   0.10969 276646.080000
    364    365     1   0.10969 276646.080000
    364    366     1   0.10969 276646.080000
    367    368     1   0.10969 276646.080000
    367    369     1   0.10969 276646.080000
    370    371     1   0.10969 276646.080000
    370    372     1   0.10969 276646.080000
    373    374     1   0.10969 276646.080000
    373    375     1   0.10969 276646.080000
    378    379     1   0.10969 276646.080000
    378    380     1   0.10969 276646.080000
    381    382     1   0.10969 276646.080000
    381    383     1   0.10969 276646.080000
    384    385     1   0.10969 276646.080000
    384    386     1   0.10969 276646.080000
    387    388     1   0.10969 276646.080000
    387    389     1   0.10969 276646.080000
    390    391     1   0.10969 276646.080000
    390    392     1   0.10969 276646.080000
    393    394     1   0.10969 276646.080000
    393    395     1   0.10969 276646.080000
    396    397     1   0.10969 276646.080000
    396    398     1   0.10969 276646.080000
    399    400     1   0.10969 276646.080000
    399    401     1   0.10969 276646.080000
    402    403     1   0.10969 276646.080000
    402    404     1   0.10969 276646.080000
    407    408     1   0.10969 276646.080000
    407    409     1   0.10969 276646.080000
    410    411     1   0.10969 276646.080000
    410    412     1   0.10969 276646.080000
    413    414     1   0.10969 276646.080000
    413    415     1   0.10969 276646.080000
    416    417     1   0.10969 276646.080000
    416    418     1   0.10969 276646.080000
    419    420     1   0.10969 276646.080000
    419    421     1   0.10969 276646.080000
    422    423     1   0.10969 276646.080000
    422    424     1   0.10969 276646.080000
    425    426     1   0.10969 276646.080000
    425    427     1   0.10969 276646.080000
    428    429     1   0.10969 276646.080000
    428    430     1   0.10969 276646.080000
    431    432     1   0.10969 276646.080000
    431    433     1   0.10969 276646.080000
    436    437     1   0.10969 276646.080000
    436    438     1   0.10969 276646.080000
    439    440     1   0.10969 276646.080000
    439    441     1   0.10969 276646.080000
    442    443     1   0.10969 276646.080000
    442    444     1   0.10969 276646.080000
    445    446     1   0.10969 276646.080000
    445    447     1   0.10969 276646.080000
    448    449     1   0.10969 276646.080000
    448    450     1   0.10969 276646.080000
    451    452     1   0.10969 276646.080000
    451    453     1   0.10969 276646.080000
    454    455     1   0.10969 276646.080000
    454    456     1   0.10969 276646.080000
    457    458     1   0.10969 276646.080000
    457    459     1   0.10969 276646.080000
    460    461     1   0.10969 276646.080000
    460    462     1   0.10969 276646.080000
    465    466     1   0.10969 276646.080000
    465    467     1   0.10969 276646.080000
    468    469     1   0.10969 276646.080000
    468    470     1   0.10969 276646.080000
    471    472     1   0.10969 276646.080000
    471    473     1   0.10969 276646.080000
    474    475     1   0.10969 276646.080000
    474    476     1   0.10969 276646.080000
    477    478     1   0.10969 276646.080000
    477    479     1   0.10969 276646.080000
    480    481     1   0.10969 276646.080000
    480    482     1   0.10969 276646.080000
    483    484     1   0.10969 276646.080000
    483    485     1   0.10969 276646.080000
    486    487     1   0.10969 276646.080000
    486    488     1   0.10969 276646.080000
    489    490     1   0.10969 276646.080000
    489    491     1   0.10969 276646.080000
    494    495     1   0.10969 276646.080000
    494    496     1   0.10969 276646.080000
    497    498     1   0.10969 276646.080000
    497    499     1   0.10969 276646.080000
    500    501     1   0.10969 276646.080000
    500    502     1   0.10969 276646.080000
    503    504     1   0.10969 276646.080000
    503    505     1   0.10969 276646.080000
    506    507     1   0.10969 276646.080000
    506    508     1   0.10969 276646.080000
    509    510     1   0.10969 276646.080000
    509    511     1   0.10969 276646.080000
    512    513     1   0.10969 276646.080000
    512    514     1   0.10969 276646.080000
    515    516     1   0.10969 276646.080000
    515    517     1   0.10969 276646.080000
    518    519     1   0.10969 276646.080000
    518    520     1   0.10969 276646.080000
    523    524     1   0.10969 276646.080000
    523    525     1   0.10969 276646.080000
    526    527     1   0.10969 276646.080000
    526    528     1   0.10969 276646.080000
    529    530     1   0.10969 276646.080000
    529    531     1   0.10969 276646.080000
    532    533     1   0.10969 276646.080000
    532    534     1   0.10969 276646.080000
    535    536     1   0.10969 276646.080000
    535    537     1   0.10969 276646.080000
    538    539     1   0.10969 276646.080000
    538    540     1   0.10969 276646.080000
    541    542     1   0.10969 276646.080000
    541    543     1   0.10969 276646.080000
    544    545     1   0.10969 276646.080000
    544    546     1   0.10969 276646.080000
    547    548     1   0.10969 276646.080000
    547    549     1   0.10969 276646.080000
    552    553     1   0.10969 276646.080000
    552    554     1   0.10969 276646.080000
    555    556     1   0.10969 276646.080000
    555    557     1   0.10969 276646.080000
    558    559     1   0.10969 276646.080000
    558    560     1   0.10969 276646.080000
    561    562     1   0.10969 276646.080000
    561    563     1   0.10969 276646.080000
    564    565     1   0.10969 276646.080000
    564    566     1   0.10969 276646.080000
    567    568     1   0.10969 276646.080000
    567    569     1   0.10969 276646.080000
    570    571     1   0.10969 276646.080000
    570    572     1   0.10969 276646.080000
    573    574     1   0.10969 276646.080000
    573    575     1   0.10969 276646.080000
    576    577     1   0.10969 276646.080000
    576    578     1   0.10969 276646.080000
    581    582     1   0.10969 276646.080000
    581    583     1   0.10969 276646.080000
    584    585     1   0.10969 276646.080000
    584    586     1   0.10969 276646.080000
    587    588     1   0.10969 276646.080000
    587    589     1   0.10969 276646.080000
    590    591     1   0.10969 276646.080000
    590    592     1   0.10969 276646.080000
    593    594     1   0.10969 276646.080000
    593    595     1   0.10969 276646.080000
    596    597     1   0.10969 276646.080000
    596    598     1   0.10969 276646.080000
    599    600     1   0.10969 276646.080000
    599    601     1   0.10969 276646.080000
    602    603     1   0.10969 276646.080000
    602    604     1   0.10969 276646.080000
    605    606     1   0.10969 276646.080000
    605    607     1   0.10969 276646.080000
    610    611     1   0.10969 276646.080000
    610    612     1   0.10969 276646.080000
    613    614     1   0.10969 276646.080000
    613    615     1   0.10969 276646.080000
    616    617     1   0.10969 276646.080000
    616    618     1   0.10969 276646.080000
    619    620     1   0.10969 276646.080000
    619    621     1   0.10969 276646.080000
    622    623     1   0.10969 276646.080000
    622    624     1   0.10969 276646.080000
    625    626     1   0.10969 276646.080000
    625    627     1   0.10969 276646.080000
    628    629     1   0.10969 276646.080000
    628    630     1   0.10969 276646.080000
    631    632     1   0.10969 276646.080000
    631    633     1   0.10969 276646.080000
    634    635     1   0.10969 276646.080000
    634    636     1   0.10969 276646.080000
    639    640     1   0.10969 276646.080000
    639    641     1   0.10969 276646.080000
    642    643     1   0.10969 276646.080000
    642    644     1   0.10969 276646.080000
    645    646     1   0.10969 276646.080000
    645    647     1   0.10969 276646.080000
    648    649     1   0.10969 276646.080000
    648    650     1   0.10969 276646.080000
    651    652     1   0.10969 276646.080000
    651    653     1   0.10969 276646.080000
    654    655     1   0.10969 276646.080000
    654    656     1   0.10969 276646.080000
    657    658     1   0.10969 276646.080000
    657    659     1   0.10969 276646.080000
    660    661     1   0.10969 276646.080000
    660    662     1   0.10969 276646.080000
    663    664     1   0.10969 276646.080000
    663    665     1   0.10969 276646.080000
    668    669     1   0.10969 276646.080000
    668    670     1   0.10969 276646.080000
    671    672     1   0.10969 276646.080000
    671    673     1   0.10969 276646.080000
    674    675     1   0.10969 276646.080000
    674    676     1   0.10969 276646.080000
    677    678     1   0.10969 276646.080000
    677    679     1   0.10969 276646.080000
    680    681     1   0.10969 276646.080000
    680    682     1   0.10969 276646.080000
    683    684     1   0.10969 276646.080000
    683    685     1   0.10969 276646.080000
    686    687     1   0.10969 276646.080000
    686    688     1   0.10969 276646.080000
    689    690     1   0.10969 276646.080000
    689    691     1   0.10969 276646.080000
    692    693     1   0.10969 276646.080000
    692    694     1   0.10969 276646.080000
    697    698     1   0.10969 276646.080000
    697    699     1   0.10969 276646.080000
    700    701     1   0.10969 276646.080000
    700    702     1   0.10969 276646.080000
    703    704     1   0.10969 276646.080000
    703    705     1   0.10969 276646.080000
    706    707     1   0.10969 276646.080000
    706    708     1   0.10969 276646.080000
    709    710     1   0.10969 276646.080000
    709    711     1   0.10969 276646.080000
    712    713     1   0.10969 276646.080000
    712    714     1   0.10969 276646.080000
    715    716     1   0.10969 276646.080000
    715    717     1   0.10969 276646.080000
    718    719     1   0.10969 276646.080000
    718    720     1   0.10969 276646.080000
    721    722     1   0.10969 276646.080000
    721    723     1   0.10969 276646.080000
    726    727     1   0.10969 276646.080000
    726    728     1   0.10969 276646.080000
    729    730     1   0.10969 276646.080000
    729    731     1   0.10969 276646.080000
    732    733     1   0.10969 276646.080000
    732    734     1   0.10969 276646.080000
    735    736     1   0.10969 276646.080000
    735    737     1   0.10969 276646.080000
    738    739     1   0.10969 276646.080000
    738    740     1   0.10969 276646.080000
    741    742     1   0.10969 276646.080000
    741    743     1   0.10969 276646.080000
    744    745     1   0.10969 276646.080000
    744    746     1   0.10969 276646.080000
    747    748     1   0.10969 276646.080000
    747    749     1   0.10969 276646.080000
    750    751     1   0.10969 276646.080000
    750    752     1   0.10969 276646.080000
    755    756     1   0.10969 276646.080000
    755    757     1   0.10969 276646.080000
    758    759     1   0.10969 276646.080000
    758    760     1   0.10969 276646.080000
    761    762     1   0.10969 276646.080000
    761    763     1   0.10969 276646.080000
    764    765     1   0.10969 276646.080000
    764    766     1   0.10969 276646.080000
    767    768     1   0.10969 276646.080000
    767    769     1   0.10969 276646.080000
    770    771     1   0.10969 276646.080000
    770    772     1   0.10969 276646.080000
    773    774     1   0.10969 276646.080000
    773    775     1   0.10969 276646.080000
    776    777     1   0.10969 276646.080000
    776    778     1   0.10969 276646.080000
    779    780     1   0.10969 276646.080000
    779    781     1   0.10969 276646.080000
    784    785     1   0.10969 276646.080000
    784    786     1   0.10969 276646.080000
    787    788     1   0.10969 276646.080000
    787    789     1   0.10969 276646.080000
    790    791     1   0.10969 276646.080000
    790    792     1   0.10969 276646.080000
    793    794     1   0.10969 276646.080000
    793    795     1   0.10969 276646.080000
    796    797     1   0.10969 276646.080000
    796    798     1   0.10969 276646.080000
    799    800     1   0.10969 276646.080000
    799    801     1   0.10969 276646.080000
    802    803     1   0.10969 276646.080000
    802    804     1   0.10969 276646.080000
    805    806     1   0.10969 276646.080000
    805    807     1   0.10969 276646.080000
    808    809     1   0.10969 276646.080000
    808    810     1   0.10969 276646.080000
    813    814     1   0.10969 276646.080000
    813    815     1   0.10969 276646.080000
    816    817     1   0.10969 276646.080000
    816    818     1   0.10969 276646.080000
    819    820     1   0.10969 276646.080000
    819    821     1   0.10969 276646.080000
    822    823     1   0.10969 276646.080000
    822    824     1   0.10969 276646.080000
    825    826     1   0.10969 276646.080000
    825    827     1   0.10969 276646.080000
    828    829     1   0.10969 276646.080000
    828    830     1   0.10969 276646.080000
    831    832     1   0.10969 276646.080000
    831    833     1   0.10969 276646.080000
    834    835     1   0.10969 276646.080000
    834    836     1   0.10969 276646.080000
    837    838     1   0.10969 276646.080000
    837    839     1   0.10969 276646.080000
    842    843     1   0.10969 276646.080000
    842    844     1   0.10969 276646.080000
    845    846     1   0.10969 276646.080000
    845    847     1   0.10969 276646.080000
    848    849     1   0.10969 276646.080000
    848    850     1   0.10969 276646.080000
    851    852     1   0.10969 276646.080000
    851    853     1   0.10969 276646.080000
    854    855     1   0.10969 276646.080000
    854    856     1   0.10969 276646.080000
    857    858     1   0.10969 276646.080000
    857    859     1   0.10969 276646.080000
    860    861     1   0.10969 276646.080000
    860    862     1   0.10969 276646.080000
    863    864     1   0.10969 276646.080000
    863    865     1   0.10969 276646.080000
    866    867     1   0.10969 276646.080000
    866    868     1   0.10969 276646.080000
    871    872     1   0.10969 276646.080000
    871    873     1   0.10969 276646.080000
    874    875     1   0.10969 276646.080000
    874    876     1   0.10969 276646.080000
    877    878     1   0.10969 276646.080000
    877    879     1   0.10969 276646.080000
    880    881     1   0.10969 276646.080000
    880    882     1   0.10969 276646.080000
    883    884     1   0.10969 276646.080000
    883    885     1   0.10969 276646.080000
    886    887     1   0.10969 276646.080000
    886    888     1   0.10969 276646.080000
    889    890     1   0.10969 276646.080000
    889    891     1   0.10969 276646.080000
    892    893     1   0.10969 276646.080000
    892    894     1   0.10969 276646.080000
    895    896     1   0.10969 276646.080000
    895    897     1   0.10969 276646.080000
    900    901     1   0.10969 276646.080000
    900    902     1   0.10969 276646.080000
    903    904     1   0.10969 276646.080000
    903    905     1   0.10969 276646.080000
    906    907     1   0.10969 276646.080000
    906    908     1   0.10969 276646.080000
    909    910     1   0.10969 276646.080000
    909    911     1   0.10969 276646.080000
    912    913     1   0.10969 276646.080000
    912    914     1   0.10969 276646.080000
    915    916     1   0.10969 276646.080000
    915    917     1   0.10969 276646.080000
    918    919     1   0.10969 276646.080000
    918    920     1   0.10969 276646.080000
    921    922     1   0.10969 276646.080000
    921    923     1   0.10969 276646.080000
    924    925     1   0.10969 276646.080000
    924    926     1   0.10969 276646.080000
    929    930     1   0.10969 276646.080000
    929    931     1   0.10969 276646.080000
    932    933     1   0.10969 276646.080000
    932    934     1   0.10969 276646.080000
    935    936     1   0.10969 276646.080000
    935    937     1   0.10969 276646.080000
    938    939     1   0.10969 276646.080000
    938    940     1   0.10969 276646.080000
    941    942     1   0.10969 276646.080000
    941    943     1   0.10969 276646.080000
    944    945     1   0.10969 276646.080000
    944    946     1   0.10969 276646.080000
    947    948     1   0.10969 276646.080000
    947    949     1   0.10969 276646.080000
    950    951     1   0.10969 276646.080000
    950    952     1   0.10969 276646.080000
    953    954     1   0.10969 276646.080000
    953    955     1   0.10969 276646.080000
    958    959     1   0.10969 276646.080000
    958    960     1   0.10969 276646.080000
    961    962     1   0.10969 276646.080000
    961    963     1   0.10969 276646.080000
    964    965     1   0.10969 276646.080000
    964    966     1   0.10969 276646.080000
    967    968     1   0.10969 276646.080000
    967    969     1   0.10969 276646.080000
    970    971     1   0.10969 276646.080000
    970    972     1   0.10969 276646.080000
    973    974     1   0.10969 276646.080000
    973    975     1   0.10969 276646.080000
    976    977     1   0.10969 276646.080000
    976    978     1   0.10969 276646.080000
    979    980     1   0.10969 276646.080000
    979    981     1   0.10969 276646.080000
    982    983     1   0.10969 276646.080000
    982    984     1   0.10969 276646.080000
    987    988     1   0.10969 276646.080000
    987    989     1   0.10969 276646.080000
    990    991     1   0.10969 276646.080000
    990    992     1   0.10969 276646.080000
    993    994     1   0.10969 276646.080000
    993    995     1   0.10969 276646.080000
    996    997     1   0.10969 276646.080000
    996    998     1   0.10969 276646.080000
    999   1000     1   0.10969 276646.080000
    999   1001     1   0.10969 276646.080000
   1002   1003     1   0.10969 276646.080000
   1002   1004     1   0.10969 276646.080000
   1005   1006     1   0.10969 276646.080000
   1005   1007     1   0.10969 276646.080000
   1008   1009     1   0.10969 276646.080000
   1008   1010     1   0.10969 276646.080000
   1011   1012     1   0.10969 276646.080000
   1011   1013     1   0.10969 276646.080000
   1016   1017     1   0.10969 276646.080000
   1016   1018     1   0.10969 276646.080000
   1019   1020     1   0.10969 276646.080000
   1019   1021     1   0.10969 276646.080000
   1022   1023     1   0.10969 276646.080000
   1022   1024     1   0.10969 276646.080000
   1025   1026     1   0.10969 276646.080000
   1025   1027     1   0.10969 276646.080000
   1028   1029     1   0.10969 276646.080000
   1028   1030     1   0.10969 276646.080000
   1031   1032     1   0.10969 276646.080000
   1031   1033     1   0.10969 276646.080000
   1034   1035     1   0.10969 276646.080000
   1034   1036     1   0.10969 276646.080000
   1037   1038     1   0.10969 276646.080000
   1037   1039     1   0.10969 276646.080000
   1040   1041     1   0.10969 276646.080000
   1040   1042     1   0.10969 276646.080000
   1045   1046     1   0.10969 276646.080000
   1045   1047     1   0.10969 276646.080000
   1048   1049     1   0.10969 276646.080000
   1048   1050     1   0.10969 276646.080000
   1051   1052     1   0.10969 276646.080000
   1051   1053     1   0.10969 276646.080000
   1054   1055     1   0.10969 276646.080000
   1054   1056     1   0.10969 276646.080000
   1057   1058     1   0.10969 276646.080000
   1057   1059     1   0.10969 276646.080000
   1060   1061     1   0.10969 276646.080000
   1060   1062     1   0.10969 276646.080000
   1063   1064     1   0.10969 276646.080000
   1063   1065     1   0.10969 276646.080000
   1066   1067     1   0.10969 276646.080000
   1066   1068     1   0.10969 276646.080000
   1069   1070     1   0.10969 276646.080000
   1069   1071     1   0.10969 276646.080000
   1074   1075     1   0.10969 276646.080000
   1074   1076     1   0.10969 276646.080000
   1077   1078     1   0.10969 276646.080000
   1077   1079     1   0.10969 276646.080000
   1080   1081     1   0.10969 276646.080000
   1080   1082     1   0.10969 276646.080000
   1083   1084     1   0.10969 276646.080000
   1083   1085     1   0.10969 276646.080000
   1086   1087     1   0.10969 276646.080000
   1086   1088     1   0.10969 276646.080000
   1089   1090     1   0.10969 276646.080000
   1089   1091     1   0.10969 276646.080000
   1092   1093     1   0.10969 276646.080000
   1092   1094     1   0.10969 276646.080000
   1095   1096     1   0.10969 276646.080000
   1095   1097     1   0.10969 276646.080000
   1098   1099     1   0.10969 276646.080000
   1098   1100     1   0.10969 276646.080000
   1103   1104     1   0.10969 276646.080000
   1103   1105     1   0.10969 276646.080000
   1106   1107     1   0.10969 276646.080000
   1106   1108     1   0.10969 276646.080000
   1109   1110     1   0.10969 276646.080000
   1109   1111     1   0.10969 276646.080000
   1112   1113     1   0.10969 276646.080000
   1112   1114     1   0.10969 276646.080000
   1115   1116     1   0.10969 276646.080000
   1115   1117     1   0.10969 276646.080000
   1118   1119     1   0.10969 276646.080000
   1118   1120     1   0.10969 276646.080000
   1121   1122     1   0.10969 276646.080000
   1121   1123     1   0.10969 276646.080000
   1124   1125     1   0.10969 276646.080000
   1124   1126     1   0.10969 276646.080000
   1127   1128     1   0.10969 276646.080000
   1127   1129     1   0.10969 276646.080000
   1132   1133     1   0.10969 276646.080000
   1132   1134     1   0.10969 276646.080000
   1135   1136     1   0.10969 276646.080000
   1135   1137     1   0.10969 276646.080000
   1138   1139     1   0.10969 276646.080000
   1138   1140     1   0.10969 276646.080000
   1141   1142     1   0.10969 276646.080000
   1141   1143     1   0.10969 276646.080000
   1144   1145     1   0.10969 276646.080000
   1144   1146     1   0.10969 276646.080000
   1147   1148     1   0.10969 276646.080000
   1147   1149     1   0.10969 276646.080000
   1150   1151     1   0.10969 276646.080000
   1150   1152     1   0.10969 276646.080000
   1153   1154     1   0.10969 276646.080000
   1153   1155     1   0.10969 276646.080000
   1156   1157     1   0.10969 276646.080000
   1156   1158     1   0.10969 276646.080000
   1161   1162     1   0.10969 276646.080000
   1161   1163     1   0.10969 276646.080000
   1164   1165     1   0.10969 276646.080000
   1164   1166     1   0.10969 276646.080000
   1167   1168     1   0.10969 276646.080000
   1167   1169     1   0.10969 276646.080000
   1170   1171     1   0.10969 276646.080000
   1170   1172     1   0.10969 276646.080000
   1173   1174     1   0.10969 276646.080000
   1173   1175     1   0.10969 276646.080000
   1176   1177     1   0.10969 276646.080000
   1176   1178     1   0.10969 276646.080000
   1179   1180     1   0.10969 276646.080000
   1179   1181     1   0.10969 276646.080000
   1182   1183     1   0.10969 276646.080000
   1182   1184     1   0.10969 276646.080000
   1185   1186     1   0.10969 276646.080000
   1185   1187     1   0.10969 276646.080000
   1190   1191     1   0.10969 276646.080000
   1190   1192     1   0.10969 276646.080000
   1193   1194     1   0.10969 276646.080000
   1193   1195     1   0.10969 276646.080000
   1196   1197     1   0.10969 276646.080000
   1196   1198     1   0.10969 276646.080000
   1199   1200     1   0.10969 276646.080000
   1199   1201     1   0.10969 276646.080000
   1202   1203     1   0.10969 276646.080000
   1202   1204     1   0.10969 276646.080000
   1205   1206     1   0.10969 276646.080000
   1205   1207     1   0.10969 276646.080000
   1208   1209     1   0.10969 276646.080000
   1208   1210     1   0.10969 276646.080000
   1211   1212     1   0.10969 276646.080000
   1211   1213     1   0.10969 276646.080000
   1214   1215     1   0.10969 276646.080000
   1214   1216     1   0.10969 276646.080000
   1219   1220     1   0.10969 276646.080000
   1219   1221     1   0.10969 276646.080000
   1222   1223     1   0.10969 276646.080000
   1222   1224     1   0.10969 276646.080000
   1225   1226     1   0.10969 276646.080000
   1225   1227     1   0.10969 276646.080000
   1228   1229     1   0.10969 276646.080000
   1228   1230     1   0.10969 276646.080000
   1231   1232     1   0.10969 276646.080000
   1231   1233     1   0.10969 276646.080000
   1234   1235     1   0.10969 276646.080000
   1234   1236     1   0.10969 276646.080000
   1237   1238     1   0.10969 276646.080000
   1237   1239     1   0.10969 276646.080000
   1240   1241     1   0.10969 276646.080000
   1240   1242     1   0.10969 276646.080000
   1243   1244     1   0.10969 276646.080000
   1243   1245     1   0.10969 276646.080000
   1248   1249     1   0.10969 276646.080000
   1248   1250     1   0.10969 276646.080000
   1251   1252     1   0.10969 276646.080000
   1251   1253     1   0.10969 276646.080000
   1254   1255     1   0.10969 276646.080000
   1254   1256     1   0.10969 276646.080000
   1257   1258     1   0.10969 276646.080000
   1257   1259     1   0.10969 276646.080000
   1260   1261     1   0.10969 276646.080000
   1260   1262     1   0.10969 276646.080000
   1263   1264     1   0.10969 276646.080000
   1263   1265     1   0.10969 276646.080000
   1266   1267     1   0.10969 276646.080000
   1266   1268     1   0.10969 276646.080000
   1269   1270     1   0.10969 276646.080000
   1269   1271     1   0.10969 276646.080000
   1272   1273     1   0.10969 276646.080000
   1272   1274     1   0.10969 276646.080000
   1277   1278     1   0.10969 276646.080000
   1277   1279     1   0.10969 276646.080000
   1280   1281     1   0.10969 276646.080000
   1280   1282     1   0.10969 276646.080000
   1283   1284     1   0.10969 276646.080000
   1283   1285     1   0.10969 276646.080000
   1286   1287     1   0.10969 276646.080000
   1286   1288     1   0.10969 276646.080000
   1289   1290     1   0.10969 276646.080000
   1289   1291     1   0.10969 276646.080000
   1292   1293     1   0.10969 276646.080000
   1292   1294     1   0.10969 276646.080000
   1295   1296     1   0.10969 276646.080000
   1295   1297     1   0.10969 276646.080000
   1298   1299     1   0.10969 276646.080000
   1298   1300     1   0.10969 276646.080000
   1301   1302     1   0.10969 276646.080000
   1301   1303     1   0.10969 276646.080000
   1306   1307     1   0.10969 276646.080000
   1306   1308     1   0.10969 276646.080000
   1309   1310     1   0.10969 276646.080000
   1309   1311     1   0.10969 276646.080000
   1312   1313     1   0.10969 276646.080000
   1312   1314     1   0.10969 276646.080000
   1315   1316     1   0.10969 276646.080000
   1315   1317     1   0.10969 276646.080000
   1318   1319     1   0.10969 276646.080000
   1318   1320     1   0.10969 276646.080000
   1321   1322     1   0.10969 276646.080000
   1321   1323     1   0.10969 276646.080000
   1324   1325     1   0.10969 276646.080000
   1324   1326     1   0.10969 276646.080000
   1327   1328     1   0.10969 276646.080000
   1327   1329     1   0.10969 276646.080000
   1330   1331     1   0.10969 276646.080000
   1330   1332     1   0.10969 276646.080000
   1335   1336     1   0.10969 276646.080000
   1335   1337     1   0.10969 276646.080000
   1338   1339     1   0.10969 276646.080000
   1338   1340     1   0.10969 276646.080000
   1341   1342     1   0.10969 276646.080000
   1341   1343     1   0.10969 276646.080000
   1344   1345     1   0.10969 276646.080000
   1344   1346     1   0.10969 276646.080000
   1347   1348     1   0.10969 276646.080000
   1347   1349     1   0.10969 276646.080000
   1350   1351     1   0.10969 276646.080000
   1350   1352     1   0.10969 276646.080000
   1353   1354     1   0.10969 276646.080000
   1353   1355     1   0.10969 276646.080000
   1356   1357     1   0.10969 276646.080000
   1356   1358     1   0.10969 276646.080000
   1359   1360     1   0.10969 276646.080000
   1359   1361     1   0.10969 276646.080000
   1364   1365     1   0.10969 276646.080000
   1364   1366     1   0.10969 276646.080000
   1367   1368     1   0.10969 276646.080000
   1367   1369     1   0.10969 276646.080000
   1370   1371     1   0.10969 276646.080000
   1370   1372     1   0.10969 276646.080000
   1373   1374     1   0.10969 276646.080000
   1373   1375     1   0.10969 276646.080000
   1376   1377     1   0.10969 276646.080000
   1376   1378     1   0.10969 276646.080000
   1379   1380     1   0.10969 276646.080000
   1379   1381     1   0.10969 276646.080000
   1382   1383     1   0.10969 276646.080000
   1382   1384     1   0.10969 276646.080000
   1385   1386     1   0.10969 276646.080000
   1385   1387     1   0.10969 276646.080000
   1388   1389     1   0.10969 276646.080000
   1388   1390     1   0.10969 276646.080000
   1393   1394     1   0.10969 276646.080000
   1393   1395     1   0.10969 276646.080000
   1396   1397     1   0.10969 276646.080000
   1396   1398     1   0.10969 276646.080000
   1399   1400     1   0.10969 276646.080000
   1399   1401     1   0.10969 276646.080000
   1402   1403     1   0.10969 276646.080000
   1402   1404     1   0.10969 276646.080000
   1405   1406     1   0.10969 276646.080000
   1405   1407     1   0.10969 276646.080000
   1408   1409     1   0.10969 276646.080000
   1408   1410     1   0.10969 276646.080000
   1411   1412     1   0.10969 276646.080000
   1411   1413     1   0.10969 276646.080000
   1414   1415     1   0.10969 276646.080000
   1414   1416     1   0.10969 276646.080000
   1417   1418     1   0.10969 276646.080000
   1417   1419     1   0.10969 276646.080000
   1422   1423     1   0.10969 276646.080000
   1422   1424     1   0.10969 276646.080000
   1425   1426     1   0.10969 276646.080000
   1425   1427     1   0.10969 276646.080000
   1428   1429     1   0.10969 276646.080000
   1428   1430     1   0.10969 276646.080000
   1431   1432     1   0.10969 276646.080000
   1431   1433     1   0.10969 276646.080000
   1434   1435     1   0.10969 276646.080000
   1434   1436     1   0.10969 276646.080000
   1437   1438     1   0.10969 276646.080000
   1437   1439     1   0.10969 276646.080000
   1440   1441     1   0.10969 276646.080000
   1440   1442     1   0.10969 276646.080000
   1443   1444     1   0.10969 276646.080000
   1443   1445     1   0.10969 276646.080000
   1446   1447     1   0.10969 276646.080000
   1446   1448     1   0.10969 276646.080000
   1451   1452     1   0.10969 276646.080000
   1451   1453     1   0.10969 276646.080000
   1454   1455     1   0.10969 276646.080000
   1454   1456     1   0.10969 276646.080000
   1457   1458     1   0.10969 276646.080000
   1457   1459     1   0.10969 276646.080000
   1460   1461     1   0.10969 276646.080000
   1460   1462     1   0.10969 276646.080000
   1463   1464     1   0.10969 276646.080000
   1463   1465     1   0.10969 276646.080000
   1466   1467     1   0.10969 276646.080000
   1466   1468     1   0.10969 276646.080000
   1469   1470     1   0.10969 276646.080000
   1469   1471     1   0.10969 276646.080000
   1472   1473     1   0.10969 276646.080000
   1472   1474     1   0.10969 276646.080000
   1475   1476     1   0.10969 276646.080000
   1475   1477     1   0.10969 276646.080000
   1480   1481     1   0.10969 276646.080000
   1480   1482     1   0.10969 276646.080000
   1483   1484     1   0.10969 276646.080000
   1483   1485     1   0.10969 276646.080000
   1486   1487     1   0.10969 276646.080000
   1486   1488     1   0.10969 276646.080000
   1489   1490     1   0.10969 276646.080000
   1489   1491     1   0.10969 276646.080000
   1492   1493     1   0.10969 276646.080000
   1492   1494     1   0.10969 276646.080000
   1495   1496     1   0.10969 276646.080000
   1495   1497     1   0.10969 276646.080000
   1498   1499     1   0.10969 276646.080000
   1498   1500     1   0.10969 276646.080000
   1501   1502     1   0.10969 276646.080000
   1501   1503     1   0.10969 276646.080000
   1504   1505     1   0.10969 276646.080000
   1504   1506     1   0.10969 276646.080000
   1509   1510     1   0.10969 276646.080000
   1509   1511     1   0.10969 276646.080000
   1512   1513     1   0.10969 276646.080000
   1512   1514     1   0.10969 276646.080000
   1515   1516     1   0.10969 276646.080000
   1515   1517     1   0.10969 276646.080000
   1518   1519     1   0.10969 276646.080000
   1518   1520     1   0.10969 276646.080000
   1521   1522     1   0.10969 276646.080000
   1521   1523     1   0.10969 276646.080000
   1524   1525     1   0.10969 276646.080000
   1524   1526     1   0.10969 276646.080000
   1527   1528     1   0.10969 276646.080000
   1527   1529     1   0.10969 276646.080000
   1530   1531     1   0.10969 276646.080000
   1530   1532     1   0.10969 276646.080000
   1533   1534     1   0.10969 276646.080000
   1533   1535     1   0.10969 276646.080000
   1538   1539     1   0.10969 276646.080000
   1538   1540     1   0.10969 276646.080000
   1541   1542     1   0.10969 276646.080000
   1541   1543     1   0.10969 276646.080000
   1544   1545     1   0.10969 276646.080000
   1544   1546     1   0.10969 276646.080000
   1547   1548     1   0.10969 276646.080000
   1547   1549     1   0.10969 276646.080000
   1550   1551     1   0.10969 276646.080000
   1550   1552     1   0.10969 276646.080000
   1553   1554     1   0.10969 276646.080000
   1553   1555     1   0.10969 276646.080000
   1556   1557     1   0.10969 276646.080000
   1556   1558     1   0.10969 276646.080000
   1559   1560     1   0.10969 276646.080000
   1559   1561     1   0.10969 276646.080000
   1562   1563     1   0.10969 276646.080000
   1562   1564     1   0.10969 276646.080000
   1567   1568     1   0.10969 276646.080000
   1567   1569     1   0.10969 276646.080000
   1570   1571     1   0.10969 276646.080000
   1570   1572     1   0.10969 276646.080000
   1573   1574     1   0.10969 276646.080000
   1573   1575     1   0.10969 276646.080000
   1576   1577     1   0.10969 276646.080000
   1576   1578     1   0.10969 276646.080000
   1579   1580     1   0.10969 276646.080000
   1579   1581     1   0.10969 276646.080000
   1582   1583     1   0.10969 276646.080000
   1582   1584     1   0.10969 276646.080000
   1585   1586     1   0.10969 276646.080000
   1585   1587     1   0.10969 276646.080000
   1588   1589     1   0.10969 276646.080000
   1588   1590     1   0.10969 276646.080000
   1591   1592     1   0.10969 276646.080000
   1591   1593     1   0.10969 276646.080000
   1596   1597     1   0.10969 276646.080000
   1596   1598     1   0.10969 276646.080000
   1599   1600     1   0.10969 276646.080000
   1599   1601     1   0.10969 276646.080000
   1602   1603     1   0.10969 276646.080000
   1602   1604     1   0.10969 276646.080000
   1605   1606     1   0.10969 276646.080000
   1605   1607     1   0.10969 276646.080000
   1608   1609     1   0.10969 276646.080000
   1608   1610     1   0.10969 276646.080000
   1611   1612     1   0.10969 276646.080000
   1611   1613     1   0.10969 276646.080000
   1614   1615     1   0.10969 276646.080000
   1614   1616     1   0.10969 276646.080000
   1617   1618     1   0.10969 276646.080000
   1617   1619     1   0.10969 276646.080000
   1620   1621     1   0.10969 276646.080000
   1620   1622     1   0.10969 276646.080000
   1625   1626     1   0.10969 276646.080000
   1625   1627     1   0.10969 276646.080000
   1628   1629     1   0.10969 276646.080000
   1628   1630     1   0.10969 276646.080000
   1631   1632     1   0.10969 276646.080000
   1631   1633     1   0.10969 276646.080000
   1634   1635     1   0.10969 276646.080000
   1634   1636     1   0.10969 276646.080000
   1637   1638     1   0.10969 276646.080000
   1637   1639     1   0.10969 276646.080000
   1640   1641     1   0.10969 276646.080000
   1640   1642     1   0.10969 276646.080000
   1643   1644     1   0.10969 276646.080000
   1643   1645     1   0.10969 276646.080000
   1646   1647     1   0.10969 276646.080000
   1646   1648     1   0.10969 276646.080000
   1649   1650     1   0.10969 276646.080000
   1649   1651     1   0.10969 276646.080000
   1654   1655     1   0.10969 276646.080000
   1654   1656     1   0.10969 276646.080000
   1657   1658     1   0.10969 276646.080000
   1657   1659     1   0.10969 276646.080000
   1660   1661     1   0.10969 276646.080000
   1660   1662     1   0.10969 276646.080000
   1663   1664     1   0.10969 276646.080000
   1663   1665     1   0.10969 276646.080000
   1666   1667     1   0.10969 276646.080000
   1666   1668     1   0.10969 276646.080000
   1669   1670     1   0.10969 276646.080000
   1669   1671     1   0.10969 276646.080000
   1672   1673     1   0.10969 276646.080000
   1672   1674     1   0.10969 276646.080000
   1675   1676     1   0.10969 276646.080000
   1675   1677     1   0.10969 276646.080000
   1678   1679     1   0.10969 276646.080000
   1678   1680     1   0.10969 276646.080000
   1683   1684     1   0.10969 276646.080000
   1683   1685     1   0.10969 276646.080000
   1686   1687     1   0.10969 276646.080000
   1686   1688     1   0.10969 276646.080000
   1689   1690     1   0.10969 276646.080000
   1689   1691     1   0.10969 276646.080000
   1692   1693     1   0.10969 276646.080000
   1692   1694     1   0.10969 276646.080000
   1695   1696     1   0.10969 276646.080000
   1695   1697     1   0.10969 276646.080000
   1698   1699     1   0.10969 276646.080000
   1698   1700     1   0.10969 276646.080000
   1701   1702     1   0.10969 276646.080000
   1701   1703     1   0.10969 276646.080000
   1704   1705     1   0.10969 276646.080000
   1704   1706     1   0.10969 276646.080000
   1707   1708     1   0.10969 276646.080000
   1707   1709     1   0.10969 276646.080000
   1712   1713     1   0.10969 276646.080000
   1712   1714     1   0.10969 276646.080000
   1715   1716     1   0.10969 276646.080000
   1715   1717     1   0.10969 276646.080000
   1718   1719     1   0.10969 276646.080000
   1718   1720     1   0.10969 276646.080000
   1721   1722     1   0.10969 276646.080000
   1721   1723     1   0.10969 276646.080000
   1724   1725     1   0.10969 276646.080000
   1724   1726     1   0.10969 276646.080000
   1727   1728     1   0.10969 276646.080000
   1727   1729     1   0.10969 276646.080000
   1730   1731     1   0.10969 276646.080000
   1730   1732     1   0.10969 276646.080000
   1733   1734     1   0.10969 276646.080000
   1733   1735     1   0.10969 276646.080000
   1736   1737     1   0.10969 276646.080000
   1736   1738     1   0.10969 276646.080000
   1741   1742     1   0.10969 276646.080000
   1741   1743     1   0.10969 276646.080000
   1744   1745     1   0.10969 276646.080000
   1744   1746     1   0.10969 276646.080000
   1747   1748     1   0.10969 276646.080000
   1747   1749     1   0.10969 276646.080000
   1750   1751     1   0.10969 276646.080000
   1750   1752     1   0.10969 276646.080000
   1753   1754     1   0.10969 276646.080000
   1753   1755     1   0.10969 276646.080000
   1756   1757     1   0.10969 276646.080000
   1756   1758     1   0.10969 276646.080000
   1759   1760     1   0.10969 276646.080000
   1759   1761     1   0.10969 276646.080000
   1762   1763     1   0.10969 276646.080000
   1762   1764     1   0.10969 276646.080000
   1765   1766     1   0.10969 276646.080000
   1765   1767     1   0.10969 276646.080000
   1770   1771     1   0.10969 276646.080000
   1770   1772     1   0.10969 276646.080000
   1773   1774     1   0.10969 276646.080000
   1773   1775     1   0.10969 276646.080000
   1776   1777     1   0.10969 276646.080000
   1776   1778     1   0.10969 276646.080000
   1779   1780     1   0.10969 276646.080000
   1779   1781     1   0.10969 276646.080000
   1782   1783     1   0.10969 276646.080000
   1782   1784     1   0.10969 276646.080000
   1785   1786     1   0.10969 276646.080000
   1785   1787     1   0.10969 276646.080000
   1788   1789     1   0.10969 276646.080000
   1788   1790     1   0.10969 276646.080000
   1791   1792     1   0.10969 276646.080000
   1791   1793     1   0.10969 276646.080000
   1794   1795     1   0.10969 276646.080000
   1794   1796     1   0.10969 276646.080000
   1799   1800     1   0.10969 276646.080000
   1799   1801     1   0.10969 276646.080000
   1802   1803     1   0.10969 276646.080000
   1802   1804     1   0.10969 276646.080000
   1805   1806     1   0.10969 276646.080000
   1805   1807     1   0.10969 276646.080000
   1808   1809     1   0.10969 276646.080000
   1808   1810     1   0.10969 276646.080000
   1811   1812     1   0.10969 276646.080000
   1811   1813     1   0.10969 276646.080000
   1814   1815     1   0.10969 276646.080000
   1814   1816     1   0.10969 276646.080000
   1817   1818     1   0.10969 276646.080000
   1817   1819     1   0.10969 276646.080000
   1820   1821     1   0.10969 276646.080000
   1820   1822     1   0.10969 276646.080000
   1823   1824     1   0.10969 276646.080000
   1823   1825     1   0.10969 276646.080000
   1828   1829     1   0.10969 276646.080000
   1828   1830     1   0.10969 276646.080000
   1831   1832     1   0.10969 276646.080000
   1831   1833     1   0.10969 276646.080000
   1834   1835     1   0.10969 276646.080000
   1834   1836     1   0.10969 276646.080000
   1837   1838     1   0.10969 276646.080000
   1837   1839     1   0.10969 276646.080000
   1840   1841     1   0.10969 276646.080000
   1840   1842     1   0.10969 276646.080000
   1843   1844     1   0.10969 276646.080000
   1843   1845     1   0.10969 276646.080000
   1846   1847     1   0.10969 276646.080000
   1846   1848     1   0.10969 276646.080000
   1849   1850     1   0.10969 276646.080000
   1849   1851     1   0.10969 276646.080000
   1852   1853     1   0.10969 276646.080000
   1852   1854     1   0.10969 276646.080000
   1857   1858     1   0.10969 276646.080000
   1857   1859     1   0.10969 276646.080000
   1860   1861     1   0.10969 276646.080000
   1860   1862     1   0.10969 276646.080000
   1863   1864     1   0.10969 276646.080000
   1863   1865     1   0.10969 276646.080000
   1866   1867     1   0.10969 276646.080000
   1866   1868     1   0.10969 276646.080000
   1869   1870     1   0.10969 276646.080000
   1869   1871     1   0.10969 276646.080000
   1872   1873     1   0.10969 276646.080000
   1872   1874     1   0.10969 276646.080000
   1875   1876     1   0.10969 276646.080000
   1875   1877     1   0.10969 276646.080000
   1878   1879     1   0.10969 276646.080000
   1878   1880     1   0.10969 276646.080000
   1881   1882     1   0.10969 276646.080000
   1881   1883     1   0.10969 276646.080000
   1886   1887     1   0.10969 276646.080000
   1886   1888     1   0.10969 276646.080000
   1889   1890     1   0.10969 276646.080000
   1889   1891     1   0.10969 276646.080000
   1892   1893     1   0.10969 276646.080000
   1892   1894     1   0.10969 276646.080000
   1895   1896     1   0.10969 276646.080000
   1895   1897     1   0.10969 276646.080000
   1898   1899     1   0.10969 276646.080000
   1898   1900     1   0.10969 276646.080000
   1901   1902     1   0.10969 276646.080000
   1901   1903     1   0.10969 276646.080000
   1904   1905     1   0.10969 276646.080000
   1904   1906     1   0.10969 276646.080000
   1907   1908     1   0.10969 276646.080000
   1907   1909     1   0.10969 276646.080000
   1910   1911     1   0.10969 276646.080000
   1910   1912     1   0.10969 276646.080000
   1915   1916     1   0.10969 276646.080000
   1915   1917     1   0.10969 276646.080000
   1918   1919     1   0.10969 276646.080000
   1918   1920     1   0.10969 276646.080000
   1921   1922     1   0.10969 276646.080000
   1921   1923     1   0.10969 276646.080000
   1924   1925     1   0.10969 276646.080000
   1924   1926     1   0.10969 276646.080000
   1927   1928     1   0.10969 276646.080000
   1927   1929     1   0.10969 276646.080000
   1930   1931     1   0.10969 276646.080000
   1930   1932     1   0.10969 276646.080000
   1933   1934     1   0.10969 276646.080000
   1933   1935     1   0.10969 276646.080000
   1936   1937     1   0.10969 276646.080000
   1936   1938     1   0.10969 276646.080000
   1939   1940     1   0.10969 276646.080000
   1939   1941     1   0.10969 276646.080000
   1944   1945     1   0.10969 276646.080000
   1944   1946     1   0.10969 276646.080000
   1947   1948     1   0.10969 276646.080000
   1947   1949     1   0.10969 276646.080000
   1950   1951     1   0.10969 276646.080000
   1950   1952     1   0.10969 276646.080000
   1953   1954     1   0.10969 276646.080000
   1953   1955     1   0.10969 276646.080000
   1956   1957     1   0.10969 276646.080000
   1956   1958     1   0.10969 276646.080000
   1959   1960     1   0.10969 276646.080000
   1959   1961     1   0.10969 276646.080000
   1962   1963     1   0.10969 276646.080000
   1962   1964     1   0.10969 276646.080000
   1965   1966     1   0.10969 276646.080000
   1965   1967     1   0.10969 276646.080000
   1968   1969     1   0.10969 276646.080000
   1968   1970     1   0.10969 276646.080000
   1973   1974     1   0.10969 276646.080000
   1973   1975     1   0.10969 276646.080000
   1976   1977     1   0.10969 276646.080000
   1976   1978     1   0.10969 276646.080000
   1979   1980     1   0.10969 276646.080000
   1979   1981     1   0.10969 276646.080000
   1982   1983     1   0.10969 276646.080000
   1982   1984     1   0.10969 276646.080000
   1985   1986     1   0.10969 276646.080000
   1985   1987     1   0.10969 276646.080000
   1988   1989     1   0.10969 276646.080000
   1988   1990     1   0.10969 276646.080000
   1991   1992     1   0.10969 276646.080000
   1991   1993     1   0.10969 276646.080000
   1994   1995     1   0.10969 276646.080000
   1994   1996     1   0.10969 276646.080000
   1997   1998     1   0.10969 276646.080000
   1997   1999     1   0.10969 276646.080000
   2002   2003     1   0.10969 276646.080000
   2002   2004     1   0.10969 276646.080000
   2005   2006     1   0.10969 276646.080000
   2005   2007     1   0.10969 276646.080000
   2008   2009     1   0.10969 276646.080000
   2008   2010     1   0.10969 276646.080000
   2011   2012     1   0.10969 276646.080000
   2011   2013     1   0.10969 276646.080000
   2014   2015     1   0.10969 276646.080000
   2014   2016     1   0.10969 276646.080000
   2017   2018     1   0.10969 276646.080000
   2017   2019     1   0.10969 276646.080000
   2020   2021     1   0.10969 276646.080000
   2020   2022     1   0.10969 276646.080000
   2023   2024     1   0.10969 276646.080000
   2023   2025     1   0.10969 276646.080000
   2026   2027     1   0.10969 276646.080000
   2026   2028     1   0.10969 276646.080000
   2031   2032     1   0.10969 276646.080000
   2031   2033     1   0.10969 276646.080000
   2034   2035     1   0.10969 276646.080000
   2034   2036     1   0.10969 276646.080000
   2037   2038     1   0.10969 276646.080000
   2037   2039     1   0.10969 276646.080000
   2040   2041     1   0.10969 276646.080000
   2040   2042     1   0.10969 276646.080000
   2043   2044     1   0.10969 276646.080000
   2043   2045     1   0.10969 276646.080000
   2046   2047     1   0.10969 276646.080000
   2046   2048     1   0.10969 276646.080000
   2049   2050     1   0.10969 276646.080000
   2049   2051     1   0.10969 276646.080000
   2052   2053     1   0.10969 276646.080000
   2052   2054     1   0.10969 276646.080000
   2055   2056     1   0.10969 276646.080000
   2055   2057     1   0.10969 276646.080000
   2060   2061     1   0.10969 276646.080000
   2060   2062     1   0.10969 276646.080000
   2063   2064     1   0.10969 276646.080000
   2063   2065     1   0.10969 276646.080000
   2066   2067     1   0.10969 276646.080000
   2066   2068     1   0.10969 276646.080000
   2069   2070     1   0.10969 276646.080000
   2069   2071     1   0.10969 276646.080000
   2072   2073     1   0.10969 276646.080000
   2072   2074     1   0.10969 276646.080000
   2075   2076     1   0.10969 276646.080000
   2075   2077     1   0.10969 276646.080000
   2078   2079     1   0.10969 276646.080000
   2078   2080     1   0.10969 276646.080000
   2081   2082     1   0.10969 276646.080000
   2081   2083     1   0.10969 276646.080000
   2084   2085     1   0.10969 276646.080000
   2084   2086     1   0.10969 276646.080000
   2089   2090     1   0.10969 276646.080000
   2089   2091     1   0.10969 276646.080000
   2092   2093     1   0.10969 276646.080000
   2092   2094     1   0.10969 276646.080000
   2095   2096     1   0.10969 276646.080000
   2095   2097     1   0.10969 276646.080000
   2098   2099     1   0.10969 276646.080000
   2098   2100     1   0.10969 276646.080000
   2101   2102     1   0.10969 276646.080000
   2101   2103     1   0.10969 276646.080000
   2104   2105     1   0.10969 276646.080000
   2104   2106     1   0.10969 276646.080000
   2107   2108     1   0.10969 276646.080000
   2107   2109     1   0.10969 276646.080000
   2110   2111     1   0.10969 276646.080000
   2110   2112     1   0.10969 276646.080000
   2113   2114     1   0.10969 276646.080000
   2113   2115     1   0.10969 276646.080000
   2118   2119     1   0.10969 276646.080000
   2118   2120     1   0.10969 276646.080000
   2121   2122     1   0.10969 276646.080000
   2121   2123     1   0.10969 276646.080000
   2124   2125     1   0.10969 276646.080000
   2124   2126     1   0.10969 276646.080000
   2127   2128     1   0.10969 276646.080000
   2127   2129     1   0.10969 276646.080000
   2130   2131     1   0.10969 276646.080000
   2130   2132     1   0.10969 276646.080000
   2133   2134     1   0.10969 276646.080000
   2133   2135     1   0.10969 276646.080000
   2136   2137     1   0.10969 276646.080000
   2136   2138     1   0.10969 276646.080000
   2139   2140     1   0.10969 276646.080000
   2139   2141     1   0.10969 276646.080000
   2142   2143     1   0.10969 276646.080000
   2142   2144     1   0.10969 276646.080000
   2147   2148     1   0.10969 276646.080000
   2147   2149     1   0.10969 276646.080000
   2150   2151     1   0.10969 276646.080000
   2150   2152     1   0.10969 276646.080000
   2153   2154     1   0.10969 276646.080000
   2153   2155     1   0.10969 276646.080000
   2156   2157     1   0.10969 276646.080000
   2156   2158     1   0.10969 276646.080000
   2159   2160     1   0.10969 276646.080000
   2159   2161     1   0.10969 276646.080000
   2162   2163     1   0.10969 276646.080000
   2162   2164     1   0.10969 276646.080000
   2165   2166     1   0.10969 276646.080000
   2165   2167     1   0.10969 276646.080000
   2168   2169     1   0.10969 276646.080000
   2168   2170     1   0.10969 276646.080000
   2171   2172     1   0.10969 276646.080000
   2171   2173     1   0.10969 276646.080000
   2176   2177     1   0.10969 276646.080000
   2176   2178     1   0.10969 276646.080000
   2179   2180     1   0.10969 276646.080000
   2179   2181     1   0.10969 276646.080000
   2182   2183     1   0.10969 276646.080000
   2182   2184     1   0.10969 276646.080000
   2185   2186     1   0.10969 276646.080000
   2185   2187     1   0.10969 276646.080000
   2188   2189     1   0.10969 276646.080000
   2188   2190     1   0.10969 276646.080000
   2191   2192     1   0.10969 276646.080000
   2191   2193     1   0.10969 276646.080000
   2194   2195     1   0.10969 276646.080000
   2194   2196     1   0.10969 276646.080000
   2197   2198     1   0.10969 276646.080000
   2197   2199     1   0.10969 276646.080000
   2200   2201     1   0.10969 276646.080000
   2200   2202     1   0.10969 276646.080000
   2205   2206     1   0.10969 276646.080000
   2205   2207     1   0.10969 276646.080000
   2208   2209     1   0.10969 276646.080000
   2208   2210     1   0.10969 276646.080000
   2211   2212     1   0.10969 276646.080000
   2211   2213     1   0.10969 276646.080000
   2214   2215     1   0.10969 276646.080000
   2214   2216     1   0.10969 276646.080000
   2217   2218     1   0.10969 276646.080000
   2217   2219     1   0.10969 276646.080000
   2220   2221     1   0.10969 276646.080000
   2220   2222     1   0.10969 276646.080000
   2223   2224     1   0.10969 276646.080000
   2223   2225     1   0.10969 276646.080000
   2226   2227     1   0.10969 276646.080000
   2226   2228     1   0.10969 276646.080000
   2229   2230     1   0.10969 276646.080000
   2229   2231     1   0.10969 276646.080000
   2234   2235     1   0.10969 276646.080000
   2234   2236     1   0.10969 276646.080000
   2237   2238     1   0.10969 276646.080000
   2237   2239     1   0.10969 276646.080000
   2240   2241     1   0.10969 276646.080000
   2240   2242     1   0.10969 276646.080000
   2243   2244     1   0.10969 276646.080000
   2243   2245     1   0.10969 276646.080000
   2246   2247     1   0.10969 276646.080000
   2246   2248     1   0.10969 276646.080000
   2249   2250     1   0.10969 276646.080000
   2249   2251     1   0.10969 276646.080000
   2252   2253     1   0.10969 276646.080000
   2252   2254     1   0.10969 276646.080000
   2255   2256     1   0.10969 276646.080000
   2255   2257     1   0.10969 276646.080000
   2258   2259     1   0.10969 276646.080000
   2258   2260     1   0.10969 276646.080000
   2263   2264     1   0.10969 276646.080000
   2263   2265     1   0.10969 276646.080000
   2266   2267     1   0.10969 276646.080000
   2266   2268     1   0.10969 276646.080000
   2269   2270     1   0.10969 276646.080000
   2269   2271     1   0.10969 276646.080000
   2272   2273     1   0.10969 276646.080000
   2272   2274     1   0.10969 276646.080000
   2275   2276     1   0.10969 276646.080000
   2275   2277     1   0.10969 276646.080000
   2278   2279     1   0.10969 276646.080000
   2278   2280     1   0.10969 276646.080000
   2281   2282     1   0.10969 276646.080000
   2281   2283     1   0.10969 276646.080000
   2284   2285     1   0.10969 276646.080000
   2284   2286     1   0.10969 276646.080000
   2287   2288     1   0.10969 276646.080000
   2287   2289     1   0.10969 276646.080000
   2292   2293     1   0.10969 276646.080000
   2292   2294     1   0.10969 276646.080000
   2295   2296     1   0.10969 276646.080000
   2295   2297     1   0.10969 276646.080000
   2298   2299     1   0.10969 276646.080000
   2298   2300     1   0.10969 276646.080000
   2301   2302     1   0.10969 276646.080000
   2301   2303     1   0.10969 276646.080000
   2304   2305     1   0.10969 276646.080000
   2304   2306     1   0.10969 276646.080000
   2307   2308     1   0.10969 276646.080000
   2307   2309     1   0.10969 276646.080000
   2310   2311     1   0.10969 276646.080000
   2310   2312     1   0.10969 276646.080000
   2313   2314     1   0.10969 276646.080000
   2313   2315     1   0.10969 276646.080000
   2316   2317     1   0.10969 276646.080000
   2316   2318     1   0.10969 276646.080000
   2321   2322     1   0.10969 276646.080000
   2321   2323     1   0.10969 276646.080000
   2324   2325     1   0.10969 276646.080000
   2324   2326     1   0.10969 276646.080000
   2327   2328     1   0.10969 276646.080000
   2327   2329     1   0.10969 276646.080000
   2330   2331     1   0.10969 276646.080000
   2330   2332     1   0.10969 276646.080000
   2333   2334     1   0.10969 276646.080000
   2333   2335     1   0.10969 276646.080000
   2336   2337     1   0.10969 276646.080000
   2336   2338     1   0.10969 276646.080000
   2339   2340     1   0.10969 276646.080000
   2339   2341     1   0.10969 276646.080000
   2342   2343     1   0.10969 276646.080000
   2342   2344     1   0.10969 276646.080000
   2345   2346     1   0.10969 276646.080000
   2345   2347     1   0.10969 276646.080000
   2350   2351     1   0.10969 276646.080000
   2350   2352     1   0.10969 276646.080000
   2353   2354     1   0.10969 276646.080000
   2353   2355     1   0.10969 276646.080000
   2356   2357     1   0.10969 276646.080000
   2356   2358     1   0.10969 276646.080000
   2359   2360     1   0.10969 276646.080000
   2359   2361     1   0.10969 276646.080000
   2362   2363     1   0.10969 276646.080000
   2362   2364     1   0.10969 276646.080000
   2365   2366     1   0.10969 276646.080000
   2365   2367     1   0.10969 276646.080000
   2368   2369     1   0.10969 276646.080000
   2368   2370     1   0.10969 276646.080000
   2371   2372     1   0.10969 276646.080000
   2371   2373     1   0.10969 276646.080000
   2374   2375     1   0.10969 276646.080000
   2374   2376     1   0.10969 276646.080000
   2379   2380     1   0.10969 276646.080000
   2379   2381     1   0.10969 276646.080000
   2382   2383     1   0.10969 276646.080000
   2382   2384     1   0.10969 276646.080000
   2385   2386     1   0.10969 276646.080000
   2385   2387     1   0.10969 276646.080000
   2388   2389     1   0.10969 276646.080000
   2388   2390     1   0.10969 276646.080000
   2391   2392     1   0.10969 276646.080000
   2391   2393     1   0.10969 276646.080000
   2394   2395     1   0.10969 276646.080000
   2394   2396     1   0.10969 276646.080000
   2397   2398     1   0.10969 276646.080000
   2397   2399     1   0.10969 276646.080000
   2400   2401     1   0.10969 276646.080000
   2400   2402     1   0.10969 276646.080000
   2403   2404     1   0.10969 276646.080000
   2403   2405     1   0.10969 276646.080000
   2408   2409     1   0.10969 276646.080000
   2408   2410     1   0.10969 276646.080000
   2411   2412     1   0.10969 276646.080000
   2411   2413     1   0.10969 276646.080000
   2414   2415     1   0.10969 276646.080000
   2414   2416     1   0.10969 276646.080000
   2417   2418     1   0.10969 276646.080000
   2417   2419     1   0.10969 276646.080000
   2420   2421     1   0.10969 276646.080000
   2420   2422     1   0.10969 276646.080000
   2423   2424     1   0.10969 276646.080000
   2423   2425     1   0.10969 276646.080000
   2426   2427     1   0.10969 276646.080000
   2426   2428     1   0.10969 276646.080000
   2429   2430     1   0.10969 276646.080000
   2429   2431     1   0.10969 276646.080000
   2432   2433     1   0.10969 276646.080000
   2432   2434     1   0.10969 276646.080000
   2437   2438     1   0.10969 276646.080000
   2437   2439     1   0.10969 276646.080000
   2440   2441     1   0.10969 276646.080000
   2440   2442     1   0.10969 276646.080000
   2443   2444     1   0.10969 276646.080000
   2443   2445     1   0.10969 276646.080000
   2446   2447     1   0.10969 276646.080000
   2446   2448     1   0.10969 276646.080000
   2449   2450     1   0.10969 276646.080000
   2449   2451     1   0.10969 276646.080000
   2452   2453     1   0.10969 276646.080000
   2452   2454     1   0.10969 276646.080000
   2455   2456     1   0.10969 276646.080000
   2455   2457     1   0.10969 276646.080000
   2458   2459     1   0.10969 276646.080000
   2458   2460     1   0.10969 276646.080000
   2461   2462     1   0.10969 276646.080000
   2461   2463     1   0.10969 276646.080000
   2466   2467     1   0.10969 276646.080000
   2466   2468     1   0.10969 276646.080000
   2469   2470     1   0.10969 276646.080000
   2469   2471     1   0.10969 276646.080000
   2472   2473     1   0.10969 276646.080000
   2472   2474     1   0.10969 276646.080000
   2475   2476     1   0.10969 276646.080000
   2475   2477     1   0.10969 276646.080000
   2478   2479     1   0.10969 276646.080000
   2478   2480     1   0.10969 276646.080000
   2481   2482     1   0.10969 276646.080000
   2481   2483     1   0.10969 276646.080000
   2484   2485     1   0.10969 276646.080000
   2484   2486     1   0.10969 276646.080000
   2487   2488     1   0.10969 276646.080000
   2487   2489     1   0.10969 276646.080000
   2490   2491     1   0.10969 276646.080000
   2490   2492     1   0.10969 276646.080000
   2495   2496     1   0.10969 276646.080000
   2495   2497     1   0.10969 276646.080000
   2498   2499     1   0.10969 276646.080000
   2498   2500     1   0.10969 276646.080000
   2501   2502     1   0.10969 276646.080000
   2501   2503     1   0.10969 276646.080000
   2504   2505     1   0.10969 276646.080000
   2504   2506     1   0.10969 276646.080000
   2507   2508     1   0.10969 276646.080000
   2507   2509     1   0.10969 276646.080000
   2510   2511     1   0.10969 276646.080000
   2510   2512     1   0.10969 276646.080000
   2513   2514     1   0.10969 276646.080000
   2513   2515     1   0.10969 276646.080000
   2516   2517     1   0.10969 276646.080000
   2516   2518     1   0.10969 276646.080000
   2519   2520     1   0.10969 276646.080000
   2519   2521     1   0.10969 276646.080000
   2524   2525     1   0.10969 276646.080000
   2524   2526     1   0.10969 276646.080000
   2527   2528     1   0.10969 276646.080000
   2527   2529     1   0.10969 276646.080000
   2530   2531     1   0.10969 276646.080000
   2530   2532     1   0.10969 276646.080000
   2533   2534     1   0.10969 276646.080000
   2533   2535     1   0.10969 276646.080000
   2536   2537     1   0.10969 276646.080000
   2536   2538     1   0.10969 276646.080000
   2539   2540     1   0.10969 276646.080000
   2539   2541     1   0.10969 276646.080000
   2542   2543     1   0.10969 276646.080000
   2542   2544     1   0.10969 276646.080000
   2545   2546     1   0.10969 276646.080000
   2545   2547     1   0.10969 276646.080000
   2548   2549     1   0.10969 276646.080000
   2548   2550     1   0.10969 276646.080000
   2553   2554     1   0.10969 276646.080000
   2553   2555     1   0.10969 276646.080000
   2556   2557     1   0.10969 276646.080000
   2556   2558     1   0.10969 276646.080000
   2559   2560     1   0.10969 276646.080000
   2559   2561     1   0.10969 276646.080000
   2562   2563     1   0.10969 276646.080000
   2562   2564     1   0.10969 276646.080000
   2565   2566     1   0.10969 276646.080000
   2565   2567     1   0.10969 276646.080000
   2568   2569     1   0.10969 276646.080000
   2568   2570     1   0.10969 276646.080000
   2571   2572     1   0.10969 276646.080000
   2571   2573     1   0.10969 276646.080000
   2574   2575     1   0.10969 276646.080000
   2574   2576     1   0.10969 276646.080000
   2577   2578     1   0.10969 276646.080000
   2577   2579     1   0.10969 276646.080000
   2582   2583     1   0.10969 276646.080000
   2582   2584     1   0.10969 276646.080000
   2585   2586     1   0.10969 276646.080000
   2585   2587     1   0.10969 276646.080000
   2588   2589     1   0.10969 276646.080000
   2588   2590     1   0.10969 276646.080000
   2591   2592     1   0.10969 276646.080000
   2591   2593     1   0.10969 276646.080000
   2594   2595     1   0.10969 276646.080000
   2594   2596     1   0.10969 276646.080000
   2597   2598     1   0.10969 276646.080000
   2597   2599     1   0.10969 276646.080000
   2600   2601     1   0.10969 276646.080000
   2600   2602     1   0.10969 276646.080000
   2603   2604     1   0.10969 276646.080000
   2603   2605     1   0.10969 276646.080000
   2606   2607     1   0.10969 276646.080000
   2606   2608     1   0.10969 276646.080000
   2611   2612     1   0.10969 276646.080000
   2611   2613     1   0.10969 276646.080000
   2614   2615     1   0.10969 276646.080000
   2614   2616     1   0.10969 276646.080000
   2617   2618     1   0.10969 276646.080000
   2617   2619     1   0.10969 276646.080000
   2620   2621     1   0.10969 276646.080000
   2620   2622     1   0.10969 276646.080000
   2623   2624     1   0.10969 276646.080000
   2623   2625     1   0.10969 276646.080000
   2626   2627     1   0.10969 276646.080000
   2626   2628     1   0.10969 276646.080000
   2629   2630     1   0.10969 276646.080000
   2629   2631     1   0.10969 276646.080000
   2632   2633     1   0.10969 276646.080000
   2632   2634     1   0.10969 276646.080000
   2635   2636     1   0.10969 276646.080000
   2635   2637     1   0.10969 276646.080000
   2640   2641     1   0.10969 276646.080000
   2640   2642     1   0.10969 276646.080000
   2643   2644     1   0.10969 276646.080000
   2643   2645     1   0.10969 276646.080000
   2646   2647     1   0.10969 276646.080000
   2646   2648     1   0.10969 276646.080000
   2649   2650     1   0.10969 276646.080000
   2649   2651     1   0.10969 276646.080000
   2652   2653     1   0.10969 276646.080000
   2652   2654     1   0.10969 276646.080000
   2655   2656     1   0.10969 276646.080000
   2655   2657     1   0.10969 276646.080000
   2658   2659     1   0.10969 276646.080000
   2658   2660     1   0.10969 276646.080000
   2661   2662     1   0.10969 276646.080000
   2661   2663     1   0.10969 276646.080000
   2664   2665     1   0.10969 276646.080000
   2664   2666     1   0.10969 276646.080000
   2669   2670     1   0.10969 276646.080000
   2669   2671     1   0.10969 276646.080000
   2672   2673     1   0.10969 276646.080000
   2672   2674     1   0.10969 276646.080000
   2675   2676     1   0.10969 276646.080000
   2675   2677     1   0.10969 276646.080000
   2678   2679     1   0.10969 276646.080000
   2678   2680     1   0.10969 276646.080000
   2681   2682     1   0.10969 276646.080000
   2681   2683     1   0.10969 276646.080000
   2684   2685     1   0.10969 276646.080000
   2684   2686     1   0.10969 276646.080000
   2687   2688     1   0.10969 276646.080000
   2687   2689     1   0.10969 276646.080000
   2690   2691     1   0.10969 276646.080000
   2690   2692     1   0.10969 276646.080000
   2693   2694     1   0.10969 276646.080000
   2693   2695     1   0.10969 276646.080000
   2698   2699     1   0.10969 276646.080000
   2698   2700     1   0.10969 276646.080000
   2701   2702     1   0.10969 276646.080000
   2701   2703     1   0.10969 276646.080000
   2704   2705     1   0.10969 276646.080000
   2704   2706     1   0.10969 276646.080000
   2707   2708     1   0.10969 276646.080000
   2707   2709     1   0.10969 276646.080000
   2710   2711     1   0.10969 276646.080000
   2710   2712     1   0.10969 276646.080000
   2713   2714     1   0.10969 276646.080000
   2713   2715     1   0.10969 276646.080000
   2716   2717     1   0.10969 276646.080000
   2716   2718     1   0.10969 276646.080000
   2719   2720     1   0.10969 276646.080000
   2719   2721     1   0.10969 276646.080000
   2722   2723     1   0.10969 276646.080000
   2722   2724     1   0.10969 276646.080000
   2727   2728     1   0.10969 276646.080000
   2727   2729     1   0.10969 276646.080000
   2730   2731     1   0.10969 276646.080000
   2730   2732     1   0.10969 276646.080000
   2733   2734     1   0.10969 276646.080000
   2733   2735     1   0.10969 276646.080000
   2736   2737     1   0.10969 276646.080000
   2736   2738     1   0.10969 276646.080000
   2739   2740     1   0.10969 276646.080000
   2739   2741     1   0.10969 276646.080000
   2742   2743     1   0.10969 276646.080000
   2742   2744     1   0.10969 276646.080000
   2745   2746     1   0.10969 276646.080000
   2745   2747     1   0.10969 276646.080000
   2748   2749     1   0.10969 276646.080000
   2748   2750     1   0.10969 276646.080000
   2751   2752     1   0.10969 276646.080000
   2751   2753     1   0.10969 276646.080000
   2756   2757     1   0.10969 276646.080000
   2756   2758     1   0.10969 276646.080000
   2759   2760     1   0.10969 276646.080000
   2759   2761     1   0.10969 276646.080000
   2762   2763     1   0.10969 276646.080000
   2762   2764     1   0.10969 276646.080000
   2765   2766     1   0.10969 276646.080000
   2765   2767     1   0.10969 276646.080000
   2768   2769     1   0.10969 276646.080000
   2768   2770     1   0.10969 276646.080000
   2771   2772     1   0.10969 276646.080000
   2771   2773     1   0.10969 276646.080000
   2774   2775     1   0.10969 276646.080000
   2774   2776     1   0.10969 276646.080000
   2777   2778     1   0.10969 276646.080000
   2777   2779     1   0.10969 276646.080000
   2780   2781     1   0.10969 276646.080000
   2780   2782     1   0.10969 276646.080000
   2785   2786     1   0.10969 276646.080000
   2785   2787     1   0.10969 276646.080000
   2788   2789     1   0.10969 276646.080000
   2788   2790     1   0.10969 276646.080000
   2791   2792     1   0.10969 276646.080000
   2791   2793     1   0.10969 276646.080000
   2794   2795     1   0.10969 276646.080000
   2794   2796     1   0.10969 276646.080000
   2797   2798     1   0.10969 276646.080000
   2797   2799     1   0.10969 276646.080000
   2800   2801     1   0.10969 276646.080000
   2800   2802     1   0.10969 276646.080000
   2803   2804     1   0.10969 276646.080000
   2803   2805     1   0.10969 276646.080000
   2806   2807     1   0.10969 276646.080000
   2806   2808     1   0.10969 276646.080000
   2809   2810     1   0.10969 276646.080000
   2809   2811     1   0.10969 276646.080000
   2814   2815     1   0.10969 276646.080000
   2814   2816     1   0.10969 276646.080000
   2817   2818     1   0.10969 276646.080000
   2817   2819     1   0.10969 276646.080000
   2820   2821     1   0.10969 276646.080000
   2820   2822     1   0.10969 276646.080000
   2823   2824     1   0.10969 276646.080000
   2823   2825     1   0.10969 276646.080000
   2826   2827     1   0.10969 276646.080000
   2826   2828     1   0.10969 276646.080000
   2829   2830     1   0.10969 276646.080000
   2829   2831     1   0.10969 276646.080000
   2832   2833     1   0.10969 276646.080000
   2832   2834     1   0.10969 276646.080000
   2835   2836     1   0.10969 276646.080000
   2835   2837     1   0.10969 276646.080000
   2838   2839     1   0.10969 276646.080000
   2838   2840     1   0.10969 276646.080000
   2843   2844     1   0.10969 276646.080000
   2843   2845     1   0.10969 276646.080000
   2846   2847     1   0.10969 276646.080000
   2846   2848     1   0.10969 276646.080000
   2849   2850     1   0.10969 276646.080000
   2849   2851     1   0.10969 276646.080000
   2852   2853     1   0.10969 276646.080000
   2852   2854     1   0.10969 276646.080000
   2855   2856     1   0.10969 276646.080000
   2855   2857     1   0.10969 276646.080000
   2858   2859     1   0.10969 276646.080000
   2858   2860     1   0.10969 276646.080000
   2861   2862     1   0.10969 276646.080000
   2861   2863     1   0.10969 276646.080000
   2864   2865     1   0.10969 276646.080000
   2864   2866     1   0.10969 276646.080000
   2867   2868     1   0.10969 276646.080000
   2867   2869     1   0.10969 276646.080000
   2872   2873     1   0.10969 276646.080000
   2872   2874     1   0.10969 276646.080000
   2875   2876     1   0.10969 276646.080000
   2875   2877     1   0.10969 276646.080000
   2878   2879     1   0.10969 276646.080000
   2878   2880     1   0.10969 276646.080000
   2881   2882     1   0.10969 276646.080000
   2881   2883     1   0.10969 276646.080000
   2884   2885     1   0.10969 276646.080000
   2884   2886     1   0.10969 276646.080000
   2887   2888     1   0.10969 276646.080000
   2887   2889     1   0.10969 276646.080000
   2890   2891     1   0.10969 276646.080000
   2890   2892     1   0.10969 276646.080000
   2893   2894     1   0.10969 276646.080000
   2893   2895     1   0.10969 276646.080000
   2896   2897     1   0.10969 276646.080000
   2896   2898     1   0.10969 276646.080000
   2901   2902     1   0.10969 276646.080000
   2901   2903     1   0.10969 276646.080000
   2904   2905     1   0.10969 276646.080000
   2904   2906     1   0.10969 276646.080000
   2907   2908     1   0.10969 276646.080000
   2907   2909     1   0.10969 276646.080000
   2910   2911     1   0.10969 276646.080000
   2910   2912     1   0.10969 276646.080000
   2913   2914     1   0.10969 276646.080000
   2913   2915     1   0.10969 276646.080000
   2916   2917     1   0.10969 276646.080000
   2916   2918     1   0.10969 276646.080000
   2919   2920     1   0.10969 276646.080000
   2919   2921     1   0.10969 276646.080000
   2922   2923     1   0.10969 276646.080000
   2922   2924     1   0.10969 276646.080000
   2925   2926     1   0.10969 276646.080000
   2925   2927     1   0.10969 276646.080000
   2930   2931     1   0.10969 276646.080000
   2930   2932     1   0.10969 276646.080000
   2933   2934     1   0.10969 276646.080000
   2933   2935     1   0.10969 276646.080000
   2936   2937     1   0.10969 276646.080000
   2936   2938     1   0.10969 276646.080000
   2939   2940     1   0.10969 276646.080000
   2939   2941     1   0.10969 276646.080000
   2942   2943     1   0.10969 276646.080000
   2942   2944     1   0.10969 276646.080000
   2945   2946     1   0.10969 276646.080000
   2945   2947     1   0.10969 276646.080000
   2948   2949     1   0.10969 276646.080000
   2948   2950     1   0.10969 276646.080000
   2951   2952     1   0.10969 276646.080000
   2951   2953     1   0.10969 276646.080000
   2954   2955     1   0.10969 276646.080000
   2954   2956     1   0.10969 276646.080000
   2959   2960     1   0.10969 276646.080000
   2959   2961     1   0.10969 276646.080000
   2962   2963     1   0.10969 276646.080000
   2962   2964     1   0.10969 276646.080000
   2965   2966     1   0.10969 276646.080000
   2965   2967     1   0.10969 276646.080000
   2968   2969     1   0.10969 276646.080000
   2968   2970     1   0.10969 276646.080000
   2971   2972     1   0.10969 276646.080000
   2971   2973     1   0.10969 276646.080000
   2974   2975     1   0.10969 276646.080000
   2974   2976     1   0.10969 276646.080000
   2977   2978     1   0.10969 276646.080000
   2977   2979     1   0.10969 276646.080000
   2980   2981     1   0.10969 276646.080000
   2980   2982     1   0.10969 276646.080000
   2983   2984     1   0.10969 276646.080000
   2983   2985     1   0.10969 276646.080000
   2988   2989     1   0.10969 276646.080000
   2988   2990     1   0.10969 276646.080000
   2991   2992     1   0.10969 276646.080000
   2991   2993     1   0.10969 276646.080000
   2994   2995     1   0.10969 276646.080000
   2994   2996     1   0.10969 276646.080000
   2997   2998     1   0.10969 276646.080000
   2997   2999     1   0.10969 276646.080000
   3000   3001     1   0.10969 276646.080000
   3000   3002     1   0.10969 276646.080000
   3003   3004     1   0.10969 276646.080000
   3003   3005     1   0.10969 276646.080000
   3006   3007     1   0.10969 276646.080000
   3006   3008     1   0.10969 276646.080000
   3009   3010     1   0.10969 276646.080000
   3009   3011     1   0.10969 276646.080000
   3012   3013     1   0.10969 276646.080000
   3012   3014     1   0.10969 276646.080000
   3017   3018     1   0.10969 276646.080000
   3017   3019     1   0.10969 276646.080000
   3020   3021     1   0.10969 276646.080000
   3020   3022     1   0.10969 276646.080000
   3023   3024     1   0.10969 276646.080000
   3023   3025     1   0.10969 276646.080000
   3026   3027     1   0.10969 276646.080000
   3026   3028     1   0.10969 276646.080000
   3029   3030     1   0.10969 276646.080000
   3029   3031     1   0.10969 276646.080000
   3032   3033     1   0.10969 276646.080000
   3032   3034     1   0.10969 276646.080000
   3035   3036     1   0.10969 276646.080000
   3035   3037     1   0.10969 276646.080000
   3038   3039     1   0.10969 276646.080000
   3038   3040     1   0.10969 276646.080000
   3041   3042     1   0.10969 276646.080000
   3041   3043     1   0.10969 276646.080000
   3046   3047     1   0.10969 276646.080000
   3046   3048     1   0.10969 276646.080000
   3049   3050     1   0.10969 276646.080000
   3049   3051     1   0.10969 276646.080000
   3052   3053     1   0.10969 276646.080000
   3052   3054     1   0.10969 276646.080000
   3055   3056     1   0.10969 276646.080000
   3055   3057     1   0.10969 276646.080000
   3058   3059     1   0.10969 276646.080000
   3058   3060     1   0.10969 276646.080000
   3061   3062     1   0.10969 276646.080000
   3061   3063     1   0.10969 276646.080000
   3064   3065     1   0.10969 276646.080000
   3064   3066     1   0.10969 276646.080000
   3067   3068     1   0.10969 276646.080000
   3067   3069     1   0.10969 276646.080000
   3070   3071     1   0.10969 276646.080000
   3070   3072     1   0.10969 276646.080000
   3075   3076     1   0.10969 276646.080000
   3075   3077     1   0.10969 276646.080000
   3078   3079     1   0.10969 276646.080000
   3078   3080     1   0.10969 276646.080000
   3081   3082     1   0.10969 276646.080000
   3081   3083     1   0.10969 276646.080000
   3084   3085     1   0.10969 276646.080000
   3084   3086     1   0.10969 276646.080000
   3087   3088     1   0.10969 276646.080000
   3087   3089     1   0.10969 276646.080000
   3090   3091     1   0.10969 276646.080000
   3090   3092     1   0.10969 276646.080000
   3093   3094     1   0.10969 276646.080000
   3093   3095     1   0.10969 276646.080000
   3096   3097     1   0.10969 276646.080000
   3096   3098     1   0.10969 276646.080000
   3099   3100     1   0.10969 276646.080000
   3099   3101     1   0.10969 276646.080000
   3104   3105     1   0.10969 276646.080000
   3104   3106     1   0.10969 276646.080000
   3107   3108     1   0.10969 276646.080000
   3107   3109     1   0.10969 276646.080000
   3110   3111     1   0.10969 276646.080000
   3110   3112     1   0.10969 276646.080000
   3113   3114     1   0.10969 276646.080000
   3113   3115     1   0.10969 276646.080000
   3116   3117     1   0.10969 276646.080000
   3116   3118     1   0.10969 276646.080000
   3119   3120     1   0.10969 276646.080000
   3119   3121     1   0.10969 276646.080000
   3122   3123     1   0.10969 276646.080000
   3122   3124     1   0.10969 276646.080000
   3125   3126     1   0.10969 276646.080000
   3125   3127     1   0.10969 276646.080000
   3128   3129     1   0.10969 276646.080000
   3128   3130     1   0.10969 276646.080000
   3133   3134     1   0.10969 276646.080000
   3133   3135     1   0.10969 276646.080000
   3136   3137     1   0.10969 276646.080000
   3136   3138     1   0.10969 276646.080000
   3139   3140     1   0.10969 276646.080000
   3139   3141     1   0.10969 276646.080000
   3142   3143     1   0.10969 276646.080000
   3142   3144     1   0.10969 276646.080000
   3145   3146     1   0.10969 276646.080000
   3145   3147     1   0.10969 276646.080000
   3148   3149     1   0.10969 276646.080000
   3148   3150     1   0.10969 276646.080000
   3151   3152     1   0.10969 276646.080000
   3151   3153     1   0.10969 276646.080000
   3154   3155     1   0.10969 276646.080000
   3154   3156     1   0.10969 276646.080000
   3157   3158     1   0.10969 276646.080000
   3157   3159     1   0.10969 276646.080000
   3162   3163     1   0.10969 276646.080000
   3162   3164     1   0.10969 276646.080000
   3165   3166     1   0.10969 276646.080000
   3165   3167     1   0.10969 276646.080000
   3168   3169     1   0.10969 276646.080000
   3168   3170     1   0.10969 276646.080000
   3171   3172     1   0.10969 276646.080000
   3171   3173     1   0.10969 276646.080000
   3174   3175     1   0.10969 276646.080000
   3174   3176     1   0.10969 276646.080000
   3177   3178     1   0.10969 276646.080000
   3177   3179     1   0.10969 276646.080000
   3180   3181     1   0.10969 276646.080000
   3180   3182     1   0.10969 276646.080000
   3183   3184     1   0.10969 276646.080000
   3183   3185     1   0.10969 276646.080000
   3186   3187     1   0.10969 276646.080000
   3186   3188     1   0.10969 276646.080000
   3191   3192     1   0.10969 276646.080000
   3191   3193     1   0.10969 276646.080000
   3194   3195     1   0.10969 276646.080000
   3194   3196     1   0.10969 276646.080000
   3197   3198     1   0.10969 276646.080000
   3197   3199     1   0.10969 276646.080000
   3200   3201     1   0.10969 276646.080000
   3200   3202     1   0.10969 276646.080000
   3203   3204     1   0.10969 276646.080000
   3203   3205     1   0.10969 276646.080000
   3206   3207     1   0.10969 276646.080000
   3206   3208     1   0.10969 276646.080000
   3209   3210     1   0.10969 276646.080000
   3209   3211     1   0.10969 276646.080000
   3212   3213     1   0.10969 276646.080000
   3212   3214     1   0.10969 276646.080000
   3215   3216     1   0.10969 276646.080000
   3215   3217     1   0.10969 276646.080000
   3220   3221     1   0.10969 276646.080000
   3220   3222     1   0.10969 276646.080000
   3223   3224     1   0.10969 276646.080000
   3223   3225     1   0.10969 276646.080000
   3226   3227     1   0.10969 276646.080000
   3226   3228     1   0.10969 276646.080000
   3229   3230     1   0.10969 276646.080000
   3229   3231     1   0.10969 276646.080000
   3232   3233     1   0.10969 276646.080000
   3232   3234     1   0.10969 276646.080000
   3235   3236     1   0.10969 276646.080000
   3235   3237     1   0.10969 276646.080000
   3238   3239     1   0.10969 276646.080000
   3238   3240     1   0.10969 276646.080000
   3241   3242     1   0.10969 276646.080000
   3241   3243     1   0.10969 276646.080000
   3244   3245     1   0.10969 276646.080000
   3244   3246     1   0.10969 276646.080000
   3249   3250     1   0.10969 276646.080000
   3249   3251     1   0.10969 276646.080000
   3252   3253     1   0.10969 276646.080000
   3252   3254     1   0.10969 276646.080000
   3255   3256     1   0.10969 276646.080000
   3255   3257     1   0.10969 276646.080000
   3258   3259     1   0.10969 276646.080000
   3258   3260     1   0.10969 276646.080000
   3261   3262     1   0.10969 276646.080000
   3261   3263     1   0.10969 276646.080000
   3264   3265     1   0.10969 276646.080000
   3264   3266     1   0.10969 276646.080000
   3267   3268     1   0.10969 276646.080000
   3267   3269     1   0.10969 276646.080000
   3270   3271     1   0.10969 276646.080000
   3270   3272     1   0.10969 276646.080000
   3273   3274     1   0.10969 276646.080000
   3273   3275     1   0.10969 276646.080000
   3278   3279     1   0.10969 276646.080000
   3278   3280     1   0.10969 276646.080000
   3281   3282     1   0.10969 276646.080000
   3281   3283     1   0.10969 276646.080000
   3284   3285     1   0.10969 276646.080000
   3284   3286     1   0.10969 276646.080000
   3287   3288     1   0.10969 276646.080000
   3287   3289     1   0.10969 276646.080000
   3290   3291     1   0.10969 276646.080000
   3290   3292     1   0.10969 276646.080000
   3293   3294     1   0.10969 276646.080000
   3293   3295     1   0.10969 276646.080000
   3296   3297     1   0.10969 276646.080000
   3296   3298     1   0.10969 276646.080000
   3299   3300     1   0.10969 276646.080000
   3299   3301     1   0.10969 276646.080000
   3302   3303     1   0.10969 276646.080000
   3302   3304     1   0.10969 276646.080000
   3307   3308     1   0.10969 276646.080000
   3307   3309     1   0.10969 276646.080000
   3310   3311     1   0.10969 276646.080000
   3310   3312     1   0.10969 276646.080000
   3313   3314     1   0.10969 276646.080000
   3313   3315     1   0.10969 276646.080000
   3316   3317     1   0.10969 276646.080000
   3316   3318     1   0.10969 276646.080000
   3319   3320     1   0.10969 276646.080000
   3319   3321     1   0.10969 276646.080000
   3322   3323     1   0.10969 276646.080000
   3322   3324     1   0.10969 276646.080000
   3325   3326     1   0.10969 276646.080000
   3325   3327     1   0.10969 276646.080000
   3328   3329     1   0.10969 276646.080000
   3328   3330     1   0.10969 276646.080000
   3331   3332     1   0.10969 276646.080000
   3331   3333     1   0.10969 276646.080000
   3336   3337     1   0.10969 276646.080000
   3336   3338     1   0.10969 276646.080000
   3339   3340     1   0.10969 276646.080000
   3339   3341     1   0.10969 276646.080000
   3342   3343     1   0.10969 276646.080000
   3342   3344     1   0.10969 276646.080000
   3345   3346     1   0.10969 276646.080000
   3345   3347     1   0.10969 276646.080000
   3348   3349     1   0.10969 276646.080000
   3348   3350     1   0.10969 276646.080000
   3351   3352     1   0.10969 276646.080000
   3351   3353     1   0.10969 276646.080000
   3354   3355     1   0.10969 276646.080000
   3354   3356     1   0.10969 276646.080000
   3357   3358     1   0.10969 276646.080000
   3357   3359     1   0.10969 276646.080000
   3360   3361     1   0.10969 276646.080000
   3360   3362     1   0.10969 276646.080000
   3365   3366     1   0.10969 276646.080000
   3365   3367     1   0.10969 276646.080000
   3368   3369     1   0.10969 276646.080000
   3368   3370     1   0.10969 276646.080000
   3371   3372     1   0.10969 276646.080000
   3371   3373     1   0.10969 276646.080000
   3374   3375     1   0.10969 276646.080000
   3374   3376     1   0.10969 276646.080000
   3377   3378     1   0.10969 276646.080000
   3377   3379     1   0.10969 276646.080000
   3380   3381     1   0.10969 276646.080000
   3380   3382     1   0.10969 276646.080000
   3383   3384     1   0.10969 276646.080000
   3383   3385     1   0.10969 276646.080000
   3386   3387     1   0.10969 276646.080000
   3386   3388     1   0.10969 276646.080000
   3389   3390     1   0.10969 276646.080000
   3389   3391     1   0.10969 276646.080000
   3394   3395     1   0.10969 276646.080000
   3394   3396     1   0.10969 276646.080000
   3397   3398     1   0.10969 276646.080000
   3397   3399     1   0.10969 276646.080000
   3400   3401     1   0.10969 276646.080000
   3400   3402     1   0.10969 276646.080000
   3403   3404     1   0.10969 276646.080000
   3403   3405     1   0.10969 276646.080000
   3406   3407     1   0.10969 276646.080000
   3406   3408     1   0.10969 276646.080000
   3409   3410     1   0.10969 276646.080000
   3409   3411     1   0.10969 276646.080000
   3412   3413     1   0.10969 276646.080000
   3412   3414     1   0.10969 276646.080000
   3415   3416     1   0.10969 276646.080000
   3415   3417     1   0.10969 276646.080000
   3418   3419     1   0.10969 276646.080000
   3418   3420     1   0.10969 276646.080000
   3423   3424     1   0.10969 276646.080000
   3423   3425     1   0.10969 276646.080000
   3426   3427     1   0.10969 276646.080000
   3426   3428     1   0.10969 276646.080000
   3429   3430     1   0.10969 276646.080000
   3429   3431     1   0.10969 276646.080000
   3432   3433     1   0.10969 276646.080000
   3432   3434     1   0.10969 276646.080000
   3435   3436     1   0.10969 276646.080000
   3435   3437     1   0.10969 276646.080000
   3438   3439     1   0.10969 276646.080000
   3438   3440     1   0.10969 276646.080000
   3441   3442     1   0.10969 276646.080000
   3441   3443     1   0.10969 276646.080000
   3444   3445     1   0.10969 276646.080000
   3444   3446     1   0.10969 276646.080000
   3447   3448     1   0.10969 276646.080000
   3447   3449     1   0.10969 276646.080000
   3452   3453     1   0.10969 276646.080000
   3452   3454     1   0.10969 276646.080000
   3455   3456     1   0.10969 276646.080000
   3455   3457     1   0.10969 276646.080000
   3458   3459     1   0.10969 276646.080000
   3458   3460     1   0.10969 276646.080000
   3461   3462     1   0.10969 276646.080000
   3461   3463     1   0.10969 276646.080000
   3464   3465     1   0.10969 276646.080000
   3464   3466     1   0.10969 276646.080000
   3467   3468     1   0.10969 276646.080000
   3467   3469     1   0.10969 276646.080000
   3470   3471     1   0.10969 276646.080000
   3470   3472     1   0.10969 276646.080000
   3473   3474     1   0.10969 276646.080000
   3473   3475     1   0.10969 276646.080000
   3476   3477     1   0.10969 276646.080000
   3476   3478     1   0.10969 276646.080000
   3481   3482     1   0.10969 276646.080000
   3481   3483     1   0.10969 276646.080000
   3484   3485     1   0.10969 276646.080000
   3484   3486     1   0.10969 276646.080000
   3487   3488     1   0.10969 276646.080000
   3487   3489     1   0.10969 276646.080000
   3490   3491     1   0.10969 276646.080000
   3490   3492     1   0.10969 276646.080000
   3493   3494     1   0.10969 276646.080000
   3493   3495     1   0.10969 276646.080000
   3496   3497     1   0.10969 276646.080000
   3496   3498     1   0.10969 276646.080000
   3499   3500     1   0.10969 276646.080000
   3499   3501     1   0.10969 276646.080000
   3502   3503     1   0.10969 276646.080000
   3502   3504     1   0.10969 276646.080000
   3505   3506     1   0.10969 276646.080000
   3505   3507     1   0.10969 276646.080000
   3510   3511     1   0.10969 276646.080000
   3510   3512     1   0.10969 276646.080000
   3513   3514     1   0.10969 276646.080000
   3513   3515     1   0.10969 276646.080000
   3516   3517     1   0.10969 276646.080000
   3516   3518     1   0.10969 276646.080000
   3519   3520     1   0.10969 276646.080000
   3519   3521     1   0.10969 276646.080000
   3522   3523     1   0.10969 276646.080000
   3522   3524     1   0.10969 276646.080000
   3525   3526     1   0.10969 276646.080000
   3525   3527     1   0.10969 276646.080000
   3528   3529     1   0.10969 276646.080000
   3528   3530     1   0.10969 276646.080000
   3531   3532     1   0.10969 276646.080000
   3531   3533     1   0.10969 276646.080000
   3534   3535     1   0.10969 276646.080000
   3534   3536     1   0.10969 276646.080000
   3539   3540     1   0.10969 276646.080000
   3539   3541     1   0.10969 276646.080000
   3542   3543     1   0.10969 276646.080000
   3542   3544     1   0.10969 276646.080000
   3545   3546     1   0.10969 276646.080000
   3545   3547     1   0.10969 276646.080000
   3548   3549     1   0.10969 276646.080000
   3548   3550     1   0.10969 276646.080000
   3551   3552     1   0.10969 276646.080000
   3551   3553     1   0.10969 276646.080000
   3554   3555     1   0.10969 276646.080000
   3554   3556     1   0.10969 276646.080000
   3557   3558     1   0.10969 276646.080000
   3557   3559     1   0.10969 276646.080000
   3560   3561     1   0.10969 276646.080000
   3560   3562     1   0.10969 276646.080000
   3563   3564     1   0.10969 276646.080000
   3563   3565     1   0.10969 276646.080000
   3568   3569     1   0.10969 276646.080000
   3568   3570     1   0.10969 276646.080000
   3571   3572     1   0.10969 276646.080000
   3571   3573     1   0.10969 276646.080000
   3574   3575     1   0.10969 276646.080000
   3574   3576     1   0.10969 276646.080000
   3577   3578     1   0.10969 276646.080000
   3577   3579     1   0.10969 276646.080000
   3580   3581     1   0.10969 276646.080000
   3580   3582     1   0.10969 276646.080000
   3583   3584     1   0.10969 276646.080000
   3583   3585     1   0.10969 276646.080000
   3586   3587     1   0.10969 276646.080000
   3586   3588     1   0.10969 276646.080000
   3589   3590     1   0.10969 276646.080000
   3589   3591     1   0.10969 276646.080000
   3592   3593     1   0.10969 276646.080000
   3592   3594     1   0.10969 276646.080000
   3597   3598     1   0.10969 276646.080000
   3597   3599     1   0.10969 276646.080000
   3600   3601     1   0.10969 276646.080000
   3600   3602     1   0.10969 276646.080000
   3603   3604     1   0.10969 276646.080000
   3603   3605     1   0.10969 276646.080000
   3606   3607     1   0.10969 276646.080000
   3606   3608     1   0.10969 276646.080000
   3609   3610     1   0.10969 276646.080000
   3609   3611     1   0.10969 276646.080000
   3612   3613     1   0.10969 276646.080000
   3612   3614     1   0.10969 276646.080000
   3615   3616     1   0.10969 276646.080000
   3615   3617     1   0.10969 276646.080000
   3618   3619     1   0.10969 276646.080000
   3618   3620     1   0.10969 276646.080000
   3621   3622     1   0.10969 276646.080000
   3621   3623     1   0.10969 276646.080000
   3626   3627     1   0.10969 276646.080000
   3626   3628     1   0.10969 276646.080000
   3629   3630     1   0.10969 276646.080000
   3629   3631     1   0.10969 276646.080000
   3632   3633     1   0.10969 276646.080000
   3632   3634     1   0.10969 276646.080000
   3635   3636     1   0.10969 276646.080000
   3635   3637     1   0.10969 276646.080000
   3638   3639     1   0.10969 276646.080000
   3638   3640     1   0.10969 276646.080000
   3641   3642     1   0.10969 276646.080000
   3641   3643     1   0.10969 276646.080000
   3644   3645     1   0.10969 276646.080000
   3644   3646     1   0.10969 276646.080000
   3647   3648     1   0.10969 276646.080000
   3647   3649     1   0.10969 276646.080000
   3650   3651     1   0.10969 276646.080000
   3650   3652     1   0.10969 276646.080000
   3655   3656     1   0.10969 276646.080000
   3655   3657     1   0.10969 276646.080000
   3658   3659     1   0.10969 276646.080000
   3658   3660     1   0.10969 276646.080000
   3661   3662     1   0.10969 276646.080000
   3661   3663     1   0.10969 276646.080000
   3664   3665     1   0.10969 276646.080000
   3664   3666     1   0.10969 276646.080000
   3667   3668     1   0.10969 276646.080000
   3667   3669     1   0.10969 276646.080000
   3670   3671     1   0.10969 276646.080000
   3670   3672     1   0.10969 276646.080000
   3673   3674     1   0.10969 276646.080000
   3673   3675     1   0.10969 276646.080000
   3676   3677     1   0.10969 276646.080000
   3676   3678     1   0.10969 276646.080000
   3679   3680     1   0.10969 276646.080000
   3679   3681     1   0.10969 276646.080000
   3684   3685     1   0.10969 276646.080000
   3684   3686     1   0.10969 276646.080000
   3687   3688     1   0.10969 276646.080000
   3687   3689     1   0.10969 276646.080000
   3690   3691     1   0.10969 276646.080000
   3690   3692     1   0.10969 276646.080000
   3693   3694     1   0.10969 276646.080000
   3693   3695     1   0.10969 276646.080000
   3696   3697     1   0.10969 276646.080000
   3696   3698     1   0.10969 276646.080000
   3699   3700     1   0.10969 276646.080000
   3699   3701     1   0.10969 276646.080000
   3702   3703     1   0.10969 276646.080000
   3702   3704     1   0.10969 276646.080000
   3705   3706     1   0.10969 276646.080000
   3705   3707     1   0.10969 276646.080000
   3708   3709     1   0.10969 276646.080000
   3708   3710     1   0.10969 276646.080000
   3713   3714     1   0.10969 276646.080000
   3713   3715     1   0.10969 276646.080000
   3716   3717     1   0.10969 276646.080000
   3716   3718     1   0.10969 276646.080000
   3719   3720     1   0.10969 276646.080000
   3719   3721     1   0.10969 276646.080000
   3722   3723     1   0.10969 276646.080000
   3722   3724     1   0.10969 276646.080000
   3725   3726     1   0.10969 276646.080000
   3725   3727     1   0.10969 276646.080000
   3728   3729     1   0.10969 276646.080000
   3728   3730     1   0.10969 276646.080000
   3731   3732     1   0.10969 276646.080000
   3731   3733     1   0.10969 276646.080000
   3734   3735     1   0.10969 276646.080000
   3734   3736     1   0.10969 276646.080000
   3737   3738     1   0.10969 276646.080000
   3737   3739     1   0.10969 276646.080000
   3742   3743     1   0.10969 276646.080000
   3742   3744     1   0.10969 276646.080000
   3745   3746     1   0.10969 276646.080000
   3745   3747     1   0.10969 276646.080000
   3748   3749     1   0.10969 276646.080000
   3748   3750     1   0.10969 276646.080000
   3751   3752     1   0.10969 276646.080000
   3751   3753     1   0.10969 276646.080000
   3754   3755     1   0.10969 276646.080000
   3754   3756     1   0.10969 276646.080000
   3757   3758     1   0.10969 276646.080000
   3757   3759     1   0.10969 276646.080000
   3760   3761     1   0.10969 276646.080000
   3760   3762     1   0.10969 276646.080000
   3763   3764     1   0.10969 276646.080000
   3763   3765     1   0.10969 276646.080000
   3766   3767     1   0.10969 276646.080000
   3766   3768     1   0.10969 276646.080000
   3771   3772     1   0.10969 276646.080000
   3771   3773     1   0.10969 276646.080000
   3774   3775     1   0.10969 276646.080000
   3774   3776     1   0.10969 276646.080000
   3777   3778     1   0.10969 276646.080000
   3777   3779     1   0.10969 276646.080000
   3780   3781     1   0.10969 276646.080000
   3780   3782     1   0.10969 276646.080000
   3783   3784     1   0.10969 276646.080000
   3783   3785     1   0.10969 276646.080000
   3786   3787     1   0.10969 276646.080000
   3786   3788     1   0.10969 276646.080000
   3789   3790     1   0.10969 276646.080000
   3789   3791     1   0.10969 276646.080000
   3792   3793     1   0.10969 276646.080000
   3792   3794     1   0.10969 276646.080000
   3795   3796     1   0.10969 276646.080000
   3795   3797     1   0.10969 276646.080000
   3800   3801     1   0.10969 276646.080000
   3800   3802     1   0.10969 276646.080000
   3803   3804     1   0.10969 276646.080000
   3803   3805     1   0.10969 276646.080000
   3806   3807     1   0.10969 276646.080000
   3806   3808     1   0.10969 276646.080000
   3809   3810     1   0.10969 276646.080000
   3809   3811     1   0.10969 276646.080000
   3812   3813     1   0.10969 276646.080000
   3812   3814     1   0.10969 276646.080000
   3815   3816     1   0.10969 276646.080000
   3815   3817     1   0.10969 276646.080000
   3818   3819     1   0.10969 276646.080000
   3818   3820     1   0.10969 276646.080000
   3821   3822     1   0.10969 276646.080000
   3821   3823     1   0.10969 276646.080000
   3824   3825     1   0.10969 276646.080000
   3824   3826     1   0.10969 276646.080000
   3829   3830     1   0.10969 276646.080000
   3829   3831     1   0.10969 276646.080000
   3832   3833     1   0.10969 276646.080000
   3832   3834     1   0.10969 276646.080000
   3835   3836     1   0.10969 276646.080000
   3835   3837     1   0.10969 276646.080000
   3838   3839     1   0.10969 276646.080000
   3838   3840     1   0.10969 276646.080000
   3841   3842     1   0.10969 276646.080000
   3841   3843     1   0.10969 276646.080000
   3844   3845     1   0.10969 276646.080000
   3844   3846     1   0.10969 276646.080000
   3847   3848     1   0.10969 276646.080000
   3847   3849     1   0.10969 276646.080000
   3850   3851     1   0.10969 276646.080000
   3850   3852     1   0.10969 276646.080000
   3853   3854     1   0.10969 276646.080000
   3853   3855     1   0.10969 276646.080000
   3858   3859     1   0.10969 276646.080000
   3858   3860     1   0.10969 276646.080000
   3861   3862     1   0.10969 276646.080000
   3861   3863     1   0.10969 276646.080000
   3864   3865     1   0.10969 276646.080000
   3864   3866     1   0.10969 276646.080000
   3867   3868     1   0.10969 276646.080000
   3867   3869     1   0.10969 276646.080000
   3870   3871     1   0.10969 276646.080000
   3870   3872     1   0.10969 276646.080000
   3873   3874     1   0.10969 276646.080000
   3873   3875     1   0.10969 276646.080000
   3876   3877     1   0.10969 276646.080000
   3876   3878     1   0.10969 276646.080000
   3879   3880     1   0.10969 276646.080000
   3879   3881     1   0.10969 276646.080000
   3882   3883     1   0.10969 276646.080000
   3882   3884     1   0.10969 276646.080000
   3887   3888     1   0.10969 276646.080000
   3887   3889     1   0.10969 276646.080000
   3890   3891     1   0.10969 276646.080000
   3890   3892     1   0.10969 276646.080000
   3893   3894     1   0.10969 276646.080000
   3893   3895     1   0.10969 276646.080000
   3896   3897     1   0.10969 276646.080000
   3896   3898     1   0.10969 276646.080000
   3899   3900     1   0.10969 276646.080000
   3899   3901     1   0.10969 276646.080000
   3902   3903     1   0.10969 276646.080000
   3902   3904     1   0.10969 276646.080000
   3905   3906     1   0.10969 276646.080000
   3905   3907     1   0.10969 276646.080000
   3908   3909     1   0.10969 276646.080000
   3908   3910     1   0.10969 276646.080000
   3911   3912     1   0.10969 276646.080000
   3911   3913     1   0.10969 276646.080000
   3916   3917     1   0.10969 276646.080000
   3916   3918     1   0.10969 276646.080000
   3919   3920     1   0.10969 276646.080000
   3919   3921     1   0.10969 276646.080000
   3922   3923     1   0.10969 276646.080000
   3922   3924     1   0.10969 276646.080000
   3925   3926     1   0.10969 276646.080000
   3925   3927     1   0.10969 276646.080000
   3928   3929     1   0.10969 276646.080000
   3928   3930     1   0.10969 276646.080000
   3931   3932     1   0.10969 276646.080000
   3931   3933     1   0.10969 276646.080000
   3934   3935     1   0.10969 276646.080000
   3934   3936     1   0.10969 276646.080000
   3937   3938     1   0.10969 276646.080000
   3937   3939     1   0.10969 276646.080000
   3940   3941     1   0.10969 276646.080000
   3940   3942     1   0.10969 276646.080000
   3945   3946     1   0.10969 276646.080000
   3945   3947     1   0.10969 276646.080000
   3948   3949     1   0.10969 276646.080000
   3948   3950     1   0.10969 276646.080000
   3951   3952     1   0.10969 276646.080000
   3951   3953     1   0.10969 276646.080000
   3954   3955     1   0.10969 276646.080000
   3954   3956     1   0.10969 276646.080000
   3957   3958     1   0.10969 276646.080000
   3957   3959     1   0.10969 276646.080000
   3960   3961     1   0.10969 276646.080000
   3960   3962     1   0.10969 276646.080000
   3963   3964     1   0.10969 276646.080000
   3963   3965     1   0.10969 276646.080000
   3966   3967     1   0.10969 276646.080000
   3966   3968     1   0.10969 276646.080000
   3969   3970     1   0.10969 276646.080000
   3969   3971     1   0.10969 276646.080000
   3974   3975     1   0.10969 276646.080000
   3974   3976     1   0.10969 276646.080000
   3977   3978     1   0.10969 276646.080000
   3977   3979     1   0.10969 276646.080000
   3980   3981     1   0.10969 276646.080000
   3980   3982     1   0.10969 276646.080000
   3983   3984     1   0.10969 276646.080000
   3983   3985     1   0.10969 276646.080000
   3986   3987     1   0.10969 276646.080000
   3986   3988     1   0.10969 276646.080000
   3989   3990     1   0.10969 276646.080000
   3989   3991     1   0.10969 276646.080000
   3992   3993     1   0.10969 276646.080000
   3992   3994     1   0.10969 276646.080000
   3995   3996     1   0.10969 276646.080000
   3995   3997     1   0.10969 276646.080000
   3998   3999     1   0.10969 276646.080000
   3998   4000     1   0.10969 276646.080000
   4003   4004     1   0.10969 276646.080000
   4003   4005     1   0.10969 276646.080000
   4006   4007     1   0.10969 276646.080000
   4006   4008     1   0.10969 276646.080000
   4009   4010     1   0.10969 276646.080000
   4009   4011     1   0.10969 276646.080000
   4012   4013     1   0.10969 276646.080000
   4012   4014     1   0.10969 276646.080000
   4015   4016     1   0.10969 276646.080000
   4015   4017     1   0.10969 276646.080000
   4018   4019     1   0.10969 276646.080000
   4018   4020     1   0.10969 276646.080000
   4021   4022     1   0.10969 276646.080000
   4021   4023     1   0.10969 276646.080000
   4024   4025     1   0.10969 276646.080000
   4024   4026     1   0.10969 276646.080000
   4027   4028     1   0.10969 276646.080000
   4027   4029     1   0.10969 276646.080000
   4032   4033     1   0.10969 276646.080000
   4032   4034     1   0.10969 276646.080000
   4035   4036     1   0.10969 276646.080000
   4035   4037     1   0.10969 276646.080000
   4038   4039     1   0.10969 276646.080000
   4038   4040     1   0.10969 276646.080000
   4041   4042     1   0.10969 276646.080000
   4041   4043     1   0.10969 276646.080000
   4044   4045     1   0.10969 276646.080000
   4044   4046     1   0.10969 276646.080000
   4047   4048     1   0.10969 276646.080000
   4047   4049     1   0.10969 276646.080000
   4050   4051     1   0.10969 276646.080000
   4050   4052     1   0.10969 276646.080000
   4053   4054     1   0.10969 276646.080000
   4053   4055     1   0.10969 276646.080000
   4056   4057     1   0.10969 276646.080000
   4056   4058     1   0.10969 276646.080000
   4061   4062     1   0.10969 276646.080000
   4061   4063     1   0.10969 276646.080000
   4064   4065     1   0.10969 276646.080000
   4064   4066     1   0.10969 276646.080000
   4067   4068     1   0.10969 276646.080000
   4067   4069     1   0.10969 276646.080000
   4070   4071     1   0.10969 276646.080000
   4070   4072     1   0.10969 276646.080000
   4073   4074     1   0.10969 276646.080000
   4073   4075     1   0.10969 276646.080000
   4076   4077     1   0.10969 276646.080000
   4076   4078     1   0.10969 276646.080000
   4079   4080     1   0.10969 276646.080000
   4079   4081     1   0.10969 276646.080000
   4082   4083     1   0.10969 276646.080000
   4082   4084     1   0.10969 276646.080000
   4085   4086     1   0.10969 276646.080000
   4085   4087     1   0.10969 276646.080000
   4090   4091     1   0.10969 276646.080000
   4090   4092     1   0.10969 276646.080000
   4093   4094     1   0.10969 276646.080000
   4093   4095     1   0.10969 276646.080000
   4096   4097     1   0.10969 276646.080000
   4096   4098     1   0.10969 276646.080000
   4099   4100     1   0.10969 276646.080000
   4099   4101     1   0.10969 276646.080000
   4102   4103     1   0.10969 276646.080000
   4102   4104     1   0.10969 276646.080000
   4105   4106     1   0.10969 276646.080000
   4105   4107     1   0.10969 276646.080000
   4108   4109     1   0.10969 276646.080000
   4108   4110     1   0.10969 276646.080000
   4111   4112     1   0.10969 276646.080000
   4111   4113     1   0.10969 276646.080000
   4114   4115     1   0.10969 276646.080000
   4114   4116     1   0.10969 276646.080000
   4119   4120     1   0.10969 276646.080000
   4119   4121     1   0.10969 276646.080000
   4122   4123     1   0.10969 276646.080000
   4122   4124     1   0.10969 276646.080000
   4125   4126     1   0.10969 276646.080000
   4125   4127     1   0.10969 276646.080000
   4128   4129     1   0.10969 276646.080000
   4128   4130     1   0.10969 276646.080000
   4131   4132     1   0.10969 276646.080000
   4131   4133     1   0.10969 276646.080000
   4134   4135     1   0.10969 276646.080000
   4134   4136     1   0.10969 276646.080000
   4137   4138     1   0.10969 276646.080000
   4137   4139     1   0.10969 276646.080000
   4140   4141     1   0.10969 276646.080000
   4140   4142     1   0.10969 276646.080000
   4143   4144     1   0.10969 276646.080000
   4143   4145     1   0.10969 276646.080000
   4148   4149     1   0.10969 276646.080000
   4148   4150     1   0.10969 276646.080000
   4151   4152     1   0.10969 276646.080000
   4151   4153     1   0.10969 276646.080000
   4154   4155     1   0.10969 276646.080000
   4154   4156     1   0.10969 276646.080000
   4157   4158     1   0.10969 276646.080000
   4157   4159     1   0.10969 276646.080000
   4160   4161     1   0.10969 276646.080000
   4160   4162     1   0.10969 276646.080000
   4163   4164     1   0.10969 276646.080000
   4163   4165     1   0.10969 276646.080000
   4166   4167     1   0.10969 276646.080000
   4166   4168     1   0.10969 276646.080000
   4169   4170     1   0.10969 276646.080000
   4169   4171     1   0.10969 276646.080000
   4172   4173     1   0.10969 276646.080000
   4172   4174     1   0.10969 276646.080000
   4177   4178     1   0.10969 276646.080000
   4177   4179     1   0.10969 276646.080000
   4180   4181     1   0.10969 276646.080000
   4180   4182     1   0.10969 276646.080000
   4183   4184     1   0.10969 276646.080000
   4183   4185     1   0.10969 276646.080000
   4186   4187     1   0.10969 276646.080000
   4186   4188     1   0.10969 276646.080000
   4189   4190     1   0.10969 276646.080000
   4189   4191     1   0.10969 276646.080000
   4192   4193     1   0.10969 276646.080000
   4192   4194     1   0.10969 276646.080000
   4195   4196     1   0.10969 276646.080000
   4195   4197     1   0.10969 276646.080000
   4198   4199     1   0.10969 276646.080000
   4198   4200     1   0.10969 276646.080000
   4201   4202     1   0.10969 276646.080000
   4201   4203     1   0.10969 276646.080000
   4206   4207     1   0.10969 276646.080000
   4206   4208     1   0.10969 276646.080000
   4209   4210     1   0.10969 276646.080000
   4209   4211     1   0.10969 276646.080000
   4212   4213     1   0.10969 276646.080000
   4212   4214     1   0.10969 276646.080000
   4215   4216     1   0.10969 276646.080000
   4215   4217     1   0.10969 276646.080000
   4218   4219     1   0.10969 276646.080000
   4218   4220     1   0.10969 276646.080000
   4221   4222     1   0.10969 276646.080000
   4221   4223     1   0.10969 276646.080000
   4224   4225     1   0.10969 276646.080000
   4224   4226     1   0.10969 276646.080000
   4227   4228     1   0.10969 276646.080000
   4227   4229     1   0.10969 276646.080000
   4230   4231     1   0.10969 276646.080000
   4230   4232     1   0.10969 276646.080000
   4235   4236     1   0.10969 276646.080000
   4235   4237     1   0.10969 276646.080000
   4238   4239     1   0.10969 276646.080000
   4238   4240     1   0.10969 276646.080000
   4241   4242     1   0.10969 276646.080000
   4241   4243     1   0.10969 276646.080000
   4244   4245     1   0.10969 276646.080000
   4244   4246     1   0.10969 276646.080000
   4247   4248     1   0.10969 276646.080000
   4247   4249     1   0.10969 276646.080000
   4250   4251     1   0.10969 276646.080000
   4250   4252     1   0.10969 276646.080000
   4253   4254     1   0.10969 276646.080000
   4253   4255     1   0.10969 276646.080000
   4256   4257     1   0.10969 276646.080000
   4256   4258     1   0.10969 276646.080000
   4259   4260     1   0.10969 276646.080000
   4259   4261     1   0.10969 276646.080000
   4264   4265     1   0.10969 276646.080000
   4264   4266     1   0.10969 276646.080000
   4267   4268     1   0.10969 276646.080000
   4267   4269     1   0.10969 276646.080000
   4270   4271     1   0.10969 276646.080000
   4270   4272     1   0.10969 276646.080000
   4273   4274     1   0.10969 276646.080000
   4273   4275     1   0.10969 276646.080000
   4276   4277     1   0.10969 276646.080000
   4276   4278     1   0.10969 276646.080000
   4279   4280     1   0.10969 276646.080000
   4279   4281     1   0.10969 276646.080000
   4282   4283     1   0.10969 276646.080000
   4282   4284     1   0.10969 276646.080000
   4285   4286     1   0.10969 276646.080000
   4285   4287     1   0.10969 276646.080000
   4288   4289     1   0.10969 276646.080000
   4288   4290     1   0.10969 276646.080000
   4293   4294     1   0.10969 276646.080000
   4293   4295     1   0.10969 276646.080000
   4296   4297     1   0.10969 276646.080000
   4296   4298     1   0.10969 276646.080000
   4299   4300     1   0.10969 276646.080000
   4299   4301     1   0.10969 276646.080000
   4302   4303     1   0.10969 276646.080000
   4302   4304     1   0.10969 276646.080000
   4305   4306     1   0.10969 276646.080000
   4305   4307     1   0.10969 276646.080000
   4308   4309     1   0.10969 276646.080000
   4308   4310     1   0.10969 276646.080000
   4311   4312     1   0.10969 276646.080000
   4311   4313     1   0.10969 276646.080000
   4314   4315     1   0.10969 276646.080000
   4314   4316     1   0.10969 276646.080000
   4317   4318     1   0.10969 276646.080000
   4317   4319     1   0.10969 276646.080000
   4322   4323     1   0.10969 276646.080000
   4322   4324     1   0.10969 276646.080000
   4325   4326     1   0.10969 276646.080000
   4325   4327     1   0.10969 276646.080000
   4328   4329     1   0.10969 276646.080000
   4328   4330     1   0.10969 276646.080000
   4331   4332     1   0.10969 276646.080000
   4331   4333     1   0.10969 276646.080000
   4334   4335     1   0.10969 276646.080000
   4334   4336     1   0.10969 276646.080000
   4337   4338     1   0.10969 276646.080000
   4337   4339     1   0.10969 276646.080000
   4340   4341     1   0.10969 276646.080000
   4340   4342     1   0.10969 276646.080000
   4343   4344     1   0.10969 276646.080000
   4343   4345     1   0.10969 276646.080000
   4346   4347     1   0.10969 276646.080000
   4346   4348     1   0.10969 276646.080000
   4351   4352     1   0.10969 276646.080000
   4351   4353     1   0.10969 276646.080000
   4354   4355     1   0.10969 276646.080000
   4354   4356     1   0.10969 276646.080000
   4357   4358     1   0.10969 276646.080000
   4357   4359     1   0.10969 276646.080000
   4360   4361     1   0.10969 276646.080000
   4360   4362     1   0.10969 276646.080000
   4363   4364     1   0.10969 276646.080000
   4363   4365     1   0.10969 276646.080000
   4366   4367     1   0.10969 276646.080000
   4366   4368     1   0.10969 276646.080000
   4369   4370     1   0.10969 276646.080000
   4369   4371     1   0.10969 276646.080000
   4372   4373     1   0.10969 276646.080000
   4372   4374     1   0.10969 276646.080000
   4375   4376     1   0.10969 276646.080000
   4375   4377     1   0.10969 276646.080000
   4380   4381     1   0.10969 276646.080000
   4380   4382     1   0.10969 276646.080000
   4383   4384     1   0.10969 276646.080000
   4383   4385     1   0.10969 276646.080000
   4386   4387     1   0.10969 276646.080000
   4386   4388     1   0.10969 276646.080000
   4389   4390     1   0.10969 276646.080000
   4389   4391     1   0.10969 276646.080000
   4392   4393     1   0.10969 276646.080000
   4392   4394     1   0.10969 276646.080000
   4395   4396     1   0.10969 276646.080000
   4395   4397     1   0.10969 276646.080000
   4398   4399     1   0.10969 276646.080000
   4398   4400     1   0.10969 276646.080000
   4401   4402     1   0.10969 276646.080000
   4401   4403     1   0.10969 276646.080000
   4404   4405     1   0.10969 276646.080000
   4404   4406     1   0.10969 276646.080000
   4409   4410     1   0.10969 276646.080000
   4409   4411     1   0.10969 276646.080000
   4412   4413     1   0.10969 276646.080000
   4412   4414     1   0.10969 276646.080000
   4415   4416     1   0.10969 276646.080000
   4415   4417     1   0.10969 276646.080000
   4418   4419     1   0.10969 276646.080000
   4418   4420     1   0.10969 276646.080000
   4421   4422     1   0.10969 276646.080000
   4421   4423     1   0.10969 276646.080000
   4424   4425     1   0.10969 276646.080000
   4424   4426     1   0.10969 276646.080000
   4427   4428     1   0.10969 276646.080000
   4427   4429     1   0.10969 276646.080000
   4430   4431     1   0.10969 276646.080000
   4430   4432     1   0.10969 276646.080000
   4433   4434     1   0.10969 276646.080000
   4433   4435     1   0.10969 276646.080000
   4438   4439     1   0.10969 276646.080000
   4438   4440     1   0.10969 276646.080000
   4441   4442     1   0.10969 276646.080000
   4441   4443     1   0.10969 276646.080000
   4444   4445     1   0.10969 276646.080000
   4444   4446     1   0.10969 276646.080000
   4447   4448     1   0.10969 276646.080000
   4447   4449     1   0.10969 276646.080000
   4450   4451     1   0.10969 276646.080000
   4450   4452     1   0.10969 276646.080000
   4453   4454     1   0.10969 276646.080000
   4453   4455     1   0.10969 276646.080000
   4456   4457     1   0.10969 276646.080000
   4456   4458     1   0.10969 276646.080000
   4459   4460     1   0.10969 276646.080000
   4459   4461     1   0.10969 276646.080000
   4462   4463     1   0.10969 276646.080000
   4462   4464     1   0.10969 276646.080000
   4467   4468     1   0.10969 276646.080000
   4467   4469     1   0.10969 276646.080000
   4470   4471     1   0.10969 276646.080000
   4470   4472     1   0.10969 276646.080000
   4473   4474     1   0.10969 276646.080000
   4473   4475     1   0.10969 276646.080000
   4476   4477     1   0.10969 276646.080000
   4476   4478     1   0.10969 276646.080000
   4479   4480     1   0.10969 276646.080000
   4479   4481     1   0.10969 276646.080000
   4482   4483     1   0.10969 276646.080000
   4482   4484     1   0.10969 276646.080000
   4485   4486     1   0.10969 276646.080000
   4485   4487     1   0.10969 276646.080000
   4488   4489     1   0.10969 276646.080000
   4488   4490     1   0.10969 276646.080000
   4491   4492     1   0.10969 276646.080000
   4491   4493     1   0.10969 276646.080000
   4496   4497     1   0.10969 276646.080000
   4496   4498     1   0.10969 276646.080000
   4499   4500     1   0.10969 276646.080000
   4499   4501     1   0.10969 276646.080000
   4502   4503     1   0.10969 276646.080000
   4502   4504     1   0.10969 276646.080000
   4505   4506     1   0.10969 276646.080000
   4505   4507     1   0.10969 276646.080000
   4508   4509     1   0.10969 276646.080000
   4508   4510     1   0.10969 276646.080000
   4511   4512     1   0.10969 276646.080000
   4511   4513     1   0.10969 276646.080000
   4514   4515     1   0.10969 276646.080000
   4514   4516     1   0.10969 276646.080000
   4517   4518     1   0.10969 276646.080000
   4517   4519     1   0.10969 276646.080000
   4520   4521     1   0.10969 276646.080000
   4520   4522     1   0.10969 276646.080000
   4525   4526     1   0.10969 276646.080000
   4525   4527     1   0.10969 276646.080000
   4528   4529     1   0.10969 276646.080000
   4528   4530     1   0.10969 276646.080000
   4531   4532     1   0.10969 276646.080000
   4531   4533     1   0.10969 276646.080000
   4534   4535     1   0.10969 276646.080000
   4534   4536     1   0.10969 276646.080000
   4537   4538     1   0.10969 276646.080000
   4537   4539     1   0.10969 276646.080000
   4540   4541     1   0.10969 276646.080000
   4540   4542     1   0.10969 276646.080000
   4543   4544     1   0.10969 276646.080000
   4543   4545     1   0.10969 276646.080000
   4546   4547     1   0.10969 276646.080000
   4546   4548     1   0.10969 276646.080000
   4549   4550     1   0.10969 276646.080000
   4549   4551     1   0.10969 276646.080000
   4554   4555     1   0.10969 276646.080000
   4554   4556     1   0.10969 276646.080000
   4557   4558     1   0.10969 276646.080000
   4557   4559     1   0.10969 276646.080000
   4560   4561     1   0.10969 276646.080000
   4560   4562     1   0.10969 276646.080000
   4563   4564     1   0.10969 276646.080000
   4563   4565     1   0.10969 276646.080000
   4566   4567     1   0.10969 276646.080000
   4566   4568     1   0.10969 276646.080000
   4569   4570     1   0.10969 276646.080000
   4569   4571     1   0.10969 276646.080000
   4572   4573     1   0.10969 276646.080000
   4572   4574     1   0.10969 276646.080000
   4575   4576     1   0.10969 276646.080000
   4575   4577     1   0.10969 276646.080000
   4578   4579     1   0.10969 276646.080000
   4578   4580     1   0.10969 276646.080000
   4583   4584     1   0.10969 276646.080000
   4583   4585     1   0.10969 276646.080000
   4586   4587     1   0.10969 276646.080000
   4586   4588     1   0.10969 276646.080000
   4589   4590     1   0.10969 276646.080000
   4589   4591     1   0.10969 276646.080000
   4592   4593     1   0.10969 276646.080000
   4592   4594     1   0.10969 276646.080000
   4595   4596     1   0.10969 276646.080000
   4595   4597     1   0.10969 276646.080000
   4598   4599     1   0.10969 276646.080000
   4598   4600     1   0.10969 276646.080000
   4601   4602     1   0.10969 276646.080000
   4601   4603     1   0.10969 276646.080000
   4604   4605     1   0.10969 276646.080000
   4604   4606     1   0.10969 276646.080000
   4607   4608     1   0.10969 276646.080000
   4607   4609     1   0.10969 276646.080000
   4612   4613     1   0.10969 276646.080000
   4612   4614     1   0.10969 276646.080000
   4615   4616     1   0.10969 276646.080000
   4615   4617     1   0.10969 276646.080000
   4618   4619     1   0.10969 276646.080000
   4618   4620     1   0.10969 276646.080000
   4621   4622     1   0.10969 276646.080000
   4621   4623     1   0.10969 276646.080000
   4624   4625     1   0.10969 276646.080000
   4624   4626     1   0.10969 276646.080000
   4627   4628     1   0.10969 276646.080000
   4627   4629     1   0.10969 276646.080000
   4630   4631     1   0.10969 276646.080000
   4630   4632     1   0.10969 276646.080000
   4633   4634     1   0.10969 276646.080000
   4633   4635     1   0.10969 276646.080000
   4636   4637     1   0.10969 276646.080000
   4636   4638     1   0.10969 276646.080000
   4641   4642     1   0.10969 276646.080000
   4641   4643     1   0.10969 276646.080000
   4644   4645     1   0.10969 276646.080000
   4644   4646     1   0.10969 276646.080000
   4647   4648     1   0.10969 276646.080000
   4647   4649     1   0.10969 276646.080000
   4650   4651     1   0.10969 276646.080000
   4650   4652     1   0.10969 276646.080000
   4653   4654     1   0.10969 276646.080000
   4653   4655     1   0.10969 276646.080000
   4656   4657     1   0.10969 276646.080000
   4656   4658     1   0.10969 276646.080000
   4659   4660     1   0.10969 276646.080000
   4659   4661     1   0.10969 276646.080000
   4662   4663     1   0.10969 276646.080000
   4662   4664     1   0.10969 276646.080000
   4665   4666     1   0.10969 276646.080000
   4665   4667     1   0.10969 276646.080000
   4670   4671     1   0.10969 276646.080000
   4670   4672     1   0.10969 276646.080000
   4673   4674     1   0.10969 276646.080000
   4673   4675     1   0.10969 276646.080000
   4676   4677     1   0.10969 276646.080000
   4676   4678     1   0.10969 276646.080000
   4679   4680     1   0.10969 276646.080000
   4679   4681     1   0.10969 276646.080000
   4682   4683     1   0.10969 276646.080000
   4682   4684     1   0.10969 276646.080000
   4685   4686     1   0.10969 276646.080000
   4685   4687     1   0.10969 276646.080000
   4688   4689     1   0.10969 276646.080000
   4688   4690     1   0.10969 276646.080000
   4691   4692     1   0.10969 276646.080000
   4691   4693     1   0.10969 276646.080000
   4694   4695     1   0.10969 276646.080000
   4694   4696     1   0.10969 276646.080000
   4699   4700     1   0.10969 276646.080000
   4699   4701     1   0.10969 276646.080000
   4702   4703     1   0.10969 276646.080000
   4702   4704     1   0.10969 276646.080000
   4705   4706     1   0.10969 276646.080000
   4705   4707     1   0.10969 276646.080000
   4708   4709     1   0.10969 276646.080000
   4708   4710     1   0.10969 276646.080000
   4711   4712     1   0.10969 276646.080000
   4711   4713     1   0.10969 276646.080000
   4714   4715     1   0.10969 276646.080000
   4714   4716     1   0.10969 276646.080000
   4717   4718     1   0.10969 276646.080000
   4717   4719     1   0.10969 276646.080000
   4720   4721     1   0.10969 276646.080000
   4720   4722     1   0.10969 276646.080000
   4723   4724     1   0.10969 276646.080000
   4723   4725     1   0.10969 276646.080000
   4728   4729     1   0.10969 276646.080000
   4728   4730     1   0.10969 276646.080000
   4731   4732     1   0.10969 276646.080000
   4731   4733     1   0.10969 276646.080000
   4734   4735     1   0.10969 276646.080000
   4734   4736     1   0.10969 276646.080000
   4737   4738     1   0.10969 276646.080000
   4737   4739     1   0.10969 276646.080000
   4740   4741     1   0.10969 276646.080000
   4740   4742     1   0.10969 276646.080000
   4743   4744     1   0.10969 276646.080000
   4743   4745     1   0.10969 276646.080000
   4746   4747     1   0.10969 276646.080000
   4746   4748     1   0.10969 276646.080000
   4749   4750     1   0.10969 276646.080000
   4749   4751     1   0.10969 276646.080000
   4752   4753     1   0.10969 276646.080000
   4752   4754     1   0.10969 276646.080000
   4757   4758     1   0.10969 276646.080000
   4757   4759     1   0.10969 276646.080000
   4760   4761     1   0.10969 276646.080000
   4760   4762     1   0.10969 276646.080000
   4763   4764     1   0.10969 276646.080000
   4763   4765     1   0.10969 276646.080000
   4766   4767     1   0.10969 276646.080000
   4766   4768     1   0.10969 276646.080000
   4769   4770     1   0.10969 276646.080000
   4769   4771     1   0.10969 276646.080000
   4772   4773     1   0.10969 276646.080000
   4772   4774     1   0.10969 276646.080000
   4775   4776     1   0.10969 276646.080000
   4775   4777     1   0.10969 276646.080000
   4778   4779     1   0.10969 276646.080000
   4778   4780     1   0.10969 276646.080000
   4781   4782     1   0.10969 276646.080000
   4781   4783     1   0.10969 276646.080000
   4786   4787     1   0.10969 276646.080000
   4786   4788     1   0.10969 276646.080000
   4789   4790     1   0.10969 276646.080000
   4789   4791     1   0.10969 276646.080000
   4792   4793     1   0.10969 276646.080000
   4792   4794     1   0.10969 276646.080000
   4795   4796     1   0.10969 276646.080000
   4795   4797     1   0.10969 276646.080000
   4798   4799     1   0.10969 276646.080000
   4798   4800     1   0.10969 276646.080000
   4801   4802     1   0.10969 276646.080000
   4801   4803     1   0.10969 276646.080000
   4804   4805     1   0.10969 276646.080000
   4804   4806     1   0.10969 276646.080000
   4807   4808     1   0.10969 276646.080000
   4807   4809     1   0.10969 276646.080000
   4810   4811     1   0.10969 276646.080000
   4810   4812     1   0.10969 276646.080000
   4815   4816     1   0.10969 276646.080000
   4815   4817     1   0.10969 276646.080000
   4818   4819     1   0.10969 276646.080000
   4818   4820     1   0.10969 276646.080000
   4821   4822     1   0.10969 276646.080000
   4821   4823     1   0.10969 276646.080000
   4824   4825     1   0.10969 276646.080000
   4824   4826     1   0.10969 276646.080000
   4827   4828     1   0.10969 276646.080000
   4827   4829     1   0.10969 276646.080000
   4830   4831     1   0.10969 276646.080000
   4830   4832     1   0.10969 276646.080000
   4833   4834     1   0.10969 276646.080000
   4833   4835     1   0.10969 276646.080000
   4836   4837     1   0.10969 276646.080000
   4836   4838     1   0.10969 276646.080000
   4839   4840     1   0.10969 276646.080000
   4839   4841     1   0.10969 276646.080000
   4844   4845     1   0.10969 276646.080000
   4844   4846     1   0.10969 276646.080000
   4847   4848     1   0.10969 276646.080000
   4847   4849     1   0.10969 276646.080000
   4850   4851     1   0.10969 276646.080000
   4850   4852     1   0.10969 276646.080000
   4853   4854     1   0.10969 276646.080000
   4853   4855     1   0.10969 276646.080000
   4856   4857     1   0.10969 276646.080000
   4856   4858     1   0.10969 276646.080000
   4859   4860     1   0.10969 276646.080000
   4859   4861     1   0.10969 276646.080000
   4862   4863     1   0.10969 276646.080000
   4862   4864     1   0.10969 276646.080000
   4865   4866     1   0.10969 276646.080000
   4865   4867     1   0.10969 276646.080000
   4868   4869     1   0.10969 276646.080000
   4868   4870     1   0.10969 276646.080000
   4873   4874     1   0.10969 276646.080000
   4873   4875     1   0.10969 276646.080000
   4876   4877     1   0.10969 276646.080000
   4876   4878     1   0.10969 276646.080000
   4879   4880     1   0.10969 276646.080000
   4879   4881     1   0.10969 276646.080000
   4882   4883     1   0.10969 276646.080000
   4882   4884     1   0.10969 276646.080000
   4885   4886     1   0.10969 276646.080000
   4885   4887     1   0.10969 276646.080000
   4888   4889     1   0.10969 276646.080000
   4888   4890     1   0.10969 276646.080000
   4891   4892     1   0.10969 276646.080000
   4891   4893     1   0.10969 276646.080000
   4894   4895     1   0.10969 276646.080000
   4894   4896     1   0.10969 276646.080000
   4897   4898     1   0.10969 276646.080000
   4897   4899     1   0.10969 276646.080000
   4902   4903     1   0.10969 276646.080000
   4902   4904     1   0.10969 276646.080000
   4905   4906     1   0.10969 276646.080000
   4905   4907     1   0.10969 276646.080000
   4908   4909     1   0.10969 276646.080000
   4908   4910     1   0.10969 276646.080000
   4911   4912     1   0.10969 276646.080000
   4911   4913     1   0.10969 276646.080000
   4914   4915     1   0.10969 276646.080000
   4914   4916     1   0.10969 276646.080000
   4917   4918     1   0.10969 276646.080000
   4917   4919     1   0.10969 276646.080000
   4920   4921     1   0.10969 276646.080000
   4920   4922     1   0.10969 276646.080000
   4923   4924     1   0.10969 276646.080000
   4923   4925     1   0.10969 276646.080000
   4926   4927     1   0.10969 276646.080000
   4926   4928     1   0.10969 276646.080000
   4931   4932     1   0.10969 276646.080000
   4931   4933     1   0.10969 276646.080000
   4934   4935     1   0.10969 276646.080000
   4934   4936     1   0.10969 276646.080000
   4937   4938     1   0.10969 276646.080000
   4937   4939     1   0.10969 276646.080000
   4940   4941     1   0.10969 276646.080000
   4940   4942     1   0.10969 276646.080000
   4943   4944     1   0.10969 276646.080000
   4943   4945     1   0.10969 276646.080000
   4946   4947     1   0.10969 276646.080000
   4946   4948     1   0.10969 276646.080000
   4949   4950     1   0.10969 276646.080000
   4949   4951     1   0.10969 276646.080000
   4952   4953     1   0.10969 276646.080000
   4952   4954     1   0.10969 276646.080000
   4955   4956     1   0.10969 276646.080000
   4955   4957     1   0.10969 276646.080000
   4960   4961     1   0.10969 276646.080000
   4960   4962     1   0.10969 276646.080000
   4963   4964     1   0.10969 276646.080000
   4963   4965     1   0.10969 276646.080000
   4966   4967     1   0.10969 276646.080000
   4966   4968     1   0.10969 276646.080000
   4969   4970     1   0.10969 276646.080000
   4969   4971     1   0.10969 276646.080000
   4972   4973     1   0.10969 276646.080000
   4972   4974     1   0.10969 276646.080000
   4975   4976     1   0.10969 276646.080000
   4975   4977     1   0.10969 276646.080000
   4978   4979     1   0.10969 276646.080000
   4978   4980     1   0.10969 276646.080000
   4981   4982     1   0.10969 276646.080000
   4981   4983     1   0.10969 276646.080000
   4984   4985     1   0.10969 276646.080000
   4984   4986     1   0.10969 276646.080000
   4989   4990     1   0.10969 276646.080000
   4989   4991     1   0.10969 276646.080000
   4992   4993     1   0.10969 276646.080000
   4992   4994     1   0.10969 276646.080000
   4995   4996     1   0.10969 276646.080000
   4995   4997     1   0.10969 276646.080000
   4998   4999     1   0.10969 276646.080000
   4998   5000     1   0.10969 276646.080000
   5001   5002     1   0.10969 276646.080000
   5001   5003     1   0.10969 276646.080000
   5004   5005     1   0.10969 276646.080000
   5004   5006     1   0.10969 276646.080000
   5007   5008     1   0.10969 276646.080000
   5007   5009     1   0.10969 276646.080000
   5010   5011     1   0.10969 276646.080000
   5010   5012     1   0.10969 276646.080000
   5013   5014     1   0.10969 276646.080000
   5013   5015     1   0.10969 276646.080000
   5018   5019     1   0.10969 276646.080000
   5018   5020     1   0.10969 276646.080000
   5021   5022     1   0.10969 276646.080000
   5021   5023     1   0.10969 276646.080000
   5024   5025     1   0.10969 276646.080000
   5024   5026     1   0.10969 276646.080000
   5027   5028     1   0.10969 276646.080000
   5027   5029     1   0.10969 276646.080000
   5030   5031     1   0.10969 276646.080000
   5030   5032     1   0.10969 276646.080000
   5033   5034     1   0.10969 276646.080000
   5033   5035     1   0.10969 276646.080000
   5036   5037     1   0.10969 276646.080000
   5036   5038     1   0.10969 276646.080000
   5039   5040     1   0.10969 276646.080000
   5039   5041     1   0.10969 276646.080000
   5042   5043     1   0.10969 276646.080000
   5042   5044     1   0.10969 276646.080000
   5047   5048     1   0.10969 276646.080000
   5047   5049     1   0.10969 276646.080000
   5050   5051     1   0.10969 276646.080000
   5050   5052     1   0.10969 276646.080000
   5053   5054     1   0.10969 276646.080000
   5053   5055     1   0.10969 276646.080000
   5056   5057     1   0.10969 276646.080000
   5056   5058     1   0.10969 276646.080000
   5059   5060     1   0.10969 276646.080000
   5059   5061     1   0.10969 276646.080000
   5062   5063     1   0.10969 276646.080000
   5062   5064     1   0.10969 276646.080000
   5065   5066     1   0.10969 276646.080000
   5065   5067     1   0.10969 276646.080000
   5068   5069     1   0.10969 276646.080000
   5068   5070     1   0.10969 276646.080000
   5071   5072     1   0.10969 276646.080000
   5071   5073     1   0.10969 276646.080000
   5076   5077     1   0.10969 276646.080000
   5076   5078     1   0.10969 276646.080000
   5079   5080     1   0.10969 276646.080000
   5079   5081     1   0.10969 276646.080000
   5082   5083     1   0.10969 276646.080000
   5082   5084     1   0.10969 276646.080000
   5085   5086     1   0.10969 276646.080000
   5085   5087     1   0.10969 276646.080000
   5088   5089     1   0.10969 276646.080000
   5088   5090     1   0.10969 276646.080000
   5091   5092     1   0.10969 276646.080000
   5091   5093     1   0.10969 276646.080000
   5094   5095     1   0.10969 276646.080000
   5094   5096     1   0.10969 276646.080000
   5097   5098     1   0.10969 276646.080000
   5097   5099     1   0.10969 276646.080000
   5100   5101     1   0.10969 276646.080000
   5100   5102     1   0.10969 276646.080000
   5105   5106     1   0.10969 276646.080000
   5105   5107     1   0.10969 276646.080000
   5108   5109     1   0.10969 276646.080000
   5108   5110     1   0.10969 276646.080000
   5111   5112     1   0.10969 276646.080000
   5111   5113     1   0.10969 276646.080000
   5114   5115     1   0.10969 276646.080000
   5114   5116     1   0.10969 276646.080000
   5117   5118     1   0.10969 276646.080000
   5117   5119     1   0.10969 276646.080000
   5120   5121     1   0.10969 276646.080000
   5120   5122     1   0.10969 276646.080000
   5123   5124     1   0.10969 276646.080000
   5123   5125     1   0.10969 276646.080000
   5126   5127     1   0.10969 276646.080000
   5126   5128     1   0.10969 276646.080000
   5129   5130     1   0.10969 276646.080000
   5129   5131     1   0.10969 276646.080000
   5134   5135     1   0.10969 276646.080000
   5134   5136     1   0.10969 276646.080000
   5137   5138     1   0.10969 276646.080000
   5137   5139     1   0.10969 276646.080000
   5140   5141     1   0.10969 276646.080000
   5140   5142     1   0.10969 276646.080000
   5143   5144     1   0.10969 276646.080000
   5143   5145     1   0.10969 276646.080000
   5146   5147     1   0.10969 276646.080000
   5146   5148     1   0.10969 276646.080000
   5149   5150     1   0.10969 276646.080000
   5149   5151     1   0.10969 276646.080000
   5152   5153     1   0.10969 276646.080000
   5152   5154     1   0.10969 276646.080000
   5155   5156     1   0.10969 276646.080000
   5155   5157     1   0.10969 276646.080000
   5158   5159     1   0.10969 276646.080000
   5158   5160     1   0.10969 276646.080000
   5163   5164     1   0.10969 276646.080000
   5163   5165     1   0.10969 276646.080000
   5166   5167     1   0.10969 276646.080000
   5166   5168     1   0.10969 276646.080000
   5169   5170     1   0.10969 276646.080000
   5169   5171     1   0.10969 276646.080000
   5172   5173     1   0.10969 276646.080000
   5172   5174     1   0.10969 276646.080000
   5175   5176     1   0.10969 276646.080000
   5175   5177     1   0.10969 276646.080000
   5178   5179     1   0.10969 276646.080000
   5178   5180     1   0.10969 276646.080000
   5181   5182     1   0.10969 276646.080000
   5181   5183     1   0.10969 276646.080000
   5184   5185     1   0.10969 276646.080000
   5184   5186     1   0.10969 276646.080000
   5187   5188     1   0.10969 276646.080000
   5187   5189     1   0.10969 276646.080000
   5192   5193     1   0.10969 276646.080000
   5192   5194     1   0.10969 276646.080000
   5195   5196     1   0.10969 276646.080000
   5195   5197     1   0.10969 276646.080000
   5198   5199     1   0.10969 276646.080000
   5198   5200     1   0.10969 276646.080000
   5201   5202     1   0.10969 276646.080000
   5201   5203     1   0.10969 276646.080000
   5204   5205     1   0.10969 276646.080000
   5204   5206     1   0.10969 276646.080000
   5207   5208     1   0.10969 276646.080000
   5207   5209     1   0.10969 276646.080000
   5210   5211     1   0.10969 276646.080000
   5210   5212     1   0.10969 276646.080000
   5213   5214     1   0.10969 276646.080000
   5213   5215     1   0.10969 276646.080000
   5216   5217     1   0.10969 276646.080000
   5216   5218     1   0.10969 276646.080000
   5221   5222     1   0.10969 276646.080000
   5221   5223     1   0.10969 276646.080000
   5224   5225     1   0.10969 276646.080000
   5224   5226     1   0.10969 276646.080000
   5227   5228     1   0.10969 276646.080000
   5227   5229     1   0.10969 276646.080000
   5230   5231     1   0.10969 276646.080000
   5230   5232     1   0.10969 276646.080000
   5233   5234     1   0.10969 276646.080000
   5233   5235     1   0.10969 276646.080000
   5236   5237     1   0.10969 276646.080000
   5236   5238     1   0.10969 276646.080000
   5239   5240     1   0.10969 276646.080000
   5239   5241     1   0.10969 276646.080000
   5242   5243     1   0.10969 276646.080000
   5242   5244     1   0.10969 276646.080000
   5245   5246     1   0.10969 276646.080000
   5245   5247     1   0.10969 276646.080000
   5250   5251     1   0.10969 276646.080000
   5250   5252     1   0.10969 276646.080000
   5253   5254     1   0.10969 276646.080000
   5253   5255     1   0.10969 276646.080000
   5256   5257     1   0.10969 276646.080000
   5256   5258     1   0.10969 276646.080000
   5259   5260     1   0.10969 276646.080000
   5259   5261     1   0.10969 276646.080000
   5262   5263     1   0.10969 276646.080000
   5262   5264     1   0.10969 276646.080000
   5265   5266     1   0.10969 276646.080000
   5265   5267     1   0.10969 276646.080000
   5268   5269     1   0.10969 276646.080000
   5268   5270     1   0.10969 276646.080000
   5271   5272     1   0.10969 276646.080000
   5271   5273     1   0.10969 276646.080000
   5274   5275     1   0.10969 276646.080000
   5274   5276     1   0.10969 276646.080000
   5279   5280     1   0.10969 276646.080000
   5279   5281     1   0.10969 276646.080000
   5282   5283     1   0.10969 276646.080000
   5282   5284     1   0.10969 276646.080000
   5285   5286     1   0.10969 276646.080000
   5285   5287     1   0.10969 276646.080000
   5288   5289     1   0.10969 276646.080000
   5288   5290     1   0.10969 276646.080000
   5291   5292     1   0.10969 276646.080000
   5291   5293     1   0.10969 276646.080000
   5294   5295     1   0.10969 276646.080000
   5294   5296     1   0.10969 276646.080000
   5297   5298     1   0.10969 276646.080000
   5297   5299     1   0.10969 276646.080000
   5300   5301     1   0.10969 276646.080000
   5300   5302     1   0.10969 276646.080000
   5303   5304     1   0.10969 276646.080000
   5303   5305     1   0.10969 276646.080000
   5308   5309     1   0.10969 276646.080000
   5308   5310     1   0.10969 276646.080000
   5311   5312     1   0.10969 276646.080000
   5311   5313     1   0.10969 276646.080000
   5314   5315     1   0.10969 276646.080000
   5314   5316     1   0.10969 276646.080000
   5317   5318     1   0.10969 276646.080000
   5317   5319     1   0.10969 276646.080000
   5320   5321     1   0.10969 276646.080000
   5320   5322     1   0.10969 276646.080000
   5323   5324     1   0.10969 276646.080000
   5323   5325     1   0.10969 276646.080000
   5326   5327     1   0.10969 276646.080000
   5326   5328     1   0.10969 276646.080000
   5329   5330     1   0.10969 276646.080000
   5329   5331     1   0.10969 276646.080000
   5332   5333     1   0.10969 276646.080000
   5332   5334     1   0.10969 276646.080000
   5337   5338     1   0.10969 276646.080000
   5337   5339     1   0.10969 276646.080000
   5340   5341     1   0.10969 276646.080000
   5340   5342     1   0.10969 276646.080000
   5343   5344     1   0.10969 276646.080000
   5343   5345     1   0.10969 276646.080000
   5346   5347     1   0.10969 276646.080000
   5346   5348     1   0.10969 276646.080000
   5349   5350     1   0.10969 276646.080000
   5349   5351     1   0.10969 276646.080000
   5352   5353     1   0.10969 276646.080000
   5352   5354     1   0.10969 276646.080000
   5355   5356     1   0.10969 276646.080000
   5355   5357     1   0.10969 276646.080000
   5358   5359     1   0.10969 276646.080000
   5358   5360     1   0.10969 276646.080000
   5361   5362     1   0.10969 276646.080000
   5361   5363     1   0.10969 276646.080000
   5366   5367     1   0.10969 276646.080000
   5366   5368     1   0.10969 276646.080000
   5369   5370     1   0.10969 276646.080000
   5369   5371     1   0.10969 276646.080000
   5372   5373     1   0.10969 276646.080000
   5372   5374     1   0.10969 276646.080000
   5375   5376     1   0.10969 276646.080000
   5375   5377     1   0.10969 276646.080000
   5378   5379     1   0.10969 276646.080000
   5378   5380     1   0.10969 276646.080000
   5381   5382     1   0.10969 276646.080000
   5381   5383     1   0.10969 276646.080000
   5384   5385     1   0.10969 276646.080000
   5384   5386     1   0.10969 276646.080000
   5387   5388     1   0.10969 276646.080000
   5387   5389     1   0.10969 276646.080000
   5390   5391     1   0.10969 276646.080000
   5390   5392     1   0.10969 276646.080000
   5395   5396     1   0.10969 276646.080000
   5395   5397     1   0.10969 276646.080000
   5398   5399     1   0.10969 276646.080000
   5398   5400     1   0.10969 276646.080000
   5401   5402     1   0.10969 276646.080000
   5401   5403     1   0.10969 276646.080000
   5404   5405     1   0.10969 276646.080000
   5404   5406     1   0.10969 276646.080000
   5407   5408     1   0.10969 276646.080000
   5407   5409     1   0.10969 276646.080000
   5410   5411     1   0.10969 276646.080000
   5410   5412     1   0.10969 276646.080000
   5413   5414     1   0.10969 276646.080000
   5413   5415     1   0.10969 276646.080000
   5416   5417     1   0.10969 276646.080000
   5416   5418     1   0.10969 276646.080000
   5419   5420     1   0.10969 276646.080000
   5419   5421     1   0.10969 276646.080000
   5424   5425     1   0.10969 276646.080000
   5424   5426     1   0.10969 276646.080000
   5427   5428     1   0.10969 276646.080000
   5427   5429     1   0.10969 276646.080000
   5430   5431     1   0.10969 276646.080000
   5430   5432     1   0.10969 276646.080000
   5433   5434     1   0.10969 276646.080000
   5433   5435     1   0.10969 276646.080000
   5436   5437     1   0.10969 276646.080000
   5436   5438     1   0.10969 276646.080000
   5439   5440     1   0.10969 276646.080000
   5439   5441     1   0.10969 276646.080000
   5442   5443     1   0.10969 276646.080000
   5442   5444     1   0.10969 276646.080000
   5445   5446     1   0.10969 276646.080000
   5445   5447     1   0.10969 276646.080000
   5448   5449     1   0.10969 276646.080000
   5448   5450     1   0.10969 276646.080000
   5453   5454     1   0.10969 276646.080000
   5453   5455     1   0.10969 276646.080000
   5456   5457     1   0.10969 276646.080000
   5456   5458     1   0.10969 276646.080000
   5459   5460     1   0.10969 276646.080000
   5459   5461     1   0.10969 276646.080000
   5462   5463     1   0.10969 276646.080000
   5462   5464     1   0.10969 276646.080000
   5465   5466     1   0.10969 276646.080000
   5465   5467     1   0.10969 276646.080000
   5468   5469     1   0.10969 276646.080000
   5468   5470     1   0.10969 276646.080000
   5471   5472     1   0.10969 276646.080000
   5471   5473     1   0.10969 276646.080000
   5474   5475     1   0.10969 276646.080000
   5474   5476     1   0.10969 276646.080000
   5477   5478     1   0.10969 276646.080000
   5477   5479     1   0.10969 276646.080000
   5482   5483     1   0.10969 276646.080000
   5482   5484     1   0.10969 276646.080000
   5485   5486     1   0.10969 276646.080000
   5485   5487     1   0.10969 276646.080000
   5488   5489     1   0.10969 276646.080000
   5488   5490     1   0.10969 276646.080000
   5491   5492     1   0.10969 276646.080000
   5491   5493     1   0.10969 276646.080000
   5494   5495     1   0.10969 276646.080000
   5494   5496     1   0.10969 276646.080000
   5497   5498     1   0.10969 276646.080000
   5497   5499     1   0.10969 276646.080000
   5500   5501     1   0.10969 276646.080000
   5500   5502     1   0.10969 276646.080000
   5503   5504     1   0.10969 276646.080000
   5503   5505     1   0.10969 276646.080000
   5506   5507     1   0.10969 276646.080000
   5506   5508     1   0.10969 276646.080000
   5510   5511     1   0.10969 276646.080000
   5510   5512     1   0.10969 276646.080000
   5513   5514     1   0.10969 276646.080000
   5513   5515     1   0.10969 276646.080000
   5516   5517     1   0.10969 276646.080000
   5516   5518     1   0.10969 276646.080000
   5520   5521     1   0.10969 276646.080000
   5520   5522     1   0.10969 276646.080000
   5523   5524     1   0.10969 276646.080000
   5523   5525     1   0.10969 276646.080000
   5529   5530     1   0.10969 276646.080000
   5529   5531     1   0.10969 276646.080000
   5532   5533     1   0.10969 276646.080000
   5532   5534     1   0.10969 276646.080000
   5539   5540     1   0.10969 276646.080000
   5539   5541     1   0.10969 276646.080000
   5542   5543     1   0.10969 276646.080000
   5542   5544     1   0.10969 276646.080000
   5545   5546     1   0.10969 276646.080000
   5545   5547     1   0.10969 276646.080000
   5549   5550     1   0.10969 276646.080000
   5549   5551     1   0.10969 276646.080000
   5552   5553     1   0.10969 276646.080000
   5552   5554     1   0.10969 276646.080000
   5558   5559     1   0.10969 276646.080000
   5558   5560     1   0.10969 276646.080000
   5561   5562     1   0.10969 276646.080000
   5561   5563     1   0.10969 276646.080000
   5568   5569     1   0.10969 276646.080000
   5568   5570     1   0.10969 276646.080000
   5571   5572     1   0.10969 276646.080000
   5571   5573     1   0.10969 276646.080000
   5574   5575     1   0.10969 276646.080000
   5574   5576     1   0.10969 276646.080000
   5578   5579     1   0.10969 276646.080000
   5578   5580     1   0.10969 276646.080000
   5581   5582     1   0.10969 276646.080000
   5581   5583     1   0.10969 276646.080000
   5587   5588     1   0.10969 276646.080000
   5587   5589     1   0.10969 276646.080000
   5590   5591     1   0.10969 276646.080000
   5590   5592     1   0.10969 276646.080000
   5597   5598     1   0.10969 276646.080000
   5597   5599     1   0.10969 276646.080000
   5600   5601     1   0.10969 276646.080000
   5600   5602     1   0.10969 276646.080000
   5603   5604     1   0.10969 276646.080000
   5603   5605     1   0.10969 276646.080000
   5607   5608     1   0.10969 276646.080000
   5607   5609     1   0.10969 276646.080000
   5610   5611     1   0.10969 276646.080000
   5610   5612     1   0.10969 276646.080000
   5616   5617     1   0.10969 276646.080000
   5616   5618     1   0.10969 276646.080000
   5619   5620     1   0.10969 276646.080000
   5619   5621     1   0.10969 276646.080000
   5626   5627     1   0.10969 276646.080000
   5626   5628     1   0.10969 276646.080000
   5629   5630     1   0.10969 276646.080000
   5629   5631     1   0.10969 276646.080000
   5632   5633     1   0.10969 276646.080000
   5632   5634     1   0.10969 276646.080000
   5636   5637     1   0.10969 276646.080000
   5636   5638     1   0.10969 276646.080000
   5639   5640     1   0.10969 276646.080000
   5639   5641     1   0.10969 276646.080000
   5645   5646     1   0.10969 276646.080000
   5645   5647     1   0.10969 276646.080000
   5648   5649     1   0.10969 276646.080000
   5648   5650     1   0.10969 276646.080000
   5655   5656     1   0.10969 276646.080000
   5655   5657     1   0.10969 276646.080000
   5658   5659     1   0.10969 276646.080000
   5658   5660     1   0.10969 276646.080000
   5661   5662     1   0.10969 276646.080000
   5661   5663     1   0.10969 276646.080000
   5665   5666     1   0.10969 276646.080000
   5665   5667     1   0.10969 276646.080000
   5668   5669     1   0.10969 276646.080000
   5668   5670     1   0.10969 276646.080000
   5674   5675     1   0.10969 276646.080000
   5674   5676     1   0.10969 276646.080000
   5677   5678     1   0.10969 276646.080000
   5677   5679     1   0.10969 276646.080000
   5684   5685     1   0.10969 276646.080000
   5684   5686     1   0.10969 276646.080000
   5687   5688     1   0.10969 276646.080000
   5687   5689     1   0.10969 276646.080000
   5690   5691     1   0.10969 276646.080000
   5690   5692     1   0.10969 276646.080000
   5694   5695     1   0.10969 276646.080000
   5694   5696     1   0.10969 276646.080000
   5697   5698     1   0.10969 276646.080000
   5697   5699     1   0.10969 276646.080000
   5703   5704     1   0.10969 276646.080000
   5703   5705     1   0.10969 276646.080000
   5706   5707     1   0.10969 276646.080000
   5706   5708     1   0.10969 276646.080000
   5713   5714     1   0.10969 276646.080000
   5713   5715     1   0.10969 276646.080000
   5716   5717     1   0.10969 276646.080000
   5716   5718     1   0.10969 276646.080000
   5719   5720     1   0.10969 276646.080000
   5719   5721     1   0.10969 276646.080000
   5723   5724     1   0.10969 276646.080000
   5723   5725     1   0.10969 276646.080000
   5726   5727     1   0.10969 276646.080000
   5726   5728     1   0.10969 276646.080000
   5732   5733     1   0.10969 276646.080000
   5732   5734     1   0.10969 276646.080000
   5735   5736     1   0.10969 276646.080000
   5735   5737     1   0.10969 276646.080000
   5742   5743     1   0.10969 276646.080000
   5742   5744     1   0.10969 276646.080000
   5745   5746     1   0.10969 276646.080000
   5745   5747     1   0.10969 276646.080000
   5748   5749     1   0.10969 276646.080000
   5748   5750     1   0.10969 276646.080000
   5752   5753     1   0.10969 276646.080000
   5752   5754     1   0.10969 276646.080000
   5755   5756     1   0.10969 276646.080000
   5755   5757     1   0.10969 276646.080000
   5761   5762     1   0.10969 276646.080000
   5761   5763     1   0.10969 276646.080000
   5764   5765     1   0.10969 276646.080000
   5764   5766     1   0.10969 276646.080000
   5771   5772     1   0.10969 276646.080000
   5771   5773     1   0.10969 276646.080000
   5774   5775     1   0.10969 276646.080000
   5774   5776     1   0.10969 276646.080000
   5777   5778     1   0.10969 276646.080000
   5777   5779     1   0.10969 276646.080000
   5781   5782     1   0.10969 276646.080000
   5781   5783     1   0.10969 276646.080000
   5784   5785     1   0.10969 276646.080000
   5784   5786     1   0.10969 276646.080000
   5790   5791     1   0.10969 276646.080000
   5790   5792     1   0.10969 276646.080000
   5793   5794     1   0.10969 276646.080000
   5793   5795     1   0.10969 276646.080000
   5800   5801     1   0.10969 276646.080000
   5800   5802     1   0.10969 276646.080000
   5803   5804     1   0.10969 276646.080000
   5803   5805     1   0.10969 276646.080000
   5806   5807     1   0.10969 276646.080000
   5806   5808     1   0.10969 276646.080000
   5810   5811     1   0.10969 276646.080000
   5810   5812     1   0.10969 276646.080000
   5813   5814     1   0.10969 276646.080000
   5813   5815     1   0.10969 276646.080000
   5819   5820     1   0.10969 276646.080000
   5819   5821     1   0.10969 276646.080000
   5822   5823     1   0.10969 276646.080000
   5822   5824     1   0.10969 276646.080000
   5829   5830     1   0.10969 276646.080000
   5829   5831     1   0.10969 276646.080000
   5832   5833     1   0.10969 276646.080000
   5832   5834     1   0.10969 276646.080000
   5835   5836     1   0.10969 276646.080000
   5835   5837     1   0.10969 276646.080000
   5839   5840     1   0.10969 276646.080000
   5839   5841     1   0.10969 276646.080000
   5842   5843     1   0.10969 276646.080000
   5842   5844     1   0.10969 276646.080000
   5848   5849     1   0.10969 276646.080000
   5848   5850     1   0.10969 276646.080000
   5851   5852     1   0.10969 276646.080000
   5851   5853     1   0.10969 276646.080000
   5858   5859     1   0.10969 276646.080000
   5858   5860     1   0.10969 276646.080000
   5861   5862     1   0.10969 276646.080000
   5861   5863     1   0.10969 276646.080000
   5864   5865     1   0.10969 276646.080000
   5864   5866     1   0.10969 276646.080000
   5868   5869     1   0.10969 276646.080000
   5868   5870     1   0.10969 276646.080000
   5871   5872     1   0.10969 276646.080000
   5871   5873     1   0.10969 276646.080000
   5877   5878     1   0.10969 276646.080000
   5877   5879     1   0.10969 276646.080000
   5880   5881     1   0.10969 276646.080000
   5880   5882     1   0.10969 276646.080000
   5887   5888     1   0.10969 276646.080000
   5887   5889     1   0.10969 276646.080000
   5890   5891     1   0.10969 276646.080000
   5890   5892     1   0.10969 276646.080000
   5893   5894     1   0.10969 276646.080000
   5893   5895     1   0.10969 276646.080000
   5897   5898     1   0.10969 276646.080000
   5897   5899     1   0.10969 276646.080000
   5900   5901     1   0.10969 276646.080000
   5900   5902     1   0.10969 276646.080000
   5906   5907     1   0.10969 276646.080000
   5906   5908     1   0.10969 276646.080000
   5909   5910     1   0.10969 276646.080000
   5909   5911     1   0.10969 276646.080000
   5916   5917     1   0.10969 276646.080000
   5916   5918     1   0.10969 276646.080000
   5919   5920     1   0.10969 276646.080000
   5919   5921     1   0.10969 276646.080000
   5922   5923     1   0.10969 276646.080000
   5922   5924     1   0.10969 276646.080000
   5926   5927     1   0.10969 276646.080000
   5926   5928     1   0.10969 276646.080000
   5929   5930     1   0.10969 276646.080000
   5929   5931     1   0.10969 276646.080000
   5935   5936     1   0.10969 276646.080000
   5935   5937     1   0.10969 276646.080000
   5938   5939     1   0.10969 276646.080000
   5938   5940     1   0.10969 276646.080000
   5945   5946     1   0.10969 276646.080000
   5945   5947     1   0.10969 276646.080000
   5948   5949     1   0.10969 276646.080000
   5948   5950     1   0.10969 276646.080000
   5951   5952     1   0.10969 276646.080000
   5951   5953     1   0.10969 276646.080000
   5955   5956     1   0.10969 276646.080000
   5955   5957     1   0.10969 276646.080000
   5958   5959     1   0.10969 276646.080000
   5958   5960     1   0.10969 276646.080000
   5964   5965     1   0.10969 276646.080000
   5964   5966     1   0.10969 276646.080000
   5967   5968     1   0.10969 276646.080000
   5967   5969     1   0.10969 276646.080000
   5974   5975     1   0.10969 276646.080000
   5974   5976     1   0.10969 276646.080000
   5977   5978     1   0.10969 276646.080000
   5977   5979     1   0.10969 276646.080000
   5980   5981     1   0.10969 276646.080000
   5980   5982     1   0.10969 276646.080000
   5984   5985     1   0.10969 276646.080000
   5984   5986     1   0.10969 276646.080000
   5987   5988     1   0.10969 276646.080000
   5987   5989     1   0.10969 276646.080000
   5993   5994     1   0.10969 276646.080000
   5993   5995     1   0.10969 276646.080000
   5996   5997     1   0.10969 276646.080000
   5996   5998     1   0.10969 276646.080000
   6003   6004     1   0.10969 276646.080000
   6003   6005     1   0.10969 276646.080000
   6006   6007     1   0.10969 276646.080000
   6006   6008     1   0.10969 276646.080000
   6009   6010     1   0.10969 276646.080000
   6009   6011     1   0.10969 276646.080000
   6013   6014     1   0.10969 276646.080000
   6013   6015     1   0.10969 276646.080000
   6016   6017     1   0.10969 276646.080000
   6016   6018     1   0.10969 276646.080000
   6022   6023     1   0.10969 276646.080000
   6022   6024     1   0.10969 276646.080000
   6025   6026     1   0.10969 276646.080000
   6025   6027     1   0.10969 276646.080000
   6032   6033     1   0.10969 276646.080000
   6032   6034     1   0.10969 276646.080000
   6035   6036     1   0.10969 276646.080000
   6035   6037     1   0.10969 276646.080000
   6038   6039     1   0.10969 276646.080000
   6038   6040     1   0.10969 276646.080000
   6042   6043     1   0.10969 276646.080000
   6042   6044     1   0.10969 276646.080000
   6045   6046     1   0.10969 276646.080000
   6045   6047     1   0.10969 276646.080000
   6051   6052     1   0.10969 276646.080000
   6051   6053     1   0.10969 276646.080000
   6054   6055     1   0.10969 276646.080000
   6054   6056     1   0.10969 276646.080000
   6061   6062     1   0.10969 276646.080000
   6061   6063     1   0.10969 276646.080000
   6064   6065     1   0.10969 276646.080000
   6064   6066     1   0.10969 276646.080000
   6067   6068     1   0.10969 276646.080000
   6067   6069     1   0.10969 276646.080000
   6071   6072     1   0.10969 276646.080000
   6071   6073     1   0.10969 276646.080000
   6074   6075     1   0.10969 276646.080000
   6074   6076     1   0.10969 276646.080000
   6080   6081     1   0.10969 276646.080000
   6080   6082     1   0.10969 276646.080000
   6083   6084     1   0.10969 276646.080000
   6083   6085     1   0.10969 276646.080000
   6090   6091     1   0.10969 276646.080000
   6090   6092     1   0.10969 276646.080000
   6093   6094     1   0.10969 276646.080000
   6093   6095     1   0.10969 276646.080000
   6096   6097     1   0.10969 276646.080000
   6096   6098     1   0.10969 276646.080000
   6100   6101     1   0.10969 276646.080000
   6100   6102     1   0.10969 276646.080000
   6103   6104     1   0.10969 276646.080000
   6103   6105     1   0.10969 276646.080000
   6109   6110     1   0.10969 276646.080000
   6109   6111     1   0.10969 276646.080000
   6112   6113     1   0.10969 276646.080000
   6112   6114     1   0.10969 276646.080000
   6119   6120     1   0.10969 276646.080000
   6119   6121     1   0.10969 276646.080000
   6122   6123     1   0.10969 276646.080000
   6122   6124     1   0.10969 276646.080000
   6125   6126     1   0.10969 276646.080000
   6125   6127     1   0.10969 276646.080000
   6129   6130     1   0.10969 276646.080000
   6129   6131     1   0.10969 276646.080000
   6132   6133     1   0.10969 276646.080000
   6132   6134     1   0.10969 276646.080000
   6138   6139     1   0.10969 276646.080000
   6138   6140     1   0.10969 276646.080000
   6141   6142     1   0.10969 276646.080000
   6141   6143     1   0.10969 276646.080000
   6148   6149     1   0.10969 276646.080000
   6148   6150     1   0.10969 276646.080000
   6151   6152     1   0.10969 276646.080000
   6151   6153     1   0.10969 276646.080000
   6154   6155     1   0.10969 276646.080000
   6154   6156     1   0.10969 276646.080000
   6158   6159     1   0.10969 276646.080000
   6158   6160     1   0.10969 276646.080000
   6161   6162     1   0.10969 276646.080000
   6161   6163     1   0.10969 276646.080000
   6167   6168     1   0.10969 276646.080000
   6167   6169     1   0.10969 276646.080000
   6170   6171     1   0.10969 276646.080000
   6170   6172     1   0.10969 276646.080000
   6177   6178     1   0.10969 276646.080000
   6177   6179     1   0.10969 276646.080000
   6180   6181     1   0.10969 276646.080000
   6180   6182     1   0.10969 276646.080000
   6183   6184     1   0.10969 276646.080000
   6183   6185     1   0.10969 276646.080000
   6187   6188     1   0.10969 276646.080000
   6187   6189     1   0.10969 276646.080000
   6190   6191     1   0.10969 276646.080000
   6190   6192     1   0.10969 276646.080000
   6196   6197     1   0.10969 276646.080000
   6196   6198     1   0.10969 276646.080000
   6199   6200     1   0.10969 276646.080000
   6199   6201     1   0.10969 276646.080000
   6206   6207     1   0.10969 276646.080000
   6206   6208     1   0.10969 276646.080000
   6209   6210     1   0.10969 276646.080000
   6209   6211     1   0.10969 276646.080000
   6212   6213     1   0.10969 276646.080000
   6212   6214     1   0.10969 276646.080000
   6216   6217     1   0.10969 276646.080000
   6216   6218     1   0.10969 276646.080000
   6219   6220     1   0.10969 276646.080000
   6219   6221     1   0.10969 276646.080000
   6225   6226     1   0.10969 276646.080000
   6225   6227     1   0.10969 276646.080000
   6228   6229     1   0.10969 276646.080000
   6228   6230     1   0.10969 276646.080000
   6235   6236     1   0.10969 276646.080000
   6235   6237     1   0.10969 276646.080000
   6238   6239     1   0.10969 276646.080000
   6238   6240     1   0.10969 276646.080000
   6241   6242     1   0.10969 276646.080000
   6241   6243     1   0.10969 276646.080000
   6245   6246     1   0.10969 276646.080000
   6245   6247     1   0.10969 276646.080000
   6248   6249     1   0.10969 276646.080000
   6248   6250     1   0.10969 276646.080000
   6254   6255     1   0.10969 276646.080000
   6254   6256     1   0.10969 276646.080000
   6257   6258     1   0.10969 276646.080000
   6257   6259     1   0.10969 276646.080000
   6264   6265     1   0.10969 276646.080000
   6264   6266     1   0.10969 276646.080000
   6267   6268     1   0.10969 276646.080000
   6267   6269     1   0.10969 276646.080000
   6270   6271     1   0.10969 276646.080000
   6270   6272     1   0.10969 276646.080000
   6274   6275     1   0.10969 276646.080000
   6274   6276     1   0.10969 276646.080000
   6277   6278     1   0.10969 276646.080000
   6277   6279     1   0.10969 276646.080000
   6283   6284     1   0.10969 276646.080000
   6283   6285     1   0.10969 276646.080000
   6286   6287     1   0.10969 276646.080000
   6286   6288     1   0.10969 276646.080000
   6293   6294     1   0.10969 276646.080000
   6293   6295     1   0.10969 276646.080000
   6296   6297     1   0.10969 276646.080000
   6296   6298     1   0.10969 276646.080000
   6299   6300     1   0.10969 276646.080000
   6299   6301     1   0.10969 276646.080000
   6303   6304     1   0.10969 276646.080000
   6303   6305     1   0.10969 276646.080000
   6306   6307     1   0.10969 276646.080000
   6306   6308     1   0.10969 276646.080000
   6312   6313     1   0.10969 276646.080000
   6312   6314     1   0.10969 276646.080000
   6315   6316     1   0.10969 276646.080000
   6315   6317     1   0.10969 276646.080000
   6322   6323     1   0.10969 276646.080000
   6322   6324     1   0.10969 276646.080000
   6325   6326     1   0.10969 276646.080000
   6325   6327     1   0.10969 276646.080000
   6328   6329     1   0.10969 276646.080000
   6328   6330     1   0.10969 276646.080000
   6332   6333     1   0.10969 276646.080000
   6332   6334     1   0.10969 276646.080000
   6335   6336     1   0.10969 276646.080000
   6335   6337     1   0.10969 276646.080000
   6341   6342     1   0.10969 276646.080000
   6341   6343     1   0.10969 276646.080000
   6344   6345     1   0.10969 276646.080000
   6344   6346     1   0.10969 276646.080000
   6351   6352     1   0.10969 276646.080000
   6351   6353     1   0.10969 276646.080000
   6354   6355     1   0.10969 276646.080000
   6354   6356     1   0.10969 276646.080000
   6357   6358     1   0.10969 276646.080000
   6357   6359     1   0.10969 276646.080000
   6361   6362     1   0.10969 276646.080000
   6361   6363     1   0.10969 276646.080000
   6364   6365     1   0.10969 276646.080000
   6364   6366     1   0.10969 276646.080000
   6370   6371     1   0.10969 276646.080000
   6370   6372     1   0.10969 276646.080000
   6373   6374     1   0.10969 276646.080000
   6373   6375     1   0.10969 276646.080000
   6380   6381     1   0.10969 276646.080000
   6380   6382     1   0.10969 276646.080000
   6383   6384     1   0.10969 276646.080000
   6383   6385     1   0.10969 276646.080000
   6386   6387     1   0.10969 276646.080000
   6386   6388     1   0.10969 276646.080000
   6390   6391     1   0.10969 276646.080000
   6390   6392     1   0.10969 276646.080000
   6393   6394     1   0.10969 276646.080000
   6393   6395     1   0.10969 276646.080000
   6399   6400     1   0.10969 276646.080000
   6399   6401     1   0.10969 276646.080000
   6402   6403     1   0.10969 276646.080000
   6402   6404     1   0.10969 276646.080000
   6409   6410     1   0.10969 276646.080000
   6409   6411     1   0.10969 276646.080000
   6412   6413     1   0.10969 276646.080000
   6412   6414     1   0.10969 276646.080000
   6415   6416     1   0.10969 276646.080000
   6415   6417     1   0.10969 276646.080000
   6419   6420     1   0.10969 276646.080000
   6419   6421     1   0.10969 276646.080000
   6422   6423     1   0.10969 276646.080000
   6422   6424     1   0.10969 276646.080000
   6428   6429     1   0.10969 276646.080000
   6428   6430     1   0.10969 276646.080000
   6431   6432     1   0.10969 276646.080000
   6431   6433     1   0.10969 276646.080000
   6438   6439     1   0.10969 276646.080000
   6438   6440     1   0.10969 276646.080000
   6441   6442     1   0.10969 276646.080000
   6441   6443     1   0.10969 276646.080000
   6444   6445     1   0.10969 276646.080000
   6444   6446     1   0.10969 276646.080000
   6448   6449     1   0.10969 276646.080000
   6448   6450     1   0.10969 276646.080000
   6451   6452     1   0.10969 276646.080000
   6451   6453     1   0.10969 276646.080000
   6457   6458     1   0.10969 276646.080000
   6457   6459     1   0.10969 276646.080000
   6460   6461     1   0.10969 276646.080000
   6460   6462     1   0.10969 276646.080000
   6467   6468     1   0.10969 276646.080000
   6467   6469     1   0.10969 276646.080000
   6470   6471     1   0.10969 276646.080000
   6470   6472     1   0.10969 276646.080000
   6473   6474     1   0.10969 276646.080000
   6473   6475     1   0.10969 276646.080000
   6477   6478     1   0.10969 276646.080000
   6477   6479     1   0.10969 276646.080000
   6480   6481     1   0.10969 276646.080000
   6480   6482     1   0.10969 276646.080000
   6486   6487     1   0.10969 276646.080000
   6486   6488     1   0.10969 276646.080000
   6489   6490     1   0.10969 276646.080000
   6489   6491     1   0.10969 276646.080000
   6496   6497     1   0.10969 276646.080000
   6496   6498     1   0.10969 276646.080000
   6499   6500     1   0.10969 276646.080000
   6499   6501     1   0.10969 276646.080000
   6502   6503     1   0.10969 276646.080000
   6502   6504     1   0.10969 276646.080000
   6506   6507     1   0.10969 276646.080000
   6506   6508     1   0.10969 276646.080000
   6509   6510     1   0.10969 276646.080000
   6509   6511     1   0.10969 276646.080000
   6515   6516     1   0.10969 276646.080000
   6515   6517     1   0.10969 276646.080000
   6518   6519     1   0.10969 276646.080000
   6518   6520     1   0.10969 276646.080000
   6525   6526     1   0.10969 276646.080000
   6525   6527     1   0.10969 276646.080000
   6528   6529     1   0.10969 276646.080000
   6528   6530     1   0.10969 276646.080000
   6531   6532     1   0.10969 276646.080000
   6531   6533     1   0.10969 276646.080000
   6535   6536     1   0.10969 276646.080000
   6535   6537     1   0.10969 276646.080000
   6538   6539     1   0.10969 276646.080000
   6538   6540     1   0.10969 276646.080000
   6544   6545     1   0.10969 276646.080000
   6544   6546     1   0.10969 276646.080000
   6547   6548     1   0.10969 276646.080000
   6547   6549     1   0.10969 276646.080000
   6554   6555     1   0.10969 276646.080000
   6554   6556     1   0.10969 276646.080000
   6557   6558     1   0.10969 276646.080000
   6557   6559     1   0.10969 276646.080000
   6560   6561     1   0.10969 276646.080000
   6560   6562     1   0.10969 276646.080000
   6564   6565     1   0.10969 276646.080000
   6564   6566     1   0.10969 276646.080000
   6567   6568     1   0.10969 276646.080000
   6567   6569     1   0.10969 276646.080000
   6573   6574     1   0.10969 276646.080000
   6573   6575     1   0.10969 276646.080000
   6576   6577     1   0.10969 276646.080000
   6576   6578     1   0.10969 276646.080000
   6583   6584     1   0.10969 276646.080000
   6583   6585     1   0.10969 276646.080000
   6586   6587     1   0.10969 276646.080000
   6586   6588     1   0.10969 276646.080000
   6589   6590     1   0.10969 276646.080000
   6589   6591     1   0.10969 276646.080000
   6593   6594     1   0.10969 276646.080000
   6593   6595     1   0.10969 276646.080000
   6596   6597     1   0.10969 276646.080000
   6596   6598     1   0.10969 276646.080000
   6602   6603     1   0.10969 276646.080000
   6602   6604     1   0.10969 276646.080000
   6605   6606     1   0.10969 276646.080000
   6605   6607     1   0.10969 276646.080000
   6612   6613     1   0.10969 276646.080000
   6612   6614     1   0.10969 276646.080000
   6615   6616     1   0.10969 276646.080000
   6615   6617     1   0.10969 276646.080000
   6618   6619     1   0.10969 276646.080000
   6618   6620     1   0.10969 276646.080000
   6622   6623     1   0.10969 276646.080000
   6622   6624     1   0.10969 276646.080000
   6625   6626     1   0.10969 276646.080000
   6625   6627     1   0.10969 276646.080000
   6631   6632     1   0.10969 276646.080000
   6631   6633     1   0.10969 276646.080000
   6634   6635     1   0.10969 276646.080000
   6634   6636     1   0.10969 276646.080000
   6641   6642     1   0.10969 276646.080000
   6641   6643     1   0.10969 276646.080000
   6644   6645     1   0.10969 276646.080000
   6644   6646     1   0.10969 276646.080000
   6647   6648     1   0.10969 276646.080000
   6647   6649     1   0.10969 276646.080000
   6651   6652     1   0.10969 276646.080000
   6651   6653     1   0.10969 276646.080000
   6654   6655     1   0.10969 276646.080000
   6654   6656     1   0.10969 276646.080000
   6660   6661     1   0.10969 276646.080000
   6660   6662     1   0.10969 276646.080000
   6663   6664     1   0.10969 276646.080000
   6663   6665     1   0.10969 276646.080000
   6670   6671     1   0.10969 276646.080000
   6670   6672     1   0.10969 276646.080000
   6673   6674     1   0.10969 276646.080000
   6673   6675     1   0.10969 276646.080000
   6676   6677     1   0.10969 276646.080000
   6676   6678     1   0.10969 276646.080000
   6680   6681     1   0.10969 276646.080000
   6680   6682     1   0.10969 276646.080000
   6683   6684     1   0.10969 276646.080000
   6683   6685     1   0.10969 276646.080000
   6689   6690     1   0.10969 276646.080000
   6689   6691     1   0.10969 276646.080000
   6692   6693     1   0.10969 276646.080000
   6692   6694     1   0.10969 276646.080000
   6699   6700     1   0.10969 276646.080000
   6699   6701     1   0.10969 276646.080000
   6702   6703     1   0.10969 276646.080000
   6702   6704     1   0.10969 276646.080000
   6705   6706     1   0.10969 276646.080000
   6705   6707     1   0.10969 276646.080000
   6709   6710     1   0.10969 276646.080000
   6709   6711     1   0.10969 276646.080000
   6712   6713     1   0.10969 276646.080000
   6712   6714     1   0.10969 276646.080000
   6718   6719     1   0.10969 276646.080000
   6718   6720     1   0.10969 276646.080000
   6721   6722     1   0.10969 276646.080000
   6721   6723     1   0.10969 276646.080000
   6728   6729     1   0.10969 276646.080000
   6728   6730     1   0.10969 276646.080000
   6731   6732     1   0.10969 276646.080000
   6731   6733     1   0.10969 276646.080000
   6734   6735     1   0.10969 276646.080000
   6734   6736     1   0.10969 276646.080000
   6738   6739     1   0.10969 276646.080000
   6738   6740     1   0.10969 276646.080000
   6741   6742     1   0.10969 276646.080000
   6741   6743     1   0.10969 276646.080000
   6747   6748     1   0.10969 276646.080000
   6747   6749     1   0.10969 276646.080000
   6750   6751     1   0.10969 276646.080000
   6750   6752     1   0.10969 276646.080000
   6757   6758     1   0.10969 276646.080000
   6757   6759     1   0.10969 276646.080000
   6760   6761     1   0.10969 276646.080000
   6760   6762     1   0.10969 276646.080000
   6763   6764     1   0.10969 276646.080000
   6763   6765     1   0.10969 276646.080000
   6767   6768     1   0.10969 276646.080000
   6767   6769     1   0.10969 276646.080000
   6770   6771     1   0.10969 276646.080000
   6770   6772     1   0.10969 276646.080000
   6776   6777     1   0.10969 276646.080000
   6776   6778     1   0.10969 276646.080000
   6779   6780     1   0.10969 276646.080000
   6779   6781     1   0.10969 276646.080000
   6786   6787     1   0.10969 276646.080000
   6786   6788     1   0.10969 276646.080000
   6789   6790     1   0.10969 276646.080000
   6789   6791     1   0.10969 276646.080000
   6792   6793     1   0.10969 276646.080000
   6792   6794     1   0.10969 276646.080000
   6796   6797     1   0.10969 276646.080000
   6796   6798     1   0.10969 276646.080000
   6799   6800     1   0.10969 276646.080000
   6799   6801     1   0.10969 276646.080000
   6805   6806     1   0.10969 276646.080000
   6805   6807     1   0.10969 276646.080000
   6808   6809     1   0.10969 276646.080000
   6808   6810     1   0.10969 276646.080000
   6815   6816     1   0.10969 276646.080000
   6815   6817     1   0.10969 276646.080000
   6818   6819     1   0.10969 276646.080000
   6818   6820     1   0.10969 276646.080000
   6821   6822     1   0.10969 276646.080000
   6821   6823     1   0.10969 276646.080000
   6825   6826     1   0.10969 276646.080000
   6825   6827     1   0.10969 276646.080000
   6828   6829     1   0.10969 276646.080000
   6828   6830     1   0.10969 276646.080000
   6834   6835     1   0.10969 276646.080000
   6834   6836     1   0.10969 276646.080000
   6837   6838     1   0.10969 276646.080000
   6837   6839     1   0.10969 276646.080000
   6844   6845     1   0.10969 276646.080000
   6844   6846     1   0.10969 276646.080000
   6847   6848     1   0.10969 276646.080000
   6847   6849     1   0.10969 276646.080000
   6850   6851     1   0.10969 276646.080000
   6850   6852     1   0.10969 276646.080000
   6854   6855     1   0.10969 276646.080000
   6854   6856     1   0.10969 276646.080000
   6857   6858     1   0.10969 276646.080000
   6857   6859     1   0.10969 276646.080000
   6863   6864     1   0.10969 276646.080000
   6863   6865     1   0.10969 276646.080000
   6866   6867     1   0.10969 276646.080000
   6866   6868     1   0.10969 276646.080000
   6873   6874     1   0.10969 276646.080000
   6873   6875     1   0.10969 276646.080000
   6876   6877     1   0.10969 276646.080000
   6876   6878     1   0.10969 276646.080000
   6879   6880     1   0.10969 276646.080000
   6879   6881     1   0.10969 276646.080000
   6883   6884     1   0.10969 276646.080000
   6883   6885     1   0.10969 276646.080000
   6886   6887     1   0.10969 276646.080000
   6886   6888     1   0.10969 276646.080000
   6892   6893     1   0.10969 276646.080000
   6892   6894     1   0.10969 276646.080000
   6895   6896     1   0.10969 276646.080000
   6895   6897     1   0.10969 276646.080000
   6902   6903     1   0.10969 276646.080000
   6902   6904     1   0.10969 276646.080000
   6905   6906     1   0.10969 276646.080000
   6905   6907     1   0.10969 276646.080000
   6908   6909     1   0.10969 276646.080000
   6908   6910     1   0.10969 276646.080000
   6912   6913     1   0.10969 276646.080000
   6912   6914     1   0.10969 276646.080000
   6915   6916     1   0.10969 276646.080000
   6915   6917     1   0.10969 276646.080000
   6921   6922     1   0.10969 276646.080000
   6921   6923     1   0.10969 276646.080000
   6924   6925     1   0.10969 276646.080000
   6924   6926     1   0.10969 276646.080000
   6931   6932     1   0.10969 276646.080000
   6931   6933     1   0.10969 276646.080000
   6934   6935     1   0.10969 276646.080000
   6934   6936     1   0.10969 276646.080000
   6937   6938     1   0.10969 276646.080000
   6937   6939     1   0.10969 276646.080000
   6941   6942     1   0.10969 276646.080000
   6941   6943     1   0.10969 276646.080000
   6944   6945     1   0.10969 276646.080000
   6944   6946     1   0.10969 276646.080000
   6950   6951     1   0.10969 276646.080000
   6950   6952     1   0.10969 276646.080000
   6953   6954     1   0.10969 276646.080000
   6953   6955     1   0.10969 276646.080000
   6960   6961     1   0.10969 276646.080000
   6960   6962     1   0.10969 276646.080000
   6963   6964     1   0.10969 276646.080000
   6963   6965     1   0.10969 276646.080000
   6966   6967     1   0.10969 276646.080000
   6966   6968     1   0.10969 276646.080000
   6970   6971     1   0.10969 276646.080000
   6970   6972     1   0.10969 276646.080000
   6973   6974     1   0.10969 276646.080000
   6973   6975     1   0.10969 276646.080000
   6979   6980     1   0.10969 276646.080000
   6979   6981     1   0.10969 276646.080000
   6982   6983     1   0.10969 276646.080000
   6982   6984     1   0.10969 276646.080000
   6989   6990     1   0.10969 276646.080000
   6989   6991     1   0.10969 276646.080000
   6992   6993     1   0.10969 276646.080000
   6992   6994     1   0.10969 276646.080000
   6995   6996     1   0.10969 276646.080000
   6995   6997     1   0.10969 276646.080000
   6999   7000     1   0.10969 276646.080000
   6999   7001     1   0.10969 276646.080000
   7002   7003     1   0.10969 276646.080000
   7002   7004     1   0.10969 276646.080000
   7008   7009     1   0.10969 276646.080000
   7008   7010     1   0.10969 276646.080000
   7011   7012     1   0.10969 276646.080000
   7011   7013     1   0.10969 276646.080000
   7018   7019     1   0.10969 276646.080000
   7018   7020     1   0.10969 276646.080000
   7021   7022     1   0.10969 276646.080000
   7021   7023     1   0.10969 276646.080000
   7024   7025     1   0.10969 276646.080000
   7024   7026     1   0.10969 276646.080000
   7028   7029     1   0.10969 276646.080000
   7028   7030     1   0.10969 276646.080000
   7031   7032     1   0.10969 276646.080000
   7031   7033     1   0.10969 276646.080000
   7037   7038     1   0.10969 276646.080000
   7037   7039     1   0.10969 276646.080000
   7040   7041     1   0.10969 276646.080000
   7040   7042     1   0.10969 276646.080000
   7047   7048     1   0.10969 276646.080000
   7047   7049     1   0.10969 276646.080000
   7050   7051     1   0.10969 276646.080000
   7050   7052     1   0.10969 276646.080000
   7053   7054     1   0.10969 276646.080000
   7053   7055     1   0.10969 276646.080000
   7057   7058     1   0.10969 276646.080000
   7057   7059     1   0.10969 276646.080000
   7060   7061     1   0.10969 276646.080000
   7060   7062     1   0.10969 276646.080000
   7066   7067     1   0.10969 276646.080000
   7066   7068     1   0.10969 276646.080000
   7069   7070     1   0.10969 276646.080000
   7069   7071     1   0.10969 276646.080000
   7076   7077     1   0.10969 276646.080000
   7076   7078     1   0.10969 276646.080000
   7079   7080     1   0.10969 276646.080000
   7079   7081     1   0.10969 276646.080000
   7082   7083     1   0.10969 276646.080000
   7082   7084     1   0.10969 276646.080000
   7086   7087     1   0.10969 276646.080000
   7086   7088     1   0.10969 276646.080000
   7089   7090     1   0.10969 276646.080000
   7089   7091     1   0.10969 276646.080000
   7095   7096     1   0.10969 276646.080000
   7095   7097     1   0.10969 276646.080000
   7098   7099     1   0.10969 276646.080000
   7098   7100     1   0.10969 276646.080000
   7105   7106     1   0.10969 276646.080000
   7105   7107     1   0.10969 276646.080000
   7108   7109     1   0.10969 276646.080000
   7108   7110     1   0.10969 276646.080000
   7111   7112     1   0.10969 276646.080000
   7111   7113     1   0.10969 276646.080000
   7115   7116     1   0.10969 276646.080000
   7115   7117     1   0.10969 276646.080000
   7118   7119     1   0.10969 276646.080000
   7118   7120     1   0.10969 276646.080000
   7124   7125     1   0.10969 276646.080000
   7124   7126     1   0.10969 276646.080000
   7127   7128     1   0.10969 276646.080000
   7127   7129     1   0.10969 276646.080000
   7134   7135     1   0.10969 276646.080000
   7134   7136     1   0.10969 276646.080000
   7137   7138     1   0.10969 276646.080000
   7137   7139     1   0.10969 276646.080000
   7140   7141     1   0.10969 276646.080000
   7140   7142     1   0.10969 276646.080000
   7144   7145     1   0.10969 276646.080000
   7144   7146     1   0.10969 276646.080000
   7147   7148     1   0.10969 276646.080000
   7147   7149     1   0.10969 276646.080000
   7153   7154     1   0.10969 276646.080000
   7153   7155     1   0.10969 276646.080000
   7156   7157     1   0.10969 276646.080000
   7156   7158     1   0.10969 276646.080000
   7163   7164     1   0.10969 276646.080000
   7163   7165     1   0.10969 276646.080000
   7166   7167     1   0.10969 276646.080000
   7166   7168     1   0.10969 276646.080000
   7169   7170     1   0.10969 276646.080000
   7169   7171     1   0.10969 276646.080000
   7173   7174     1   0.10969 276646.080000
   7173   7175     1   0.10969 276646.080000
   7176   7177     1   0.10969 276646.080000
   7176   7178     1   0.10969 276646.080000
   7182   7183     1   0.10969 276646.080000
   7182   7184     1   0.10969 276646.080000
   7185   7186     1   0.10969 276646.080000
   7185   7187     1   0.10969 276646.080000
   7192   7193     1   0.10969 276646.080000
   7192   7194     1   0.10969 276646.080000
   7195   7196     1   0.10969 276646.080000
   7195   7197     1   0.10969 276646.080000
   7198   7199     1   0.10969 276646.080000
   7198   7200     1   0.10969 276646.080000
   7202   7203     1   0.10969 276646.080000
   7202   7204     1   0.10969 276646.080000
   7205   7206     1   0.10969 276646.080000
   7205   7207     1   0.10969 276646.080000
   7211   7212     1   0.10969 276646.080000
   7211   7213     1   0.10969 276646.080000
   7214   7215     1   0.10969 276646.080000
   7214   7216     1   0.10969 276646.080000
   7221   7222     1   0.10969 276646.080000
   7221   7223     1   0.10969 276646.080000
   7224   7225     1   0.10969 276646.080000
   7224   7226     1   0.10969 276646.080000
   7227   7228     1   0.10969 276646.080000
   7227   7229     1   0.10969 276646.080000
   7231   7232     1   0.10969 276646.080000
   7231   7233     1   0.10969 276646.080000
   7234   7235     1   0.10969 276646.080000
   7234   7236     1   0.10969 276646.080000
   7240   7241     1   0.10969 276646.080000
   7240   7242     1   0.10969 276646.080000
   7243   7244     1   0.10969 276646.080000
   7243   7245     1   0.10969 276646.080000
   7250   7251     1   0.10969 276646.080000
   7250   7252     1   0.10969 276646.080000
   7253   7254     1   0.10969 276646.080000
   7253   7255     1   0.10969 276646.080000
   7256   7257     1   0.10969 276646.080000
   7256   7258     1   0.10969 276646.080000
   7260   7261     1   0.10969 276646.080000
   7260   7262     1   0.10969 276646.080000
   7263   7264     1   0.10969 276646.080000
   7263   7265     1   0.10969 276646.080000
   7269   7270     1   0.10969 276646.080000
   7269   7271     1   0.10969 276646.080000
   7272   7273     1   0.10969 276646.080000
   7272   7274     1   0.10969 276646.080000
   7279   7280     1   0.10969 276646.080000
   7279   7281     1   0.10969 276646.080000
   7282   7283     1   0.10969 276646.080000
   7282   7284     1   0.10969 276646.080000
   7285   7286     1   0.10969 276646.080000
   7285   7287     1   0.10969 276646.080000
   7289   7290     1   0.10969 276646.080000
   7289   7291     1   0.10969 276646.080000
   7292   7293     1   0.10969 276646.080000
   7292   7294     1   0.10969 276646.080000
   7298   7299     1   0.10969 276646.080000
   7298   7300     1   0.10969 276646.080000
   7301   7302     1   0.10969 276646.080000
   7301   7303     1   0.10969 276646.080000
   7308   7309     1   0.10969 276646.080000
   7308   7310     1   0.10969 276646.080000
   7311   7312     1   0.10969 276646.080000
   7311   7313     1   0.10969 276646.080000
   7314   7315     1   0.10969 276646.080000
   7314   7316     1   0.10969 276646.080000
   7318   7319     1   0.10969 276646.080000
   7318   7320     1   0.10969 276646.080000
   7321   7322     1   0.10969 276646.080000
   7321   7323     1   0.10969 276646.080000
   7327   7328     1   0.10969 276646.080000
   7327   7329     1   0.10969 276646.080000
   7330   7331     1   0.10969 276646.080000
   7330   7332     1   0.10969 276646.080000
   7337   7338     1   0.10969 276646.080000
   7337   7339     1   0.10969 276646.080000
   7340   7341     1   0.10969 276646.080000
   7340   7342     1   0.10969 276646.080000
   7343   7344     1   0.10969 276646.080000
   7343   7345     1   0.10969 276646.080000
   7347   7348     1   0.10969 276646.080000
   7347   7349     1   0.10969 276646.080000
   7350   7351     1   0.10969 276646.080000
   7350   7352     1   0.10969 276646.080000
   7356   7357     1   0.10969 276646.080000
   7356   7358     1   0.10969 276646.080000
   7359   7360     1   0.10969 276646.080000
   7359   7361     1   0.10969 276646.080000
   7366   7367     1   0.10969 276646.080000
   7366   7368     1   0.10969 276646.080000
   7369   7370     1   0.10969 276646.080000
   7369   7371     1   0.10969 276646.080000
   7372   7373     1   0.10969 276646.080000
   7372   7374     1   0.10969 276646.080000
   7376   7377     1   0.10969 276646.080000
   7376   7378     1   0.10969 276646.080000
   7379   7380     1   0.10969 276646.080000
   7379   7381     1   0.10969 276646.080000
   7385   7386     1   0.10969 276646.080000
   7385   7387     1   0.10969 276646.080000
   7388   7389     1   0.10969 276646.080000
   7388   7390     1   0.10969 276646.080000
   7395   7396     1   0.10969 276646.080000
   7395   7397     1   0.10969 276646.080000
   7398   7399     1   0.10969 276646.080000
   7398   7400     1   0.10969 276646.080000
   7401   7402     1   0.10969 276646.080000
   7401   7403     1   0.10969 276646.080000
   7405   7406     1   0.10969 276646.080000
   7405   7407     1   0.10969 276646.080000
   7408   7409     1   0.10969 276646.080000
   7408   7410     1   0.10969 276646.080000
   7414   7415     1   0.10969 276646.080000
   7414   7416     1   0.10969 276646.080000
   7417   7418     1   0.10969 276646.080000
   7417   7419     1   0.10969 276646.080000
   7424   7425     1   0.10969 276646.080000
   7424   7426     1   0.10969 276646.080000
   7427   7428     1   0.10969 276646.080000
   7427   7429     1   0.10969 276646.080000
   7430   7431     1   0.10969 276646.080000
   7430   7432     1   0.10969 276646.080000
   7434   7435     1   0.10969 276646.080000
   7434   7436     1   0.10969 276646.080000
   7437   7438     1   0.10969 276646.080000
   7437   7439     1   0.10969 276646.080000
   7443   7444     1   0.10969 276646.080000
   7443   7445     1   0.10969 276646.080000
   7446   7447     1   0.10969 276646.080000
   7446   7448     1   0.10969 276646.080000
   7453   7454     1   0.10969 276646.080000
   7453   7455     1   0.10969 276646.080000
   7456   7457     1   0.10969 276646.080000
   7456   7458     1   0.10969 276646.080000
   7459   7460     1   0.10969 276646.080000
   7459   7461     1   0.10969 276646.080000
   7463   7464     1   0.10969 276646.080000
   7463   7465     1   0.10969 276646.080000
   7466   7467     1   0.10969 276646.080000
   7466   7468     1   0.10969 276646.080000
   7472   7473     1   0.10969 276646.080000
   7472   7474     1   0.10969 276646.080000
   7475   7476     1   0.10969 276646.080000
   7475   7477     1   0.10969 276646.080000
   7482   7483     1   0.10969 276646.080000
   7482   7484     1   0.10969 276646.080000
   7485   7486     1   0.10969 276646.080000
   7485   7487     1   0.10969 276646.080000
   7488   7489     1   0.10969 276646.080000
   7488   7490     1   0.10969 276646.080000
   7492   7493     1   0.10969 276646.080000
   7492   7494     1   0.10969 276646.080000
   7495   7496     1   0.10969 276646.080000
   7495   7497     1   0.10969 276646.080000
   7501   7502     1   0.10969 276646.080000
   7501   7503     1   0.10969 276646.080000
   7504   7505     1   0.10969 276646.080000
   7504   7506     1   0.10969 276646.080000
   7511   7512     1   0.10969 276646.080000
   7511   7513     1   0.10969 276646.080000
   7514   7515     1   0.10969 276646.080000
   7514   7516     1   0.10969 276646.080000
   7517   7518     1   0.10969 276646.080000
   7517   7519     1   0.10969 276646.080000
   7521   7522     1   0.10969 276646.080000
   7521   7523     1   0.10969 276646.080000
   7524   7525     1   0.10969 276646.080000
   7524   7526     1   0.10969 276646.080000
   7530   7531     1   0.10969 276646.080000
   7530   7532     1   0.10969 276646.080000
   7533   7534     1   0.10969 276646.080000
   7533   7535     1   0.10969 276646.080000
   7540   7541     1   0.10969 276646.080000
   7540   7542     1   0.10969 276646.080000
   7543   7544     1   0.10969 276646.080000
   7543   7545     1   0.10969 276646.080000
   7546   7547     1   0.10969 276646.080000
   7546   7548     1   0.10969 276646.080000
   7550   7551     1   0.10969 276646.080000
   7550   7552     1   0.10969 276646.080000
   7553   7554     1   0.10969 276646.080000
   7553   7555     1   0.10969 276646.080000
   7559   7560     1   0.10969 276646.080000
   7559   7561     1   0.10969 276646.080000
   7562   7563     1   0.10969 276646.080000
   7562   7564     1   0.10969 276646.080000
   7569   7570     1   0.10969 276646.080000
   7569   7571     1   0.10969 276646.080000
   7572   7573     1   0.10969 276646.080000
   7572   7574     1   0.10969 276646.080000
   7575   7576     1   0.10969 276646.080000
   7575   7577     1   0.10969 276646.080000
   7579   7580     1   0.10969 276646.080000
   7579   7581     1   0.10969 276646.080000
   7582   7583     1   0.10969 276646.080000
   7582   7584     1   0.10969 276646.080000
   7588   7589     1   0.10969 276646.080000
   7588   7590     1   0.10969 276646.080000
   7591   7592     1   0.10969 276646.080000
   7591   7593     1   0.10969 276646.080000
   7598   7599     1   0.10969 276646.080000
   7598   7600     1   0.10969 276646.080000
   7601   7602     1   0.10969 276646.080000
   7601   7603     1   0.10969 276646.080000
   7604   7605     1   0.10969 276646.080000
   7604   7606     1   0.10969 276646.080000
   7608   7609     1   0.10969 276646.080000
   7608   7610     1   0.10969 276646.080000
   7611   7612     1   0.10969 276646.080000
   7611   7613     1   0.10969 276646.080000
   7617   7618     1   0.10969 276646.080000
   7617   7619     1   0.10969 276646.080000
   7620   7621     1   0.10969 276646.080000
   7620   7622     1   0.10969 276646.080000
   7627   7628     1   0.10969 276646.080000
   7627   7629     1   0.10969 276646.080000
   7630   7631     1   0.10969 276646.080000
   7630   7632     1   0.10969 276646.080000
   7633   7634     1   0.10969 276646.080000
   7633   7635     1   0.10969 276646.080000
   7637   7638     1   0.10969 276646.080000
   7637   7639     1   0.10969 276646.080000
   7640   7641     1   0.10969 276646.080000
   7640   7642     1   0.10969 276646.080000
   7646   7647     1   0.10969 276646.080000
   7646   7648     1   0.10969 276646.080000
   7649   7650     1   0.10969 276646.080000
   7649   7651     1   0.10969 276646.080000
   7656   7657     1   0.10969 276646.080000
   7656   7658     1   0.10969 276646.080000
   7659   7660     1   0.10969 276646.080000
   7659   7661     1   0.10969 276646.080000
   7662   7663     1   0.10969 276646.080000
   7662   7664     1   0.10969 276646.080000
   7666   7667     1   0.10969 276646.080000
   7666   7668     1   0.10969 276646.080000
   7669   7670     1   0.10969 276646.080000
   7669   7671     1   0.10969 276646.080000
   7675   7676     1   0.10969 276646.080000
   7675   7677     1   0.10969 276646.080000
   7678   7679     1   0.10969 276646.080000
   7678   7680     1   0.10969 276646.080000
   7685   7686     1   0.10969 276646.080000
   7685   7687     1   0.10969 276646.080000
   7688   7689     1   0.10969 276646.080000
   7688   7690     1   0.10969 276646.080000
   7691   7692     1   0.10969 276646.080000
   7691   7693     1   0.10969 276646.080000
   7695   7696     1   0.10969 276646.080000
   7695   7697     1   0.10969 276646.080000
   7698   7699     1   0.10969 276646.080000
   7698   7700     1   0.10969 276646.080000
   7704   7705     1   0.10969 276646.080000
   7704   7706     1   0.10969 276646.080000
   7707   7708     1   0.10969 276646.080000
   7707   7709     1   0.10969 276646.080000
   7714   7715     1   0.10969 276646.080000
   7714   7716     1   0.10969 276646.080000
   7717   7718     1   0.10969 276646.080000
   7717   7719     1   0.10969 276646.080000
   7720   7721     1   0.10969 276646.080000
   7720   7722     1   0.10969 276646.080000
   7724   7725     1   0.10969 276646.080000
   7724   7726     1   0.10969 276646.080000
   7727   7728     1   0.10969 276646.080000
   7727   7729     1   0.10969 276646.080000
   7733   7734     1   0.10969 276646.080000
   7733   7735     1   0.10969 276646.080000
   7736   7737     1   0.10969 276646.080000
   7736   7738     1   0.10969 276646.080000
   7743   7744     1   0.10969 276646.080000
   7743   7745     1   0.10969 276646.080000
   7746   7747     1   0.10969 276646.080000
   7746   7748     1   0.10969 276646.080000
   7749   7750     1   0.10969 276646.080000
   7749   7751     1   0.10969 276646.080000
   7753   7754     1   0.10969 276646.080000
   7753   7755     1   0.10969 276646.080000
   7756   7757     1   0.10969 276646.080000
   7756   7758     1   0.10969 276646.080000
   7762   7763     1   0.10969 276646.080000
   7762   7764     1   0.10969 276646.080000
   7765   7766     1   0.10969 276646.080000
   7765   7767     1   0.10969 276646.080000
   7772   7773     1   0.10969 276646.080000
   7772   7774     1   0.10969 276646.080000
   7775   7776     1   0.10969 276646.080000
   7775   7777     1   0.10969 276646.080000
   7778   7779     1   0.10969 276646.080000
   7778   7780     1   0.10969 276646.080000
   7782   7783     1   0.10969 276646.080000
   7782   7784     1   0.10969 276646.080000
   7785   7786     1   0.10969 276646.080000
   7785   7787     1   0.10969 276646.080000
   7791   7792     1   0.10969 276646.080000
   7791   7793     1   0.10969 276646.080000
   7794   7795     1   0.10969 276646.080000
   7794   7796     1   0.10969 276646.080000
   7801   7802     1   0.10969 276646.080000
   7801   7803     1   0.10969 276646.080000
   7804   7805     1   0.10969 276646.080000
   7804   7806     1   0.10969 276646.080000
   7807   7808     1   0.10969 276646.080000
   7807   7809     1   0.10969 276646.080000
   7811   7812     1   0.10969 276646.080000
   7811   7813     1   0.10969 276646.080000
   7814   7815     1   0.10969 276646.080000
   7814   7816     1   0.10969 276646.080000
   7820   7821     1   0.10969 276646.080000
   7820   7822     1   0.10969 276646.080000
   7823   7824     1   0.10969 276646.080000
   7823   7825     1   0.10969 276646.080000
   7830   7831     1   0.10969 276646.080000
   7830   7832     1   0.10969 276646.080000
   7833   7834     1   0.10969 276646.080000
   7833   7835     1   0.10969 276646.080000
   7836   7837     1   0.10969 276646.080000
   7836   7838     1   0.10969 276646.080000
   7840   7841     1   0.10969 276646.080000
   7840   7842     1   0.10969 276646.080000
   7843   7844     1   0.10969 276646.080000
   7843   7845     1   0.10969 276646.080000
   7849   7850     1   0.10969 276646.080000
   7849   7851     1   0.10969 276646.080000
   7852   7853     1   0.10969 276646.080000
   7852   7854     1   0.10969 276646.080000
   7859   7860     1   0.10969 276646.080000
   7859   7861     1   0.10969 276646.080000
   7862   7863     1   0.10969 276646.080000
   7862   7864     1   0.10969 276646.080000
   7865   7866     1   0.10969 276646.080000
   7865   7867     1   0.10969 276646.080000
   7869   7870     1   0.10969 276646.080000
   7869   7871     1   0.10969 276646.080000
   7872   7873     1   0.10969 276646.080000
   7872   7874     1   0.10969 276646.080000
   7878   7879     1   0.10969 276646.080000
   7878   7880     1   0.10969 276646.080000
   7881   7882     1   0.10969 276646.080000
   7881   7883     1   0.10969 276646.080000
   7888   7889     1   0.10969 276646.080000
   7888   7890     1   0.10969 276646.080000
   7891   7892     1   0.10969 276646.080000
   7891   7893     1   0.10969 276646.080000
   7894   7895     1   0.10969 276646.080000
   7894   7896     1   0.10969 276646.080000
   7898   7899     1   0.10969 276646.080000
   7898   7900     1   0.10969 276646.080000
   7901   7902     1   0.10969 276646.080000
   7901   7903     1   0.10969 276646.080000
   7907   7908     1   0.10969 276646.080000
   7907   7909     1   0.10969 276646.080000
   7910   7911     1   0.10969 276646.080000
   7910   7912     1   0.10969 276646.080000
   7917   7918     1   0.10969 276646.080000
   7917   7919     1   0.10969 276646.080000
   7920   7921     1   0.10969 276646.080000
   7920   7922     1   0.10969 276646.080000
   7923   7924     1   0.10969 276646.080000
   7923   7925     1   0.10969 276646.080000
   7927   7928     1   0.10969 276646.080000
   7927   7929     1   0.10969 276646.080000
   7930   7931     1   0.10969 276646.080000
   7930   7932     1   0.10969 276646.080000
   7936   7937     1   0.10969 276646.080000
   7936   7938     1   0.10969 276646.080000
   7939   7940     1   0.10969 276646.080000
   7939   7941     1   0.10969 276646.080000
   7946   7947     1   0.10969 276646.080000
   7946   7948     1   0.10969 276646.080000
   7949   7950     1   0.10969 276646.080000
   7949   7951     1   0.10969 276646.080000
   7952   7953     1   0.10969 276646.080000
   7952   7954     1   0.10969 276646.080000
   7956   7957     1   0.10969 276646.080000
   7956   7958     1   0.10969 276646.080000
   7959   7960     1   0.10969 276646.080000
   7959   7961     1   0.10969 276646.080000
   7965   7966     1   0.10969 276646.080000
   7965   7967     1   0.10969 276646.080000
   7968   7969     1   0.10969 276646.080000
   7968   7970     1   0.10969 276646.080000
   7975   7976     1   0.10969 276646.080000
   7975   7977     1   0.10969 276646.080000
   7978   7979     1   0.10969 276646.080000
   7978   7980     1   0.10969 276646.080000
   7981   7982     1   0.10969 276646.080000
   7981   7983     1   0.10969 276646.080000
   7985   7986     1   0.10969 276646.080000
   7985   7987     1   0.10969 276646.080000
   7988   7989     1   0.10969 276646.080000
   7988   7990     1   0.10969 276646.080000
   7994   7995     1   0.10969 276646.080000
   7994   7996     1   0.10969 276646.080000
   7997   7998     1   0.10969 276646.080000
   7997   7999     1   0.10969 276646.080000
   8004   8005     1   0.10969 276646.080000
   8004   8006     1   0.10969 276646.080000
   8007   8008     1   0.10969 276646.080000
   8007   8009     1   0.10969 276646.080000
   8010   8011     1   0.10969 276646.080000
   8010   8012     1   0.10969 276646.080000
   8014   8015     1   0.10969 276646.080000
   8014   8016     1   0.10969 276646.080000
   8017   8018     1   0.10969 276646.080000
   8017   8019     1   0.10969 276646.080000
   8023   8024     1   0.10969 276646.080000
   8023   8025     1   0.10969 276646.080000
   8026   8027     1   0.10969 276646.080000
   8026   8028     1   0.10969 276646.080000
   8033   8034     1   0.10969 276646.080000
   8033   8035     1   0.10969 276646.080000
   8036   8037     1   0.10969 276646.080000
   8036   8038     1   0.10969 276646.080000
   8039   8040     1   0.10969 276646.080000
   8039   8041     1   0.10969 276646.080000
   8043   8044     1   0.10969 276646.080000
   8043   8045     1   0.10969 276646.080000
   8046   8047     1   0.10969 276646.080000
   8046   8048     1   0.10969 276646.080000
   8052   8053     1   0.10969 276646.080000
   8052   8054     1   0.10969 276646.080000
   8055   8056     1   0.10969 276646.080000
   8055   8057     1   0.10969 276646.080000
   8062   8063     1   0.10969 276646.080000
   8062   8064     1   0.10969 276646.080000
   8065   8066     1   0.10969 276646.080000
   8065   8067     1   0.10969 276646.080000
   8068   8069     1   0.10969 276646.080000
   8068   8070     1   0.10969 276646.080000
   8072   8073     1   0.10969 276646.080000
   8072   8074     1   0.10969 276646.080000
   8075   8076     1   0.10969 276646.080000
   8075   8077     1   0.10969 276646.080000
   8081   8082     1   0.10969 276646.080000
   8081   8083     1   0.10969 276646.080000
   8084   8085     1   0.10969 276646.080000
   8084   8086     1   0.10969 276646.080000
   8091   8092     1   0.10969 276646.080000
   8091   8093     1   0.10969 276646.080000
   8094   8095     1   0.10969 276646.080000
   8094   8096     1   0.10969 276646.080000
   8097   8098     1   0.10969 276646.080000
   8097   8099     1   0.10969 276646.080000
   8101   8102     1   0.10969 276646.080000
   8101   8103     1   0.10969 276646.080000
   8104   8105     1   0.10969 276646.080000
   8104   8106     1   0.10969 276646.080000
   8110   8111     1   0.10969 276646.080000
   8110   8112     1   0.10969 276646.080000
   8113   8114     1   0.10969 276646.080000
   8113   8115     1   0.10969 276646.080000
   8120   8121     1   0.10969 276646.080000
   8120   8122     1   0.10969 276646.080000
   8123   8124     1   0.10969 276646.080000
   8123   8125     1   0.10969 276646.080000
   8126   8127     1   0.10969 276646.080000
   8126   8128     1   0.10969 276646.080000
   8130   8131     1   0.10969 276646.080000
   8130   8132     1   0.10969 276646.080000
   8133   8134     1   0.10969 276646.080000
   8133   8135     1   0.10969 276646.080000
   8139   8140     1   0.10969 276646.080000
   8139   8141     1   0.10969 276646.080000
   8142   8143     1   0.10969 276646.080000
   8142   8144     1   0.10969 276646.080000
   8149   8150     1   0.10969 276646.080000
   8149   8151     1   0.10969 276646.080000
   8152   8153     1   0.10969 276646.080000
   8152   8154     1   0.10969 276646.080000
   8155   8156     1   0.10969 276646.080000
   8155   8157     1   0.10969 276646.080000
   8159   8160     1   0.10969 276646.080000
   8159   8161     1   0.10969 276646.080000
   8162   8163     1   0.10969 276646.080000
   8162   8164     1   0.10969 276646.080000
   8168   8169     1   0.10969 276646.080000
   8168   8170     1   0.10969 276646.080000
   8171   8172     1   0.10969 276646.080000
   8171   8173     1   0.10969 276646.080000
   8178   8179     1   0.10969 276646.080000
   8178   8180     1   0.10969 276646.080000
   8181   8182     1   0.10969 276646.080000
   8181   8183     1   0.10969 276646.080000
   8184   8185     1   0.10969 276646.080000
   8184   8186     1   0.10969 276646.080000
   8188   8189     1   0.10969 276646.080000
   8188   8190     1   0.10969 276646.080000
   8191   8192     1   0.10969 276646.080000
   8191   8193     1   0.10969 276646.080000
   8197   8198     1   0.10969 276646.080000
   8197   8199     1   0.10969 276646.080000
   8200   8201     1   0.10969 276646.080000
   8200   8202     1   0.10969 276646.080000
   8207   8208     1   0.10969 276646.080000
   8207   8209     1   0.10969 276646.080000
   8210   8211     1   0.10969 276646.080000
   8210   8212     1   0.10969 276646.080000
   8213   8214     1   0.10969 276646.080000
   8213   8215     1   0.10969 276646.080000
   8217   8218     1   0.10969 276646.080000
   8217   8219     1   0.10969 276646.080000
   8220   8221     1   0.10969 276646.080000
   8220   8222     1   0.10969 276646.080000
   8226   8227     1   0.10969 276646.080000
   8226   8228     1   0.10969 276646.080000
   8229   8230     1   0.10969 276646.080000
   8229   8231     1   0.10969 276646.080000
   8236   8237     1   0.10969 276646.080000
   8236   8238     1   0.10969 276646.080000
   8239   8240     1   0.10969 276646.080000
   8239   8241     1   0.10969 276646.080000
   8242   8243     1   0.10969 276646.080000
   8242   8244     1   0.10969 276646.080000
   8246   8247     1   0.10969 276646.080000
   8246   8248     1   0.10969 276646.080000
   8249   8250     1   0.10969 276646.080000
   8249   8251     1   0.10969 276646.080000
   8255   8256     1   0.10969 276646.080000
   8255   8257     1   0.10969 276646.080000
   8258   8259     1   0.10969 276646.080000
   8258   8260     1   0.10969 276646.080000
   8265   8266     1   0.10969 276646.080000
   8265   8267     1   0.10969 276646.080000
   8268   8269     1   0.10969 276646.080000
   8268   8270     1   0.10969 276646.080000
   8271   8272     1   0.10969 276646.080000
   8271   8273     1   0.10969 276646.080000
   8275   8276     1   0.10969 276646.080000
   8275   8277     1   0.10969 276646.080000
   8278   8279     1   0.10969 276646.080000
   8278   8280     1   0.10969 276646.080000
   8284   8285     1   0.10969 276646.080000
   8284   8286     1   0.10969 276646.080000
   8287   8288     1   0.10969 276646.080000
   8287   8289     1   0.10969 276646.080000
   8294   8295     1   0.10969 276646.080000
   8294   8296     1   0.10969 276646.080000
   8297   8298     1   0.10969 276646.080000
   8297   8299     1   0.10969 276646.080000
   8300   8301     1   0.10969 276646.080000
   8300   8302     1   0.10969 276646.080000
   8304   8305     1   0.10969 276646.080000
   8304   8306     1   0.10969 276646.080000
   8307   8308     1   0.10969 276646.080000
   8307   8309     1   0.10969 276646.080000
   8313   8314     1   0.10969 276646.080000
   8313   8315     1   0.10969 276646.080000
   8316   8317     1   0.10969 276646.080000
   8316   8318     1   0.10969 276646.080000
   8323   8324     1   0.10969 276646.080000
   8323   8325     1   0.10969 276646.080000
   8326   8327     1   0.10969 276646.080000
   8326   8328     1   0.10969 276646.080000
   8329   8330     1   0.10969 276646.080000
   8329   8331     1   0.10969 276646.080000
   8333   8334     1   0.10969 276646.080000
   8333   8335     1   0.10969 276646.080000
   8336   8337     1   0.10969 276646.080000
   8336   8338     1   0.10969 276646.080000
   8342   8343     1   0.10969 276646.080000
   8342   8344     1   0.10969 276646.080000
   8345   8346     1   0.10969 276646.080000
   8345   8347     1   0.10969 276646.080000
   8352   8353     1   0.10969 276646.080000
   8352   8354     1   0.10969 276646.080000
   8355   8356     1   0.10969 276646.080000
   8355   8357     1   0.10969 276646.080000
   8358   8359     1   0.10969 276646.080000
   8358   8360     1   0.10969 276646.080000
   8362   8363     1   0.10969 276646.080000
   8362   8364     1   0.10969 276646.080000
   8365   8366     1   0.10969 276646.080000
   8365   8367     1   0.10969 276646.080000
   8371   8372     1   0.10969 276646.080000
   8371   8373     1   0.10969 276646.080000
   8374   8375     1   0.10969 276646.080000
   8374   8376     1   0.10969 276646.080000
   8381   8382     1   0.10969 276646.080000
   8381   8383     1   0.10969 276646.080000
   8384   8385     1   0.10969 276646.080000
   8384   8386     1   0.10969 276646.080000
   8387   8388     1   0.10969 276646.080000
   8387   8389     1   0.10969 276646.080000
   8391   8392     1   0.10969 276646.080000
   8391   8393     1   0.10969 276646.080000
   8394   8395     1   0.10969 276646.080000
   8394   8396     1   0.10969 276646.080000
   8400   8401     1   0.10969 276646.080000
   8400   8402     1   0.10969 276646.080000
   8403   8404     1   0.10969 276646.080000
   8403   8405     1   0.10969 276646.080000
   8410   8411     1   0.10969 276646.080000
   8410   8412     1   0.10969 276646.080000
   8413   8414     1   0.10969 276646.080000
   8413   8415     1   0.10969 276646.080000
   8416   8417     1   0.10969 276646.080000
   8416   8418     1   0.10969 276646.080000
   8420   8421     1   0.10969 276646.080000
   8420   8422     1   0.10969 276646.080000
   8423   8424     1   0.10969 276646.080000
   8423   8425     1   0.10969 276646.080000
   8429   8430     1   0.10969 276646.080000
   8429   8431     1   0.10969 276646.080000
   8432   8433     1   0.10969 276646.080000
   8432   8434     1   0.10969 276646.080000
   8439   8440     1   0.10969 276646.080000
   8439   8441     1   0.10969 276646.080000
   8442   8443     1   0.10969 276646.080000
   8442   8444     1   0.10969 276646.080000
   8445   8446     1   0.10969 276646.080000
   8445   8447     1   0.10969 276646.080000
   8449   8450     1   0.10969 276646.080000
   8449   8451     1   0.10969 276646.080000
   8452   8453     1   0.10969 276646.080000
   8452   8454     1   0.10969 276646.080000
   8458   8459     1   0.10969 276646.080000
   8458   8460     1   0.10969 276646.080000
   8461   8462     1   0.10969 276646.080000
   8461   8463     1   0.10969 276646.080000
   8468   8469     1   0.10969 276646.080000
   8468   8470     1   0.10969 276646.080000
   8471   8472     1   0.10969 276646.080000
   8471   8473     1   0.10969 276646.080000
   8474   8475     1   0.10969 276646.080000
   8474   8476     1   0.10969 276646.080000
   8478   8479     1   0.10969 276646.080000
   8478   8480     1   0.10969 276646.080000
   8481   8482     1   0.10969 276646.080000
   8481   8483     1   0.10969 276646.080000
   8487   8488     1   0.10969 276646.080000
   8487   8489     1   0.10969 276646.080000
   8490   8491     1   0.10969 276646.080000
   8490   8492     1   0.10969 276646.080000
   8497   8498     1   0.10969 276646.080000
   8497   8499     1   0.10969 276646.080000
   8500   8501     1   0.10969 276646.080000
   8500   8502     1   0.10969 276646.080000
   8503   8504     1   0.10969 276646.080000
   8503   8505     1   0.10969 276646.080000
   8507   8508     1   0.10969 276646.080000
   8507   8509     1   0.10969 276646.080000
   8510   8511     1   0.10969 276646.080000
   8510   8512     1   0.10969 276646.080000
   8516   8517     1   0.10969 276646.080000
   8516   8518     1   0.10969 276646.080000
   8519   8520     1   0.10969 276646.080000
   8519   8521     1   0.10969 276646.080000
   8526   8527     1   0.10969 276646.080000
   8526   8528     1   0.10969 276646.080000
   8529   8530     1   0.10969 276646.080000
   8529   8531     1   0.10969 276646.080000
   8532   8533     1   0.10969 276646.080000
   8532   8534     1   0.10969 276646.080000
   8536   8537     1   0.10969 276646.080000
   8536   8538     1   0.10969 276646.080000
   8539   8540     1   0.10969 276646.080000
   8539   8541     1   0.10969 276646.080000
   8545   8546     1   0.10969 276646.080000
   8545   8547     1   0.10969 276646.080000
   8548   8549     1   0.10969 276646.080000
   8548   8550     1   0.10969 276646.080000
   8555   8556     1   0.10969 276646.080000
   8555   8557     1   0.10969 276646.080000
   8558   8559     1   0.10969 276646.080000
   8558   8560     1   0.10969 276646.080000
   8561   8562     1   0.10969 276646.080000
   8561   8563     1   0.10969 276646.080000
   8565   8566     1   0.10969 276646.080000
   8565   8567     1   0.10969 276646.080000
   8568   8569     1   0.10969 276646.080000
   8568   8570     1   0.10969 276646.080000
   8574   8575     1   0.10969 276646.080000
   8574   8576     1   0.10969 276646.080000
   8577   8578     1   0.10969 276646.080000
   8577   8579     1   0.10969 276646.080000
   8584   8585     1   0.10969 276646.080000
   8584   8586     1   0.10969 276646.080000
   8587   8588     1   0.10969 276646.080000
   8587   8589     1   0.10969 276646.080000
   8590   8591     1   0.10969 276646.080000
   8590   8592     1   0.10969 276646.080000
   8594   8595     1   0.10969 276646.080000
   8594   8596     1   0.10969 276646.080000
   8597   8598     1   0.10969 276646.080000
   8597   8599     1   0.10969 276646.080000
   8603   8604     1   0.10969 276646.080000
   8603   8605     1   0.10969 276646.080000
   8606   8607     1   0.10969 276646.080000
   8606   8608     1   0.10969 276646.080000
   8613   8614     1   0.10969 276646.080000
   8613   8615     1   0.10969 276646.080000
   8616   8617     1   0.10969 276646.080000
   8616   8618     1   0.10969 276646.080000
   8619   8620     1   0.10969 276646.080000
   8619   8621     1   0.10969 276646.080000
   8623   8624     1   0.10969 276646.080000
   8623   8625     1   0.10969 276646.080000
   8626   8627     1   0.10969 276646.080000
   8626   8628     1   0.10969 276646.080000
   8632   8633     1   0.10969 276646.080000
   8632   8634     1   0.10969 276646.080000
   8635   8636     1   0.10969 276646.080000
   8635   8637     1   0.10969 276646.080000
   8642   8643     1   0.10969 276646.080000
   8642   8644     1   0.10969 276646.080000
   8645   8646     1   0.10969 276646.080000
   8645   8647     1   0.10969 276646.080000
   8648   8649     1   0.10969 276646.080000
   8648   8650     1   0.10969 276646.080000
   8652   8653     1   0.10969 276646.080000
   8652   8654     1   0.10969 276646.080000
   8655   8656     1   0.10969 276646.080000
   8655   8657     1   0.10969 276646.080000
   8661   8662     1   0.10969 276646.080000
   8661   8663     1   0.10969 276646.080000
   8664   8665     1   0.10969 276646.080000
   8664   8666     1   0.10969 276646.080000
   8671   8672     1   0.10969 276646.080000
   8671   8673     1   0.10969 276646.080000
   8674   8675     1   0.10969 276646.080000
   8674   8676     1   0.10969 276646.080000
   8677   8678     1   0.10969 276646.080000
   8677   8679     1   0.10969 276646.080000
   8681   8682     1   0.10969 276646.080000
   8681   8683     1   0.10969 276646.080000
   8684   8685     1   0.10969 276646.080000
   8684   8686     1   0.10969 276646.080000
   8690   8691     1   0.10969 276646.080000
   8690   8692     1   0.10969 276646.080000
   8693   8694     1   0.10969 276646.080000
   8693   8695     1   0.10969 276646.080000
   8700   8701     1   0.10969 276646.080000
   8700   8702     1   0.10969 276646.080000
   8703   8704     1   0.10969 276646.080000
   8703   8705     1   0.10969 276646.080000
   8706   8707     1   0.10969 276646.080000
   8706   8708     1   0.10969 276646.080000
   8710   8711     1   0.10969 276646.080000
   8710   8712     1   0.10969 276646.080000
   8713   8714     1   0.10969 276646.080000
   8713   8715     1   0.10969 276646.080000
   8719   8720     1   0.10969 276646.080000
   8719   8721     1   0.10969 276646.080000
   8722   8723     1   0.10969 276646.080000
   8722   8724     1   0.10969 276646.080000
   8729   8730     1   0.10969 276646.080000
   8729   8731     1   0.10969 276646.080000
   8732   8733     1   0.10969 276646.080000
   8732   8734     1   0.10969 276646.080000
   8735   8736     1   0.10969 276646.080000
   8735   8737     1   0.10969 276646.080000
   8739   8740     1   0.10969 276646.080000
   8739   8741     1   0.10969 276646.080000
   8742   8743     1   0.10969 276646.080000
   8742   8744     1   0.10969 276646.080000
   8748   8749     1   0.10969 276646.080000
   8748   8750     1   0.10969 276646.080000
   8751   8752     1   0.10969 276646.080000
   8751   8753     1   0.10969 276646.080000
   8758   8759     1   0.10969 276646.080000
   8758   8760     1   0.10969 276646.080000
   8761   8762     1   0.10969 276646.080000
   8761   8763     1   0.10969 276646.080000
   8764   8765     1   0.10969 276646.080000
   8764   8766     1   0.10969 276646.080000
   8768   8769     1   0.10969 276646.080000
   8768   8770     1   0.10969 276646.080000
   8771   8772     1   0.10969 276646.080000
   8771   8773     1   0.10969 276646.080000
   8777   8778     1   0.10969 276646.080000
   8777   8779     1   0.10969 276646.080000
   8780   8781     1   0.10969 276646.080000
   8780   8782     1   0.10969 276646.080000
   8787   8788     1   0.10969 276646.080000
   8787   8789     1   0.10969 276646.080000
   8790   8791     1   0.10969 276646.080000
   8790   8792     1   0.10969 276646.080000
   8793   8794     1   0.10969 276646.080000
   8793   8795     1   0.10969 276646.080000
   8797   8798     1   0.10969 276646.080000
   8797   8799     1   0.10969 276646.080000
   8800   8801     1   0.10969 276646.080000
   8800   8802     1   0.10969 276646.080000
   8806   8807     1   0.10969 276646.080000
   8806   8808     1   0.10969 276646.080000
   8809   8810     1   0.10969 276646.080000
   8809   8811     1   0.10969 276646.080000
   8816   8817     1   0.10969 276646.080000
   8816   8818     1   0.10969 276646.080000
   8819   8820     1   0.10969 276646.080000
   8819   8821     1   0.10969 276646.080000
   8822   8823     1   0.10969 276646.080000
   8822   8824     1   0.10969 276646.080000
   8826   8827     1   0.10969 276646.080000
   8826   8828     1   0.10969 276646.080000
   8829   8830     1   0.10969 276646.080000
   8829   8831     1   0.10969 276646.080000
   8835   8836     1   0.10969 276646.080000
   8835   8837     1   0.10969 276646.080000
   8838   8839     1   0.10969 276646.080000
   8838   8840     1   0.10969 276646.080000
   8845   8846     1   0.10969 276646.080000
   8845   8847     1   0.10969 276646.080000
   8848   8849     1   0.10969 276646.080000
   8848   8850     1   0.10969 276646.080000
   8851   8852     1   0.10969 276646.080000
   8851   8853     1   0.10969 276646.080000
   8855   8856     1   0.10969 276646.080000
   8855   8857     1   0.10969 276646.080000
   8858   8859     1   0.10969 276646.080000
   8858   8860     1   0.10969 276646.080000
   8864   8865     1   0.10969 276646.080000
   8864   8866     1   0.10969 276646.080000
   8867   8868     1   0.10969 276646.080000
   8867   8869     1   0.10969 276646.080000
   8874   8875     1   0.10969 276646.080000
   8874   8876     1   0.10969 276646.080000
   8877   8878     1   0.10969 276646.080000
   8877   8879     1   0.10969 276646.080000
   8880   8881     1   0.10969 276646.080000
   8880   8882     1   0.10969 276646.080000
   8884   8885     1   0.10969 276646.080000
   8884   8886     1   0.10969 276646.080000
   8887   8888     1   0.10969 276646.080000
   8887   8889     1   0.10969 276646.080000
   8893   8894     1   0.10969 276646.080000
   8893   8895     1   0.10969 276646.080000
   8896   8897     1   0.10969 276646.080000
   8896   8898     1   0.10969 276646.080000
   8903   8904     1   0.10969 276646.080000
   8903   8905     1   0.10969 276646.080000
   8906   8907     1   0.10969 276646.080000
   8906   8908     1   0.10969 276646.080000
   8909   8910     1   0.10969 276646.080000
   8909   8911     1   0.10969 276646.080000
   8913   8914     1   0.10969 276646.080000
   8913   8915     1   0.10969 276646.080000
   8916   8917     1   0.10969 276646.080000
   8916   8918     1   0.10969 276646.080000
   8922   8923     1   0.10969 276646.080000
   8922   8924     1   0.10969 276646.080000
   8925   8926     1   0.10969 276646.080000
   8925   8927     1   0.10969 276646.080000
   8932   8933     1   0.10969 276646.080000
   8932   8934     1   0.10969 276646.080000
   8935   8936     1   0.10969 276646.080000
   8935   8937     1   0.10969 276646.080000
   8938   8939     1   0.10969 276646.080000
   8938   8940     1   0.10969 276646.080000
   8942   8943     1   0.10969 276646.080000
   8942   8944     1   0.10969 276646.080000
   8945   8946     1   0.10969 276646.080000
   8945   8947     1   0.10969 276646.080000
   8951   8952     1   0.10969 276646.080000
   8951   8953     1   0.10969 276646.080000
   8954   8955     1   0.10969 276646.080000
   8954   8956     1   0.10969 276646.080000
   8961   8962     1   0.10969 276646.080000
   8961   8963     1   0.10969 276646.080000
   8964   8965     1   0.10969 276646.080000
   8964   8966     1   0.10969 276646.080000
   8967   8968     1   0.10969 276646.080000
   8967   8969     1   0.10969 276646.080000
   8971   8972     1   0.10969 276646.080000
   8971   8973     1   0.10969 276646.080000
   8974   8975     1   0.10969 276646.080000
   8974   8976     1   0.10969 276646.080000
   8980   8981     1   0.10969 276646.080000
   8980   8982     1   0.10969 276646.080000
   8983   8984     1   0.10969 276646.080000
   8983   8985     1   0.10969 276646.080000
   8990   8991     1   0.10969 276646.080000
   8990   8992     1   0.10969 276646.080000
   8993   8994     1   0.10969 276646.080000
   8993   8995     1   0.10969 276646.080000
   8996   8997     1   0.10969 276646.080000
   8996   8998     1   0.10969 276646.080000
   9000   9001     1   0.10969 276646.080000
   9000   9002     1   0.10969 276646.080000
   9003   9004     1   0.10969 276646.080000
   9003   9005     1   0.10969 276646.080000
   9009   9010     1   0.10969 276646.080000
   9009   9011     1   0.10969 276646.080000
   9012   9013     1   0.10969 276646.080000
   9012   9014     1   0.10969 276646.080000
   9019   9020     1   0.10969 276646.080000
   9019   9021     1   0.10969 276646.080000
   9022   9023     1   0.10969 276646.080000
   9022   9024     1   0.10969 276646.080000
   9025   9026     1   0.10969 276646.080000
   9025   9027     1   0.10969 276646.080000
   9029   9030     1   0.10969 276646.080000
   9029   9031     1   0.10969 276646.080000
   9032   9033     1   0.10969 276646.080000
   9032   9034     1   0.10969 276646.080000
   9038   9039     1   0.10969 276646.080000
   9038   9040     1   0.10969 276646.080000
   9041   9042     1   0.10969 276646.080000
   9041   9043     1   0.10969 276646.080000
   9048   9049     1   0.10969 276646.080000
   9048   9050     1   0.10969 276646.080000
   9051   9052     1   0.10969 276646.080000
   9051   9053     1   0.10969 276646.080000
   9054   9055     1   0.10969 276646.080000
   9054   9056     1   0.10969 276646.080000
   9058   9059     1   0.10969 276646.080000
   9058   9060     1   0.10969 276646.080000
   9061   9062     1   0.10969 276646.080000
   9061   9063     1   0.10969 276646.080000
   9067   9068     1   0.10969 276646.080000
   9067   9069     1   0.10969 276646.080000
   9070   9071     1   0.10969 276646.080000
   9070   9072     1   0.10969 276646.080000
   9077   9078     1   0.10969 276646.080000
   9077   9079     1   0.10969 276646.080000
   9080   9081     1   0.10969 276646.080000
   9080   9082     1   0.10969 276646.080000
   9083   9084     1   0.10969 276646.080000
   9083   9085     1   0.10969 276646.080000
   9087   9088     1   0.10969 276646.080000
   9087   9089     1   0.10969 276646.080000
   9090   9091     1   0.10969 276646.080000
   9090   9092     1   0.10969 276646.080000
   9096   9097     1   0.10969 276646.080000
   9096   9098     1   0.10969 276646.080000
   9099   9100     1   0.10969 276646.080000
   9099   9101     1   0.10969 276646.080000
   9106   9107     1   0.10969 276646.080000
   9106   9108     1   0.10969 276646.080000
   9109   9110     1   0.10969 276646.080000
   9109   9111     1   0.10969 276646.080000
   9112   9113     1   0.10969 276646.080000
   9112   9114     1   0.10969 276646.080000
   9116   9117     1   0.10969 276646.080000
   9116   9118     1   0.10969 276646.080000
   9119   9120     1   0.10969 276646.080000
   9119   9121     1   0.10969 276646.080000
   9125   9126     1   0.10969 276646.080000
   9125   9127     1   0.10969 276646.080000
   9128   9129     1   0.10969 276646.080000
   9128   9130     1   0.10969 276646.080000
   9135   9136     1   0.10969 276646.080000
   9135   9137     1   0.10969 276646.080000
   9138   9139     1   0.10969 276646.080000
   9138   9140     1   0.10969 276646.080000
   9141   9142     1   0.10969 276646.080000
   9141   9143     1   0.10969 276646.080000
   9145   9146     1   0.10969 276646.080000
   9145   9147     1   0.10969 276646.080000
   9148   9149     1   0.10969 276646.080000
   9148   9150     1   0.10969 276646.080000
   9154   9155     1   0.10969 276646.080000
   9154   9156     1   0.10969 276646.080000
   9157   9158     1   0.10969 276646.080000
   9157   9159     1   0.10969 276646.080000
   9164   9165     1   0.10969 276646.080000
   9164   9166     1   0.10969 276646.080000
   9167   9168     1   0.10969 276646.080000
   9167   9169     1   0.10969 276646.080000
   9170   9171     1   0.10969 276646.080000
   9170   9172     1   0.10969 276646.080000
   9174   9175     1   0.10969 276646.080000
   9174   9176     1   0.10969 276646.080000
   9177   9178     1   0.10969 276646.080000
   9177   9179     1   0.10969 276646.080000
   9183   9184     1   0.10969 276646.080000
   9183   9185     1   0.10969 276646.080000
   9186   9187     1   0.10969 276646.080000
   9186   9188     1   0.10969 276646.080000
   9193   9194     1   0.10969 276646.080000
   9193   9195     1   0.10969 276646.080000
   9196   9197     1   0.10969 276646.080000
   9196   9198     1   0.10969 276646.080000
   9199   9200     1   0.10969 276646.080000
   9199   9201     1   0.10969 276646.080000
   9203   9204     1   0.10969 276646.080000
   9203   9205     1   0.10969 276646.080000
   9206   9207     1   0.10969 276646.080000
   9206   9208     1   0.10969 276646.080000
   9212   9213     1   0.10969 276646.080000
   9212   9214     1   0.10969 276646.080000
   9215   9216     1   0.10969 276646.080000
   9215   9217     1   0.10969 276646.080000
   9222   9223     1   0.10969 276646.080000
   9222   9224     1   0.10969 276646.080000
   9225   9226     1   0.10969 276646.080000
   9225   9227     1   0.10969 276646.080000
   9228   9229     1   0.10969 276646.080000
   9228   9230     1   0.10969 276646.080000
   9232   9233     1   0.10969 276646.080000
   9232   9234     1   0.10969 276646.080000
   9235   9236     1   0.10969 276646.080000
   9235   9237     1   0.10969 276646.080000
   9241   9242     1   0.10969 276646.080000
   9241   9243     1   0.10969 276646.080000
   9244   9245     1   0.10969 276646.080000
   9244   9246     1   0.10969 276646.080000
   9251   9252     1   0.10969 276646.080000
   9251   9253     1   0.10969 276646.080000
   9254   9255     1   0.10969 276646.080000
   9254   9256     1   0.10969 276646.080000
   9257   9258     1   0.10969 276646.080000
   9257   9259     1   0.10969 276646.080000
   9261   9262     1   0.10969 276646.080000
   9261   9263     1   0.10969 276646.080000
   9264   9265     1   0.10969 276646.080000
   9264   9266     1   0.10969 276646.080000
   9270   9271     1   0.10969 276646.080000
   9270   9272     1   0.10969 276646.080000
   9273   9274     1   0.10969 276646.080000
   9273   9275     1   0.10969 276646.080000
   9280   9281     1   0.10969 276646.080000
   9280   9282     1   0.10969 276646.080000
   9283   9284     1   0.10969 276646.080000
   9283   9285     1   0.10969 276646.080000
   9286   9287     1   0.10969 276646.080000
   9286   9288     1   0.10969 276646.080000
   9290   9291     1   0.10969 276646.080000
   9290   9292     1   0.10969 276646.080000
   9293   9294     1   0.10969 276646.080000
   9293   9295     1   0.10969 276646.080000
   9299   9300     1   0.10969 276646.080000
   9299   9301     1   0.10969 276646.080000
   9302   9303     1   0.10969 276646.080000
   9302   9304     1   0.10969 276646.080000
   9309   9310     1   0.10969 276646.080000
   9309   9311     1   0.10969 276646.080000
   9312   9313     1   0.10969 276646.080000
   9312   9314     1   0.10969 276646.080000
   9315   9316     1   0.10969 276646.080000
   9315   9317     1   0.10969 276646.080000
   9319   9320     1   0.10969 276646.080000
   9319   9321     1   0.10969 276646.080000
   9322   9323     1   0.10969 276646.080000
   9322   9324     1   0.10969 276646.080000
   9328   9329     1   0.10969 276646.080000
   9328   9330     1   0.10969 276646.080000
   9331   9332     1   0.10969 276646.080000
   9331   9333     1   0.10969 276646.080000
   9338   9339     1   0.10969 276646.080000
   9338   9340     1   0.10969 276646.080000
   9341   9342     1   0.10969 276646.080000
   9341   9343     1   0.10969 276646.080000
   9344   9345     1   0.10969 276646.080000
   9344   9346     1   0.10969 276646.080000
   9348   9349     1   0.10969 276646.080000
   9348   9350     1   0.10969 276646.080000
   9351   9352     1   0.10969 276646.080000
   9351   9353     1   0.10969 276646.080000
   9357   9358     1   0.10969 276646.080000
   9357   9359     1   0.10969 276646.080000
   9360   9361     1   0.10969 276646.080000
   9360   9362     1   0.10969 276646.080000
   9367   9368     1   0.10969 276646.080000
   9367   9369     1   0.10969 276646.080000
   9370   9371     1   0.10969 276646.080000
   9370   9372     1   0.10969 276646.080000
   9373   9374     1   0.10969 276646.080000
   9373   9375     1   0.10969 276646.080000
   9377   9378     1   0.10969 276646.080000
   9377   9379     1   0.10969 276646.080000
   9380   9381     1   0.10969 276646.080000
   9380   9382     1   0.10969 276646.080000
   9386   9387     1   0.10969 276646.080000
   9386   9388     1   0.10969 276646.080000
   9389   9390     1   0.10969 276646.080000
   9389   9391     1   0.10969 276646.080000
   9396   9397     1   0.10969 276646.080000
   9396   9398     1   0.10969 276646.080000
   9399   9400     1   0.10969 276646.080000
   9399   9401     1   0.10969 276646.080000
   9402   9403     1   0.10969 276646.080000
   9402   9404     1   0.10969 276646.080000
   9406   9407     1   0.10969 276646.080000
   9406   9408     1   0.10969 276646.080000
   9409   9410     1   0.10969 276646.080000
   9409   9411     1   0.10969 276646.080000
   9415   9416     1   0.10969 276646.080000
   9415   9417     1   0.10969 276646.080000
   9418   9419     1   0.10969 276646.080000
   9418   9420     1   0.10969 276646.080000
   9425   9426     1   0.10969 276646.080000
   9425   9427     1   0.10969 276646.080000
   9428   9429     1   0.10969 276646.080000
   9428   9430     1   0.10969 276646.080000
   9431   9432     1   0.10969 276646.080000
   9431   9433     1   0.10969 276646.080000
   9435   9436     1   0.10969 276646.080000
   9435   9437     1   0.10969 276646.080000
   9438   9439     1   0.10969 276646.080000
   9438   9440     1   0.10969 276646.080000
   9444   9445     1   0.10969 276646.080000
   9444   9446     1   0.10969 276646.080000
   9447   9448     1   0.10969 276646.080000
   9447   9449     1   0.10969 276646.080000
   9454   9455     1   0.10969 276646.080000
   9454   9456     1   0.10969 276646.080000
   9457   9458     1   0.10969 276646.080000
   9457   9459     1   0.10969 276646.080000
   9460   9461     1   0.10969 276646.080000
   9460   9462     1   0.10969 276646.080000
   9464   9465     1   0.10969 276646.080000
   9464   9466     1   0.10969 276646.080000
   9467   9468     1   0.10969 276646.080000
   9467   9469     1   0.10969 276646.080000
   9473   9474     1   0.10969 276646.080000
   9473   9475     1   0.10969 276646.080000
   9476   9477     1   0.10969 276646.080000
   9476   9478     1   0.10969 276646.080000
   9483   9484     1   0.10969 276646.080000
   9483   9485     1   0.10969 276646.080000
   9486   9487     1   0.10969 276646.080000
   9486   9488     1   0.10969 276646.080000
   9489   9490     1   0.10969 276646.080000
   9489   9491     1   0.10969 276646.080000
   9493   9494     1   0.10969 276646.080000
   9493   9495     1   0.10969 276646.080000
   9496   9497     1   0.10969 276646.080000
   9496   9498     1   0.10969 276646.080000
   9502   9503     1   0.10969 276646.080000
   9502   9504     1   0.10969 276646.080000
   9505   9506     1   0.10969 276646.080000
   9505   9507     1   0.10969 276646.080000
   9512   9513     1   0.10969 276646.080000
   9512   9514     1   0.10969 276646.080000
   9515   9516     1   0.10969 276646.080000
   9515   9517     1   0.10969 276646.080000
   9518   9519     1   0.10969 276646.080000
   9518   9520     1   0.10969 276646.080000
   9522   9523     1   0.10969 276646.080000
   9522   9524     1   0.10969 276646.080000
   9525   9526     1   0.10969 276646.080000
   9525   9527     1   0.10969 276646.080000
   9531   9532     1   0.10969 276646.080000
   9531   9533     1   0.10969 276646.080000
   9534   9535     1   0.10969 276646.080000
   9534   9536     1   0.10969 276646.080000
   9541   9542     1   0.10969 276646.080000
   9541   9543     1   0.10969 276646.080000
   9544   9545     1   0.10969 276646.080000
   9544   9546     1   0.10969 276646.080000
   9547   9548     1   0.10969 276646.080000
   9547   9549     1   0.10969 276646.080000
   9551   9552     1   0.10969 276646.080000
   9551   9553     1   0.10969 276646.080000
   9554   9555     1   0.10969 276646.080000
   9554   9556     1   0.10969 276646.080000
   9560   9561     1   0.10969 276646.080000
   9560   9562     1   0.10969 276646.080000
   9563   9564     1   0.10969 276646.080000
   9563   9565     1   0.10969 276646.080000
   9570   9571     1   0.10969 276646.080000
   9570   9572     1   0.10969 276646.080000
   9573   9574     1   0.10969 276646.080000
   9573   9575     1   0.10969 276646.080000
   9576   9577     1   0.10969 276646.080000
   9576   9578     1   0.10969 276646.080000
   9580   9581     1   0.10969 276646.080000
   9580   9582     1   0.10969 276646.080000
   9583   9584     1   0.10969 276646.080000
   9583   9585     1   0.10969 276646.080000
   9589   9590     1   0.10969 276646.080000
   9589   9591     1   0.10969 276646.080000
   9592   9593     1   0.10969 276646.080000
   9592   9594     1   0.10969 276646.080000
   9599   9600     1   0.10969 276646.080000
   9599   9601     1   0.10969 276646.080000
   9602   9603     1   0.10969 276646.080000
   9602   9604     1   0.10969 276646.080000
   9605   9606     1   0.10969 276646.080000
   9605   9607     1   0.10969 276646.080000
   9609   9610     1   0.10969 276646.080000
   9609   9611     1   0.10969 276646.080000
   9612   9613     1   0.10969 276646.080000
   9612   9614     1   0.10969 276646.080000
   9618   9619     1   0.10969 276646.080000
   9618   9620     1   0.10969 276646.080000
   9621   9622     1   0.10969 276646.080000
   9621   9623     1   0.10969 276646.080000
   9628   9629     1   0.10969 276646.080000
   9628   9630     1   0.10969 276646.080000
   9631   9632     1   0.10969 276646.080000
   9631   9633     1   0.10969 276646.080000
   9634   9635     1   0.10969 276646.080000
   9634   9636     1   0.10969 276646.080000
   9638   9639     1   0.10969 276646.080000
   9638   9640     1   0.10969 276646.080000
   9641   9642     1   0.10969 276646.080000
   9641   9643     1   0.10969 276646.080000
   9647   9648     1   0.10969 276646.080000
   9647   9649     1   0.10969 276646.080000
   9650   9651     1   0.10969 276646.080000
   9650   9652     1   0.10969 276646.080000
   9657   9658     1   0.10969 276646.080000
   9657   9659     1   0.10969 276646.080000
   9660   9661     1   0.10969 276646.080000
   9660   9662     1   0.10969 276646.080000
   9663   9664     1   0.10969 276646.080000
   9663   9665     1   0.10969 276646.080000
   9667   9668     1   0.10969 276646.080000
   9667   9669     1   0.10969 276646.080000
   9670   9671     1   0.10969 276646.080000
   9670   9672     1   0.10969 276646.080000
   9676   9677     1   0.10969 276646.080000
   9676   9678     1   0.10969 276646.080000
   9679   9680     1   0.10969 276646.080000
   9679   9681     1   0.10969 276646.080000
   9686   9687     1   0.10969 276646.080000
   9686   9688     1   0.10969 276646.080000
   9689   9690     1   0.10969 276646.080000
   9689   9691     1   0.10969 276646.080000
   9692   9693     1   0.10969 276646.080000
   9692   9694     1   0.10969 276646.080000
   9696   9697     1   0.10969 276646.080000
   9696   9698     1   0.10969 276646.080000
   9699   9700     1   0.10969 276646.080000
   9699   9701     1   0.10969 276646.080000
   9705   9706     1   0.10969 276646.080000
   9705   9707     1   0.10969 276646.080000
   9708   9709     1   0.10969 276646.080000
   9708   9710     1   0.10969 276646.080000
   9715   9716     1   0.10969 276646.080000
   9715   9717     1   0.10969 276646.080000
   9718   9719     1   0.10969 276646.080000
   9718   9720     1   0.10969 276646.080000
   9721   9722     1   0.10969 276646.080000
   9721   9723     1   0.10969 276646.080000
   9725   9726     1   0.10969 276646.080000
   9725   9727     1   0.10969 276646.080000
   9728   9729     1   0.10969 276646.080000
   9728   9730     1   0.10969 276646.080000
   9734   9735     1   0.10969 276646.080000
   9734   9736     1   0.10969 276646.080000
   9737   9738     1   0.10969 276646.080000
   9737   9739     1   0.10969 276646.080000
   9744   9745     1   0.10969 276646.080000
   9744   9746     1   0.10969 276646.080000
   9747   9748     1   0.10969 276646.080000
   9747   9749     1   0.10969 276646.080000
   9750   9751     1   0.10969 276646.080000
   9750   9752     1   0.10969 276646.080000
   9754   9755     1   0.10969 276646.080000
   9754   9756     1   0.10969 276646.080000
   9757   9758     1   0.10969 276646.080000
   9757   9759     1   0.10969 276646.080000
   9763   9764     1   0.10969 276646.080000
   9763   9765     1   0.10969 276646.080000
   9766   9767     1   0.10969 276646.080000
   9766   9768     1   0.10969 276646.080000
   9773   9774     1   0.10969 276646.080000
   9773   9775     1   0.10969 276646.080000
   9776   9777     1   0.10969 276646.080000
   9776   9778     1   0.10969 276646.080000
   9779   9780     1   0.10969 276646.080000
   9779   9781     1   0.10969 276646.080000
   9783   9784     1   0.10969 276646.080000
   9783   9785     1   0.10969 276646.080000
   9786   9787     1   0.10969 276646.080000
   9786   9788     1   0.10969 276646.080000
   9792   9793     1   0.10969 276646.080000
   9792   9794     1   0.10969 276646.080000
   9795   9796     1   0.10969 276646.080000
   9795   9797     1   0.10969 276646.080000
   9802   9803     1   0.10969 276646.080000
   9802   9804     1   0.10969 276646.080000
   9805   9806     1   0.10969 276646.080000
   9805   9807     1   0.10969 276646.080000
   9808   9809     1   0.10969 276646.080000
   9808   9810     1   0.10969 276646.080000
   9812   9813     1   0.10969 276646.080000
   9812   9814     1   0.10969 276646.080000
   9815   9816     1   0.10969 276646.080000
   9815   9817     1   0.10969 276646.080000
   9821   9822     1   0.10969 276646.080000
   9821   9823     1   0.10969 276646.080000
   9824   9825     1   0.10969 276646.080000
   9824   9826     1   0.10969 276646.080000
   9831   9832     1   0.10969 276646.080000
   9831   9833     1   0.10969 276646.080000
   9834   9835     1   0.10969 276646.080000
   9834   9836     1   0.10969 276646.080000
   9837   9838     1   0.10969 276646.080000
   9837   9839     1   0.10969 276646.080000
   9841   9842     1   0.10969 276646.080000
   9841   9843     1   0.10969 276646.080000
   9844   9845     1   0.10969 276646.080000
   9844   9846     1   0.10969 276646.080000
   9850   9851     1   0.10969 276646.080000
   9850   9852     1   0.10969 276646.080000
   9853   9854     1   0.10969 276646.080000
   9853   9855     1   0.10969 276646.080000
   9860   9861     1   0.10969 276646.080000
   9860   9862     1   0.10969 276646.080000
   9863   9864     1   0.10969 276646.080000
   9863   9865     1   0.10969 276646.080000
   9866   9867     1   0.10969 276646.080000
   9866   9868     1   0.10969 276646.080000
   9870   9871     1   0.10969 276646.080000
   9870   9872     1   0.10969 276646.080000
   9873   9874     1   0.10969 276646.080000
   9873   9875     1   0.10969 276646.080000
   9879   9880     1   0.10969 276646.080000
   9879   9881     1   0.10969 276646.080000
   9882   9883     1   0.10969 276646.080000
   9882   9884     1   0.10969 276646.080000
   9889   9890     1   0.10969 276646.080000
   9889   9891     1   0.10969 276646.080000
   9892   9893     1   0.10969 276646.080000
   9892   9894     1   0.10969 276646.080000
   9895   9896     1   0.10969 276646.080000
   9895   9897     1   0.10969 276646.080000
   9899   9900     1   0.10969 276646.080000
   9899   9901     1   0.10969 276646.080000
   9902   9903     1   0.10969 276646.080000
   9902   9904     1   0.10969 276646.080000
   9908   9909     1   0.10969 276646.080000
   9908   9910     1   0.10969 276646.080000
   9911   9912     1   0.10969 276646.080000
   9911   9913     1   0.10969 276646.080000
   9918   9919     1   0.10969 276646.080000
   9918   9920     1   0.10969 276646.080000
   9921   9922     1   0.10969 276646.080000
   9921   9923     1   0.10969 276646.080000
   9924   9925     1   0.10969 276646.080000
   9924   9926     1   0.10969 276646.080000
   9928   9929     1   0.10969 276646.080000
   9928   9930     1   0.10969 276646.080000
   9931   9932     1   0.10969 276646.080000
   9931   9933     1   0.10969 276646.080000
   9937   9938     1   0.10969 276646.080000
   9937   9939     1   0.10969 276646.080000
   9940   9941     1   0.10969 276646.080000
   9940   9942     1   0.10969 276646.080000
   9947   9948     1   0.10969 276646.080000
   9947   9949     1   0.10969 276646.080000
   9950   9951     1   0.10969 276646.080000
   9950   9952     1   0.10969 276646.080000
   9953   9954     1   0.10969 276646.080000
   9953   9955     1   0.10969 276646.080000
   9957   9958     1   0.10969 276646.080000
   9957   9959     1   0.10969 276646.080000
   9960   9961     1   0.10969 276646.080000
   9960   9962     1   0.10969 276646.080000
   9966   9967     1   0.10969 276646.080000
   9966   9968     1   0.10969 276646.080000
   9969   9970     1   0.10969 276646.080000
   9969   9971     1   0.10969 276646.080000
   9976   9977     1   0.10969 276646.080000
   9976   9978     1   0.10969 276646.080000
   9979   9980     1   0.10969 276646.080000
   9979   9981     1   0.10969 276646.080000
   9982   9983     1   0.10969 276646.080000
   9982   9984     1   0.10969 276646.080000
   9986   9987     1   0.10969 276646.080000
   9986   9988     1   0.10969 276646.080000
   9989   9990     1   0.10969 276646.080000
   9989   9991     1   0.10969 276646.080000
   9995   9996     1   0.10969 276646.080000
   9995   9997     1   0.10969 276646.080000
   9998   9999     1   0.10969 276646.080000
   9998  10000     1   0.10969 276646.080000
  10005  10006     1   0.10969 276646.080000
  10005  10007     1   0.10969 276646.080000
  10008  10009     1   0.10969 276646.080000
  10008  10010     1   0.10969 276646.080000
  10011  10012     1   0.10969 276646.080000
  10011  10013     1   0.10969 276646.080000
  10015  10016     1   0.10969 276646.080000
  10015  10017     1   0.10969 276646.080000
  10018  10019     1   0.10969 276646.080000
  10018  10020     1   0.10969 276646.080000
  10024  10025     1   0.10969 276646.080000
  10024  10026     1   0.10969 276646.080000
  10027  10028     1   0.10969 276646.080000
  10027  10029     1   0.10969 276646.080000
  10034  10035     1   0.10969 276646.080000
  10034  10036     1   0.10969 276646.080000
  10037  10038     1   0.10969 276646.080000
  10037  10039     1   0.10969 276646.080000
  10040  10041     1   0.10969 276646.080000
  10040  10042     1   0.10969 276646.080000
  10044  10045     1   0.10969 276646.080000
  10044  10046     1   0.10969 276646.080000
  10047  10048     1   0.10969 276646.080000
  10047  10049     1   0.10969 276646.080000
  10053  10054     1   0.10969 276646.080000
  10053  10055     1   0.10969 276646.080000
  10056  10057     1   0.10969 276646.080000
  10056  10058     1   0.10969 276646.080000
  10063  10064     1   0.10969 276646.080000
  10063  10065     1   0.10969 276646.080000
  10066  10067     1   0.10969 276646.080000
  10066  10068     1   0.10969 276646.080000
  10069  10070     1   0.10969 276646.080000
  10069  10071     1   0.10969 276646.080000
  10073  10074     1   0.10969 276646.080000
  10073  10075     1   0.10969 276646.080000
  10076  10077     1   0.10969 276646.080000
  10076  10078     1   0.10969 276646.080000
  10082  10083     1   0.10969 276646.080000
  10082  10084     1   0.10969 276646.080000
  10085  10086     1   0.10969 276646.080000
  10085  10087     1   0.10969 276646.080000
  10092  10093     1   0.10969 276646.080000
  10092  10094     1   0.10969 276646.080000
  10095  10096     1   0.10969 276646.080000
  10095  10097     1   0.10969 276646.080000
  10098  10099     1   0.10969 276646.080000
  10098  10100     1   0.10969 276646.080000
  10102  10103     1   0.10969 276646.080000
  10102  10104     1   0.10969 276646.080000
  10105  10106     1   0.10969 276646.080000
  10105  10107     1   0.10969 276646.080000
  10111  10112     1   0.10969 276646.080000
  10111  10113     1   0.10969 276646.080000
  10114  10115     1   0.10969 276646.080000
  10114  10116     1   0.10969 276646.080000
  10121  10122     1   0.10969 276646.080000
  10121  10123     1   0.10969 276646.080000
  10124  10125     1   0.10969 276646.080000
  10124  10126     1   0.10969 276646.080000
  10127  10128     1   0.10969 276646.080000
  10127  10129     1   0.10969 276646.080000
  10131  10132     1   0.10969 276646.080000
  10131  10133     1   0.10969 276646.080000
  10134  10135     1   0.10969 276646.080000
  10134  10136     1   0.10969 276646.080000
  10140  10141     1   0.10969 276646.080000
  10140  10142     1   0.10969 276646.080000
  10143  10144     1   0.10969 276646.080000
  10143  10145     1   0.10969 276646.080000
  10150  10151     1   0.10969 276646.080000
  10150  10152     1   0.10969 276646.080000
  10153  10154     1   0.10969 276646.080000
  10153  10155     1   0.10969 276646.080000
  10156  10157     1   0.10969 276646.080000
  10156  10158     1   0.10969 276646.080000
  10160  10161     1   0.10969 276646.080000
  10160  10162     1   0.10969 276646.080000
  10163  10164     1   0.10969 276646.080000
  10163  10165     1   0.10969 276646.080000
  10169  10170     1   0.10969 276646.080000
  10169  10171     1   0.10969 276646.080000
  10172  10173     1   0.10969 276646.080000
  10172  10174     1   0.10969 276646.080000
  10179  10180     1   0.10969 276646.080000
  10179  10181     1   0.10969 276646.080000
  10182  10183     1   0.10969 276646.080000
  10182  10184     1   0.10969 276646.080000
  10185  10186     1   0.10969 276646.080000
  10185  10187     1   0.10969 276646.080000
  10189  10190     1   0.10969 276646.080000
  10189  10191     1   0.10969 276646.080000
  10192  10193     1   0.10969 276646.080000
  10192  10194     1   0.10969 276646.080000
  10198  10199     1   0.10969 276646.080000
  10198  10200     1   0.10969 276646.080000
  10201  10202     1   0.10969 276646.080000
  10201  10203     1   0.10969 276646.080000
  10208  10209     1   0.10969 276646.080000
  10208  10210     1   0.10969 276646.080000
  10211  10212     1   0.10969 276646.080000
  10211  10213     1   0.10969 276646.080000
  10214  10215     1   0.10969 276646.080000
  10214  10216     1   0.10969 276646.080000
  10218  10219     1   0.10969 276646.080000
  10218  10220     1   0.10969 276646.080000
  10221  10222     1   0.10969 276646.080000
  10221  10223     1   0.10969 276646.080000
  10227  10228     1   0.10969 276646.080000
  10227  10229     1   0.10969 276646.080000
  10230  10231     1   0.10969 276646.080000
  10230  10232     1   0.10969 276646.080000
  10237  10238     1   0.10969 276646.080000
  10237  10239     1   0.10969 276646.080000
  10240  10241     1   0.10969 276646.080000
  10240  10242     1   0.10969 276646.080000
  10243  10244     1   0.10969 276646.080000
  10243  10245     1   0.10969 276646.080000
  10247  10248     1   0.10969 276646.080000
  10247  10249     1   0.10969 276646.080000
  10250  10251     1   0.10969 276646.080000
  10250  10252     1   0.10969 276646.080000
  10256  10257     1   0.10969 276646.080000
  10256  10258     1   0.10969 276646.080000
  10259  10260     1   0.10969 276646.080000
  10259  10261     1   0.10969 276646.080000
  10266  10267     1   0.10969 276646.080000
  10266  10268     1   0.10969 276646.080000
  10269  10270     1   0.10969 276646.080000
  10269  10271     1   0.10969 276646.080000
  10272  10273     1   0.10969 276646.080000
  10272  10274     1   0.10969 276646.080000
  10276  10277     1   0.10969 276646.080000
  10276  10278     1   0.10969 276646.080000
  10279  10280     1   0.10969 276646.080000
  10279  10281     1   0.10969 276646.080000
  10285  10286     1   0.10969 276646.080000
  10285  10287     1   0.10969 276646.080000
  10288  10289     1   0.10969 276646.080000
  10288  10290     1   0.10969 276646.080000
  10295  10296     1   0.10969 276646.080000
  10295  10297     1   0.10969 276646.080000
  10298  10299     1   0.10969 276646.080000
  10298  10300     1   0.10969 276646.080000
  10301  10302     1   0.10969 276646.080000
  10301  10303     1   0.10969 276646.080000
  10305  10306     1   0.10969 276646.080000
  10305  10307     1   0.10969 276646.080000
  10308  10309     1   0.10969 276646.080000
  10308  10310     1   0.10969 276646.080000
  10314  10315     1   0.10969 276646.080000
  10314  10316     1   0.10969 276646.080000
  10317  10318     1   0.10969 276646.080000
  10317  10319     1   0.10969 276646.080000
  10324  10325     1   0.10969 276646.080000
  10324  10326     1   0.10969 276646.080000
  10327  10328     1   0.10969 276646.080000
  10327  10329     1   0.10969 276646.080000
  10330  10331     1   0.10969 276646.080000
  10330  10332     1   0.10969 276646.080000
  10334  10335     1   0.10969 276646.080000
  10334  10336     1   0.10969 276646.080000
  10337  10338     1   0.10969 276646.080000
  10337  10339     1   0.10969 276646.080000
  10343  10344     1   0.10969 276646.080000
  10343  10345     1   0.10969 276646.080000
  10346  10347     1   0.10969 276646.080000
  10346  10348     1   0.10969 276646.080000
  10353  10354     1   0.10969 276646.080000
  10353  10355     1   0.10969 276646.080000
  10356  10357     1   0.10969 276646.080000
  10356  10358     1   0.10969 276646.080000
  10359  10360     1   0.10969 276646.080000
  10359  10361     1   0.10969 276646.080000
  10363  10364     1   0.10969 276646.080000
  10363  10365     1   0.10969 276646.080000
  10366  10367     1   0.10969 276646.080000
  10366  10368     1   0.10969 276646.080000
  10372  10373     1   0.10969 276646.080000
  10372  10374     1   0.10969 276646.080000
  10375  10376     1   0.10969 276646.080000
  10375  10377     1   0.10969 276646.080000
  10382  10383     1   0.10969 276646.080000
  10382  10384     1   0.10969 276646.080000
  10385  10386     1   0.10969 276646.080000
  10385  10387     1   0.10969 276646.080000
  10388  10389     1   0.10969 276646.080000
  10388  10390     1   0.10969 276646.080000
  10392  10393     1   0.10969 276646.080000
  10392  10394     1   0.10969 276646.080000
  10395  10396     1   0.10969 276646.080000
  10395  10397     1   0.10969 276646.080000
  10401  10402     1   0.10969 276646.080000
  10401  10403     1   0.10969 276646.080000
  10404  10405     1   0.10969 276646.080000
  10404  10406     1   0.10969 276646.080000
  10411  10412     1   0.10969 276646.080000
  10411  10413     1   0.10969 276646.080000
  10414  10415     1   0.10969 276646.080000
  10414  10416     1   0.10969 276646.080000
  10417  10418     1   0.10969 276646.080000
  10417  10419     1   0.10969 276646.080000
  10421  10422     1   0.10969 276646.080000
  10421  10423     1   0.10969 276646.080000
  10424  10425     1   0.10969 276646.080000
  10424  10426     1   0.10969 276646.080000
  10430  10431     1   0.10969 276646.080000
  10430  10432     1   0.10969 276646.080000
  10433  10434     1   0.10969 276646.080000
  10433  10435     1   0.10969 276646.080000
  10440  10441     1   0.10969 276646.080000
  10440  10442     1   0.10969 276646.080000
  10443  10444     1   0.10969 276646.080000
  10443  10445     1   0.10969 276646.080000
  10446  10447     1   0.10969 276646.080000
  10446  10448     1   0.10969 276646.080000
  10450  10451     1   0.10969 276646.080000
  10450  10452     1   0.10969 276646.080000
  10453  10454     1   0.10969 276646.080000
  10453  10455     1   0.10969 276646.080000
  10459  10460     1   0.10969 276646.080000
  10459  10461     1   0.10969 276646.080000
  10462  10463     1   0.10969 276646.080000
  10462  10464     1   0.10969 276646.080000
  10469  10470     1   0.10969 276646.080000
  10469  10471     1   0.10969 276646.080000
  10472  10473     1   0.10969 276646.080000
  10472  10474     1   0.10969 276646.080000
  10475  10476     1   0.10969 276646.080000
  10475  10477     1   0.10969 276646.080000
  10479  10480     1   0.10969 276646.080000
  10479  10481     1   0.10969 276646.080000
  10482  10483     1   0.10969 276646.080000
  10482  10484     1   0.10969 276646.080000
  10488  10489     1   0.10969 276646.080000
  10488  10490     1   0.10969 276646.080000
  10491  10492     1   0.10969 276646.080000
  10491  10493     1   0.10969 276646.080000
  10498  10499     1   0.10969 276646.080000
  10498  10500     1   0.10969 276646.080000
  10501  10502     1   0.10969 276646.080000
  10501  10503     1   0.10969 276646.080000
  10504  10505     1   0.10969 276646.080000
  10504  10506     1   0.10969 276646.080000
  10508  10509     1   0.10969 276646.080000
  10508  10510     1   0.10969 276646.080000
  10511  10512     1   0.10969 276646.080000
  10511  10513     1   0.10969 276646.080000
  10517  10518     1   0.10969 276646.080000
  10517  10519     1   0.10969 276646.080000
  10520  10521     1   0.10969 276646.080000
  10520  10522     1   0.10969 276646.080000
  10527  10528     1   0.10969 276646.080000
  10527  10529     1   0.10969 276646.080000
  10530  10531     1   0.10969 276646.080000
  10530  10532     1   0.10969 276646.080000
  10533  10534     1   0.10969 276646.080000
  10533  10535     1   0.10969 276646.080000
  10537  10538     1   0.10969 276646.080000
  10537  10539     1   0.10969 276646.080000
  10540  10541     1   0.10969 276646.080000
  10540  10542     1   0.10969 276646.080000
  10546  10547     1   0.10969 276646.080000
  10546  10548     1   0.10969 276646.080000
  10549  10550     1   0.10969 276646.080000
  10549  10551     1   0.10969 276646.080000
  10556  10557     1   0.10969 276646.080000
  10556  10558     1   0.10969 276646.080000
  10559  10560     1   0.10969 276646.080000
  10559  10561     1   0.10969 276646.080000
  10562  10563     1   0.10969 276646.080000
  10562  10564     1   0.10969 276646.080000
  10566  10567     1   0.10969 276646.080000
  10566  10568     1   0.10969 276646.080000
  10569  10570     1   0.10969 276646.080000
  10569  10571     1   0.10969 276646.080000
  10575  10576     1   0.10969 276646.080000
  10575  10577     1   0.10969 276646.080000
  10578  10579     1   0.10969 276646.080000
  10578  10580     1   0.10969 276646.080000
  10585  10586     1   0.10969 276646.080000
  10585  10587     1   0.10969 276646.080000
  10588  10589     1   0.10969 276646.080000
  10588  10590     1   0.10969 276646.080000
  10591  10592     1   0.10969 276646.080000
  10591  10593     1   0.10969 276646.080000
  10595  10596     1   0.10969 276646.080000
  10595  10597     1   0.10969 276646.080000
  10598  10599     1   0.10969 276646.080000
  10598  10600     1   0.10969 276646.080000
  10604  10605     1   0.10969 276646.080000
  10604  10606     1   0.10969 276646.080000
  10607  10608     1   0.10969 276646.080000
  10607  10609     1   0.10969 276646.080000
  10614  10615     1   0.10969 276646.080000
  10614  10616     1   0.10969 276646.080000
  10617  10618     1   0.10969 276646.080000
  10617  10619     1   0.10969 276646.080000
  10620  10621     1   0.10969 276646.080000
  10620  10622     1   0.10969 276646.080000
  10624  10625     1   0.10969 276646.080000
  10624  10626     1   0.10969 276646.080000
  10627  10628     1   0.10969 276646.080000
  10627  10629     1   0.10969 276646.080000
  10633  10634     1   0.10969 276646.080000
  10633  10635     1   0.10969 276646.080000
  10636  10637     1   0.10969 276646.080000
  10636  10638     1   0.10969 276646.080000
  10643  10644     1   0.10969 276646.080000
  10643  10645     1   0.10969 276646.080000
  10646  10647     1   0.10969 276646.080000
  10646  10648     1   0.10969 276646.080000
  10649  10650     1   0.10969 276646.080000
  10649  10651     1   0.10969 276646.080000
  10653  10654     1   0.10969 276646.080000
  10653  10655     1   0.10969 276646.080000
  10656  10657     1   0.10969 276646.080000
  10656  10658     1   0.10969 276646.080000
  10662  10663     1   0.10969 276646.080000
  10662  10664     1   0.10969 276646.080000
  10665  10666     1   0.10969 276646.080000
  10665  10667     1   0.10969 276646.080000
  10672  10673     1   0.10969 276646.080000
  10672  10674     1   0.10969 276646.080000
  10675  10676     1   0.10969 276646.080000
  10675  10677     1   0.10969 276646.080000
  10678  10679     1   0.10969 276646.080000
  10678  10680     1   0.10969 276646.080000
  10682  10683     1   0.10969 276646.080000
  10682  10684     1   0.10969 276646.080000
  10685  10686     1   0.10969 276646.080000
  10685  10687     1   0.10969 276646.080000
  10691  10692     1   0.10969 276646.080000
  10691  10693     1   0.10969 276646.080000
  10694  10695     1   0.10969 276646.080000
  10694  10696     1   0.10969 276646.080000
  10701  10702     1   0.10969 276646.080000
  10701  10703     1   0.10969 276646.080000
  10704  10705     1   0.10969 276646.080000
  10704  10706     1   0.10969 276646.080000
  10707  10708     1   0.10969 276646.080000
  10707  10709     1   0.10969 276646.080000
  10711  10712     1   0.10969 276646.080000
  10711  10713     1   0.10969 276646.080000
  10714  10715     1   0.10969 276646.080000
  10714  10716     1   0.10969 276646.080000
  10720  10721     1   0.10969 276646.080000
  10720  10722     1   0.10969 276646.080000
  10723  10724     1   0.10969 276646.080000
  10723  10725     1   0.10969 276646.080000
  10730  10731     1   0.10969 276646.080000
  10730  10732     1   0.10969 276646.080000
  10733  10734     1   0.10969 276646.080000
  10733  10735     1   0.10969 276646.080000
  10736  10737     1   0.10969 276646.080000
  10736  10738     1   0.10969 276646.080000
  10740  10741     1   0.10969 276646.080000
  10740  10742     1   0.10969 276646.080000
  10743  10744     1   0.10969 276646.080000
  10743  10745     1   0.10969 276646.080000
  10749  10750     1   0.10969 276646.080000
  10749  10751     1   0.10969 276646.080000
  10752  10753     1   0.10969 276646.080000
  10752  10754     1   0.10969 276646.080000
  10759  10760     1   0.10969 276646.080000
  10759  10761     1   0.10969 276646.080000
  10762  10763     1   0.10969 276646.080000
  10762  10764     1   0.10969 276646.080000
  10765  10766     1   0.10969 276646.080000
  10765  10767     1   0.10969 276646.080000
  10769  10770     1   0.10969 276646.080000
  10769  10771     1   0.10969 276646.080000
  10772  10773     1   0.10969 276646.080000
  10772  10774     1   0.10969 276646.080000
  10778  10779     1   0.10969 276646.080000
  10778  10780     1   0.10969 276646.080000
  10781  10782     1   0.10969 276646.080000
  10781  10783     1   0.10969 276646.080000
  10788  10789     1   0.10969 276646.080000
  10788  10790     1   0.10969 276646.080000
  10791  10792     1   0.10969 276646.080000
  10791  10793     1   0.10969 276646.080000
  10794  10795     1   0.10969 276646.080000
  10794  10796     1   0.10969 276646.080000
  10798  10799     1   0.10969 276646.080000
  10798  10800     1   0.10969 276646.080000
  10801  10802     1   0.10969 276646.080000
  10801  10803     1   0.10969 276646.080000
  10807  10808     1   0.10969 276646.080000
  10807  10809     1   0.10969 276646.080000
  10810  10811     1   0.10969 276646.080000
  10810  10812     1   0.10969 276646.080000
  10817  10818     1   0.10969 276646.080000
  10817  10819     1   0.10969 276646.080000
  10820  10821     1   0.10969 276646.080000
  10820  10822     1   0.10969 276646.080000
  10823  10824     1   0.10969 276646.080000
  10823  10825     1   0.10969 276646.080000
  10827  10828     1   0.10969 276646.080000
  10827  10829     1   0.10969 276646.080000
  10830  10831     1   0.10969 276646.080000
  10830  10832     1   0.10969 276646.080000
  10836  10837     1   0.10969 276646.080000
  10836  10838     1   0.10969 276646.080000
  10839  10840     1   0.10969 276646.080000
  10839  10841     1   0.10969 276646.080000
  10846  10847     1   0.10969 276646.080000
  10846  10848     1   0.10969 276646.080000
  10849  10850     1   0.10969 276646.080000
  10849  10851     1   0.10969 276646.080000
  10852  10853     1   0.10969 276646.080000
  10852  10854     1   0.10969 276646.080000
  10856  10857     1   0.10969 276646.080000
  10856  10858     1   0.10969 276646.080000
  10859  10860     1   0.10969 276646.080000
  10859  10861     1   0.10969 276646.080000
  10865  10866     1   0.10969 276646.080000
  10865  10867     1   0.10969 276646.080000
  10868  10869     1   0.10969 276646.080000
  10868  10870     1   0.10969 276646.080000
  10875  10876     1   0.10969 276646.080000
  10875  10877     1   0.10969 276646.080000
  10878  10879     1   0.10969 276646.080000
  10878  10880     1   0.10969 276646.080000
  10881  10882     1   0.10969 276646.080000
  10881  10883     1   0.10969 276646.080000
  10885  10886     1   0.10969 276646.080000
  10885  10887     1   0.10969 276646.080000
  10888  10889     1   0.10969 276646.080000
  10888  10890     1   0.10969 276646.080000
  10894  10895     1   0.10969 276646.080000
  10894  10896     1   0.10969 276646.080000
  10897  10898     1   0.10969 276646.080000
  10897  10899     1   0.10969 276646.080000
  10904  10905     1   0.10969 276646.080000
  10904  10906     1   0.10969 276646.080000
  10907  10908     1   0.10969 276646.080000
  10907  10909     1   0.10969 276646.080000
  10910  10911     1   0.10969 276646.080000
  10910  10912     1   0.10969 276646.080000
  10914  10915     1   0.10969 276646.080000
  10914  10916     1   0.10969 276646.080000
  10917  10918     1   0.10969 276646.080000
  10917  10919     1   0.10969 276646.080000
  10923  10924     1   0.10969 276646.080000
  10923  10925     1   0.10969 276646.080000
  10926  10927     1   0.10969 276646.080000
  10926  10928     1   0.10969 276646.080000
  10933  10934     1   0.10969 276646.080000
  10933  10935     1   0.10969 276646.080000
  10936  10937     1   0.10969 276646.080000
  10936  10938     1   0.10969 276646.080000
  10939  10940     1   0.10969 276646.080000
  10939  10941     1   0.10969 276646.080000
  10943  10944     1   0.10969 276646.080000
  10943  10945     1   0.10969 276646.080000
  10946  10947     1   0.10969 276646.080000
  10946  10948     1   0.10969 276646.080000
  10952  10953     1   0.10969 276646.080000
  10952  10954     1   0.10969 276646.080000
  10955  10956     1   0.10969 276646.080000
  10955  10957     1   0.10969 276646.080000
  10962  10963     1   0.10969 276646.080000
  10962  10964     1   0.10969 276646.080000
  10965  10966     1   0.10969 276646.080000
  10965  10967     1   0.10969 276646.080000
  10968  10969     1   0.10969 276646.080000
  10968  10970     1   0.10969 276646.080000
  10972  10973     1   0.10969 276646.080000
  10972  10974     1   0.10969 276646.080000
  10975  10976     1   0.10969 276646.080000
  10975  10977     1   0.10969 276646.080000
  10981  10982     1   0.10969 276646.080000
  10981  10983     1   0.10969 276646.080000
  10984  10985     1   0.10969 276646.080000
  10984  10986     1   0.10969 276646.080000
  10991  10992     1   0.10969 276646.080000
  10991  10993     1   0.10969 276646.080000
  10994  10995     1   0.10969 276646.080000
  10994  10996     1   0.10969 276646.080000
  10997  10998     1   0.10969 276646.080000
  10997  10999     1   0.10969 276646.080000
  11001  11002     1   0.10969 276646.080000
  11001  11003     1   0.10969 276646.080000
  11004  11005     1   0.10969 276646.080000
  11004  11006     1   0.10969 276646.080000
  11010  11011     1   0.10969 276646.080000
  11010  11012     1   0.10969 276646.080000
  11013  11014     1   0.10969 276646.080000
  11013  11015     1   0.10969 276646.080000
  11020  11021     1   0.10969 276646.080000
  11020  11022     1   0.10969 276646.080000
  11023  11024     1   0.10969 276646.080000
  11023  11025     1   0.10969 276646.080000
  11026  11027     1   0.10969 276646.080000
  11026  11028     1   0.10969 276646.080000
  11030  11031     1   0.10969 276646.080000
  11030  11032     1   0.10969 276646.080000
  11033  11034     1   0.10969 276646.080000
  11033  11035     1   0.10969 276646.080000
  11039  11040     1   0.10969 276646.080000
  11039  11041     1   0.10969 276646.080000
  11042  11043     1   0.10969 276646.080000
  11042  11044     1   0.10969 276646.080000
  11049  11050     1   0.10969 276646.080000
  11049  11051     1   0.10969 276646.080000
  11052  11053     1   0.10969 276646.080000
  11052  11054     1   0.10969 276646.080000
  11055  11056     1   0.10969 276646.080000
  11055  11057     1   0.10969 276646.080000
  11059  11060     1   0.10969 276646.080000
  11059  11061     1   0.10969 276646.080000
  11062  11063     1   0.10969 276646.080000
  11062  11064     1   0.10969 276646.080000
  11068  11069     1   0.10969 276646.080000
  11068  11070     1   0.10969 276646.080000
  11071  11072     1   0.10969 276646.080000
  11071  11073     1   0.10969 276646.080000

[ pairs ]
;    ai     aj funct         c0         c1         c2         c3
      1     26     1
      1     20     1
      1     23     1
      2     17     1
      2     11     1
      2    115     1
      5     14     1
      5     11     1
      5     57     1
      8     14     1
      8     17     1
      8     86     1
     11     77     1
     14    106     1
     17     48     1
     20     39     1
     23     68     1
     26     97     1
     29     54     1
     29     51     1
     29     48     1
     30     45     1
     30     39     1
     30    173     1
     33     42     1
     33     39     1
     33    144     1
     36     42     1
     36     45     1
     36     57     1
     42    164     1
     45    135     1
     51    126     1
     54    155     1
     58     83     1
     58     80     1
     58     77     1
     59     74     1
     59     68     1
     59    231     1
     62     71     1
     62     68     1
     62    202     1
     65     71     1
     65     74     1
     65     86     1
     71    222     1
     74    193     1
     80    184     1
     83    213     1
     87    112     1
     87    109     1
     87    106     1
     88    103     1
     88     97     1
     88    289     1
     91    100     1
     91     97     1
     91    260     1
     94    100     1
     94    103     1
     94    115     1
    100    280     1
    103    251     1
    109    242     1
    112    271     1
    116    141     1
    116    138     1
    116    135     1
    117    132     1
    117    126     1
    117    347     1
    120    129     1
    120    126     1
    120    318     1
    123    129     1
    123    132     1
    123    144     1
    129    338     1
    132    309     1
    138    300     1
    141    329     1
    145    170     1
    145    167     1
    145    164     1
    146    161     1
    146    155     1
    146    405     1
    149    158     1
    149    155     1
    149    376     1
    152    158     1
    152    161     1
    152    173     1
    158    396     1
    161    367     1
    167    358     1
    170    387     1
    174    199     1
    174    196     1
    174    193     1
    175    190     1
    175    184     1
    175    463     1
    178    187     1
    178    184     1
    178    434     1
    181    187     1
    181    190     1
    181    202     1
    187    454     1
    190    425     1
    196    416     1
    199    445     1
    203    228     1
    203    225     1
    203    222     1
    204    219     1
    204    213     1
    204    521     1
    207    216     1
    207    213     1
    207    492     1
    210    216     1
    210    219     1
    210    231     1
    216    512     1
    219    483     1
    225    474     1
    228    503     1
    232    257     1
    232    254     1
    232    251     1
    233    248     1
    233    242     1
    233    579     1
    236    245     1
    236    242     1
    236    550     1
    239    245     1
    239    248     1
    239    260     1
    245    570     1
    248    541     1
    254    532     1
    257    561     1
    261    286     1
    261    283     1
    261    280     1
    262    277     1
    262    271     1
    262    637     1
    265    274     1
    265    271     1
    265    608     1
    268    274     1
    268    277     1
    268    289     1
    274    628     1
    277    599     1
    283    590     1
    286    619     1
    290    315     1
    290    312     1
    290    309     1
    291    306     1
    291    300     1
    291    695     1
    294    303     1
    294    300     1
    294    666     1
    297    303     1
    297    306     1
    297    318     1
    303    686     1
    306    657     1
    312    648     1
    315    677     1
    319    344     1
    319    341     1
    319    338     1
    320    335     1
    320    329     1
    320    753     1
    323    332     1
    323    329     1
    323    724     1
    326    332     1
    326    335     1
    326    347     1
    332    744     1
    335    715     1
    341    706     1
    344    735     1
    348    373     1
    348    370     1
    348    367     1
    349    364     1
    349    358     1
    349    811     1
    352    361     1
    352    358     1
    352    782     1
    355    361     1
    355    364     1
    355    376     1
    361    802     1
    364    773     1
    370    764     1
    373    793     1
    377    402     1
    377    399     1
    377    396     1
    378    393     1
    378    387     1
    378    869     1
    381    390     1
    381    387     1
    381    840     1
    384    390     1
    384    393     1
    384    405     1
    390    860     1
    393    831     1
    399    822     1
    402    851     1
    406    431     1
    406    428     1
    406    425     1
    407    422     1
    407    416     1
    407    927     1
    410    419     1
    410    416     1
    410    898     1
    413    419     1
    413    422     1
    413    434     1
    419    918     1
    422    889     1
    428    880     1
    431    909     1
    435    460     1
    435    457     1
    435    454     1
    436    451     1
    436    445     1
    436    985     1
    439    448     1
    439    445     1
    439    956     1
    442    448     1
    442    451     1
    442    463     1
    448    976     1
    451    947     1
    457    938     1
    460    967     1
    464    489     1
    464    486     1
    464    483     1
    465    480     1
    465    474     1
    465   1043     1
    468    477     1
    468    474     1
    468   1014     1
    471    477     1
    471    480     1
    471    492     1
    477   1034     1
    480   1005     1
    486    996     1
    489   1025     1
    493    518     1
    493    515     1
    493    512     1
    494    509     1
    494    503     1
    494   1101     1
    497    506     1
    497    503     1
    497   1072     1
    500    506     1
    500    509     1
    500    521     1
    506   1092     1
    509   1063     1
    515   1054     1
    518   1083     1
    522    547     1
    522    544     1
    522    541     1
    523    538     1
    523    532     1
    523   1159     1
    526    535     1
    526    532     1
    526   1130     1
    529    535     1
    529    538     1
    529    550     1
    535   1150     1
    538   1121     1
    544   1112     1
    547   1141     1
    551    576     1
    551    573     1
    551    570     1
    552    567     1
    552    561     1
    552   1217     1
    555    564     1
    555    561     1
    555   1188     1
    558    564     1
    558    567     1
    558    579     1
    564   1208     1
    567   1179     1
    573   1170     1
    576   1199     1
    580    605     1
    580    602     1
    580    599     1
    581    596     1
    581    590     1
    581   1275     1
    584    593     1
    584    590     1
    584   1246     1
    587    593     1
    587    596     1
    587    608     1
    593   1266     1
    596   1237     1
    602   1228     1
    605   1257     1
    609    634     1
    609    631     1
    609    628     1
    610    625     1
    610    619     1
    610   1333     1
    613    622     1
    613    619     1
    613   1304     1
    616    622     1
    616    625     1
    616    637     1
    622   1324     1
    625   1295     1
    631   1286     1
    634   1315     1
    638    663     1
    638    660     1
    638    657     1
    639    654     1
    639    648     1
    639   1391     1
    642    651     1
    642    648     1
    642   1362     1
    645    651     1
    645    654     1
    645    666     1
    651   1382     1
    654   1353     1
    660   1344     1
    663   1373     1
    667    692     1
    667    689     1
    667    686     1
    668    683     1
    668    677     1
    668   1449     1
    671    680     1
    671    677     1
    671   1420     1
    674    680     1
    674    683     1
    674    695     1
    680   1440     1
    683   1411     1
    689   1402     1
    692   1431     1
    696    721     1
    696    718     1
    696    715     1
    697    712     1
    697    706     1
    697   1507     1
    700    709     1
    700    706     1
    700   1478     1
    703    709     1
    703    712     1
    703    724     1
    709   1498     1
    712   1469     1
    718   1460     1
    721   1489     1
    725    750     1
    725    747     1
    725    744     1
    726    741     1
    726    735     1
    726   1565     1
    729    738     1
    729    735     1
    729   1536     1
    732    738     1
    732    741     1
    732    753     1
    738   1556     1
    741   1527     1
    747   1518     1
    750   1547     1
    754    779     1
    754    776     1
    754    773     1
    755    770     1
    755    764     1
    755   1623     1
    758    767     1
    758    764     1
    758   1594     1
    761    767     1
    761    770     1
    761    782     1
    767   1614     1
    770   1585     1
    776   1576     1
    779   1605     1
    783    808     1
    783    805     1
    783    802     1
    784    799     1
    784    793     1
    784   1681     1
    787    796     1
    787    793     1
    787   1652     1
    790    796     1
    790    799     1
    790    811     1
    796   1672     1
    799   1643     1
    805   1634     1
    808   1663     1
    812    837     1
    812    834     1
    812    831     1
    813    828     1
    813    822     1
    813   1739     1
    816    825     1
    816    822     1
    816   1710     1
    819    825     1
    819    828     1
    819    840     1
    825   1730     1
    828   1701     1
    834   1692     1
    837   1721     1
    841    866     1
    841    863     1
    841    860     1
    842    857     1
    842    851     1
    842   1797     1
    845    854     1
    845    851     1
    845   1768     1
    848    854     1
    848    857     1
    848    869     1
    854   1788     1
    857   1759     1
    863   1750     1
    866   1779     1
    870    895     1
    870    892     1
    870    889     1
    871    886     1
    871    880     1
    871   1855     1
    874    883     1
    874    880     1
    874   1826     1
    877    883     1
    877    886     1
    877    898     1
    883   1846     1
    886   1817     1
    892   1808     1
    895   1837     1
    899    924     1
    899    921     1
    899    918     1
    900    915     1
    900    909     1
    900   1913     1
    903    912     1
    903    909     1
    903   1884     1
    906    912     1
    906    915     1
    906    927     1
    912   1904     1
    915   1875     1
    921   1866     1
    924   1895     1
    928    953     1
    928    950     1
    928    947     1
    929    944     1
    929    938     1
    929   1971     1
    932    941     1
    932    938     1
    932   1942     1
    935    941     1
    935    944     1
    935    956     1
    941   1962     1
    944   1933     1
    950   1924     1
    953   1953     1
    957    982     1
    957    979     1
    957    976     1
    958    973     1
    958    967     1
    958   2029     1
    961    970     1
    961    967     1
    961   2000     1
    964    970     1
    964    973     1
    964    985     1
    970   2020     1
    973   1991     1
    979   1982     1
    982   2011     1
    986   1011     1
    986   1008     1
    986   1005     1
    987   1002     1
    987    996     1
    987   2087     1
    990    999     1
    990    996     1
    990   2058     1
    993    999     1
    993   1002     1
    993   1014     1
    999   2078     1
   1002   2049     1
   1008   2040     1
   1011   2069     1
   1015   1040     1
   1015   1037     1
   1015   1034     1
   1016   1031     1
   1016   1025     1
   1016   2145     1
   1019   1028     1
   1019   1025     1
   1019   2116     1
   1022   1028     1
   1022   1031     1
   1022   1043     1
   1028   2136     1
   1031   2107     1
   1037   2098     1
   1040   2127     1
   1044   1069     1
   1044   1066     1
   1044   1063     1
   1045   1060     1
   1045   1054     1
   1045   2203     1
   1048   1057     1
   1048   1054     1
   1048   2174     1
   1051   1057     1
   1051   1060     1
   1051   1072     1
   1057   2194     1
   1060   2165     1
   1066   2156     1
   1069   2185     1
   1073   1098     1
   1073   1095     1
   1073   1092     1
   1074   1089     1
   1074   1083     1
   1074   2261     1
   1077   1086     1
   1077   1083     1
   1077   2232     1
   1080   1086     1
   1080   1089     1
   1080   1101     1
   1086   2252     1
   1089   2223     1
   1095   2214     1
   1098   2243     1
   1102   1127     1
   1102   1124     1
   1102   1121     1
   1103   1118     1
   1103   1112     1
   1103   2319     1
   1106   1115     1
   1106   1112     1
   1106   2290     1
   1109   1115     1
   1109   1118     1
   1109   1130     1
   1115   2310     1
   1118   2281     1
   1124   2272     1
   1127   2301     1
   1131   1156     1
   1131   1153     1
   1131   1150     1
   1132   1147     1
   1132   1141     1
   1132   2377     1
   1135   1144     1
   1135   1141     1
   1135   2348     1
   1138   1144     1
   1138   1147     1
   1138   1159     1
   1144   2368     1
   1147   2339     1
   1153   2330     1
   1156   2359     1
   1160   1185     1
   1160   1182     1
   1160   1179     1
   1161   1176     1
   1161   1170     1
   1161   2435     1
   1164   1173     1
   1164   1170     1
   1164   2406     1
   1167   1173     1
   1167   1176     1
   1167   1188     1
   1173   2426     1
   1176   2397     1
   1182   2388     1
   1185   2417     1
   1189   1214     1
   1189   1211     1
   1189   1208     1
   1190   1205     1
   1190   1199     1
   1190   2493     1
   1193   1202     1
   1193   1199     1
   1193   2464     1
   1196   1202     1
   1196   1205     1
   1196   1217     1
   1202   2484     1
   1205   2455     1
   1211   2446     1
   1214   2475     1
   1218   1243     1
   1218   1240     1
   1218   1237     1
   1219   1234     1
   1219   1228     1
   1219   2551     1
   1222   1231     1
   1222   1228     1
   1222   2522     1
   1225   1231     1
   1225   1234     1
   1225   1246     1
   1231   2542     1
   1234   2513     1
   1240   2504     1
   1243   2533     1
   1247   1272     1
   1247   1269     1
   1247   1266     1
   1248   1263     1
   1248   1257     1
   1248   2609     1
   1251   1260     1
   1251   1257     1
   1251   2580     1
   1254   1260     1
   1254   1263     1
   1254   1275     1
   1260   2600     1
   1263   2571     1
   1269   2562     1
   1272   2591     1
   1276   1301     1
   1276   1298     1
   1276   1295     1
   1277   1292     1
   1277   1286     1
   1277   2667     1
   1280   1289     1
   1280   1286     1
   1280   2638     1
   1283   1289     1
   1283   1292     1
   1283   1304     1
   1289   2658     1
   1292   2629     1
   1298   2620     1
   1301   2649     1
   1305   1330     1
   1305   1327     1
   1305   1324     1
   1306   1321     1
   1306   1315     1
   1306   2725     1
   1309   1318     1
   1309   1315     1
   1309   2696     1
   1312   1318     1
   1312   1321     1
   1312   1333     1
   1318   2716     1
   1321   2687     1
   1327   2678     1
   1330   2707     1
   1334   1359     1
   1334   1356     1
   1334   1353     1
   1335   1350     1
   1335   1344     1
   1335   2783     1
   1338   1347     1
   1338   1344     1
   1338   2754     1
   1341   1347     1
   1341   1350     1
   1341   1362     1
   1347   2774     1
   1350   2745     1
   1356   2736     1
   1359   2765     1
   1363   1388     1
   1363   1385     1
   1363   1382     1
   1364   1379     1
   1364   1373     1
   1364   2841     1
   1367   1376     1
   1367   1373     1
   1367   2812     1
   1370   1376     1
   1370   1379     1
   1370   1391     1
   1376   2832     1
   1379   2803     1
   1385   2794     1
   1388   2823     1
   1392   1417     1
   1392   1414     1
   1392   1411     1
   1393   1408     1
   1393   1402     1
   1393   2899     1
   1396   1405     1
   1396   1402     1
   1396   2870     1
   1399   1405     1
   1399   1408     1
   1399   1420     1
   1405   2890     1
   1408   2861     1
   1414   2852     1
   1417   2881     1
   1421   1446     1
   1421   1443     1
   1421   1440     1
   1422   1437     1
   1422   1431     1
   1422   2957     1
   1425   1434     1
   1425   1431     1
   1425   2928     1
   1428   1434     1
   1428   1437     1
   1428   1449     1
   1434   2948     1
   1437   2919     1
   1443   2910     1
   1446   2939     1
   1450   1475     1
   1450   1472     1
   1450   1469     1
   1451   1466     1
   1451   1460     1
   1451   3015     1
   1454   1463     1
   1454   1460     1
   1454   2986     1
   1457   1463     1
   1457   1466     1
   1457   1478     1
   1463   3006     1
   1466   2977     1
   1472   2968     1
   1475   2997     1
   1479   1504     1
   1479   1501     1
   1479   1498     1
   1480   1495     1
   1480   1489     1
   1480   3073     1
   1483   1492     1
   1483   1489     1
   1483   3044     1
   1486   1492     1
   1486   1495     1
   1486   1507     1
   1492   3064     1
   1495   3035     1
   1501   3026     1
   1504   3055     1
   1508   1533     1
   1508   1530     1
   1508   1527     1
   1509   1524     1
   1509   1518     1
   1509   3131     1
   1512   1521     1
   1512   1518     1
   1512   3102     1
   1515   1521     1
   1515   1524     1
   1515   1536     1
   1521   3122     1
   1524   3093     1
   1530   3084     1
   1533   3113     1
   1537   1562     1
   1537   1559     1
   1537   1556     1
   1538   1553     1
   1538   1547     1
   1538   3189     1
   1541   1550     1
   1541   1547     1
   1541   3160     1
   1544   1550     1
   1544   1553     1
   1544   1565     1
   1550   3180     1
   1553   3151     1
   1559   3142     1
   1562   3171     1
   1566   1591     1
   1566   1588     1
   1566   1585     1
   1567   1582     1
   1567   1576     1
   1567   3247     1
   1570   1579     1
   1570   1576     1
   1570   3218     1
   1573   1579     1
   1573   1582     1
   1573   1594     1
   1579   3238     1
   1582   3209     1
   1588   3200     1
   1591   3229     1
   1595   1620     1
   1595   1617     1
   1595   1614     1
   1596   1611     1
   1596   1605     1
   1596   3305     1
   1599   1608     1
   1599   1605     1
   1599   3276     1
   1602   1608     1
   1602   1611     1
   1602   1623     1
   1608   3296     1
   1611   3267     1
   1617   3258     1
   1620   3287     1
   1624   1649     1
   1624   1646     1
   1624   1643     1
   1625   1640     1
   1625   1634     1
   1625   3363     1
   1628   1637     1
   1628   1634     1
   1628   3334     1
   1631   1637     1
   1631   1640     1
   1631   1652     1
   1637   3354     1
   1640   3325     1
   1646   3316     1
   1649   3345     1
   1653   1678     1
   1653   1675     1
   1653   1672     1
   1654   1669     1
   1654   1663     1
   1654   3421     1
   1657   1666     1
   1657   1663     1
   1657   3392     1
   1660   1666     1
   1660   1669     1
   1660   1681     1
   1666   3412     1
   1669   3383     1
   1675   3374     1
   1678   3403     1
   1682   1707     1
   1682   1704     1
   1682   1701     1
   1683   1698     1
   1683   1692     1
   1683   3479     1
   1686   1695     1
   1686   1692     1
   1686   3450     1
   1689   1695     1
   1689   1698     1
   1689   1710     1
   1695   3470     1
   1698   3441     1
   1704   3432     1
   1707   3461     1
   1711   1736     1
   1711   1733     1
   1711   1730     1
   1712   1727     1
   1712   1721     1
   1712   3537     1
   1715   1724     1
   1715   1721     1
   1715   3508     1
   1718   1724     1
   1718   1727     1
   1718   1739     1
   1724   3528     1
   1727   3499     1
   1733   3490     1
   1736   3519     1
   1740   1765     1
   1740   1762     1
   1740   1759     1
   1741   1756     1
   1741   1750     1
   1741   3595     1
   1744   1753     1
   1744   1750     1
   1744   3566     1
   1747   1753     1
   1747   1756     1
   1747   1768     1
   1753   3586     1
   1756   3557     1
   1762   3548     1
   1765   3577     1
   1769   1794     1
   1769   1791     1
   1769   1788     1
   1770   1785     1
   1770   1779     1
   1770   3653     1
   1773   1782     1
   1773   1779     1
   1773   3624     1
   1776   1782     1
   1776   1785     1
   1776   1797     1
   1782   3644     1
   1785   3615     1
   1791   3606     1
   1794   3635     1
   1798   1823     1
   1798   1820     1
   1798   1817     1
   1799   1814     1
   1799   1808     1
   1799   3711     1
   1802   1811     1
   1802   1808     1
   1802   3682     1
   1805   1811     1
   1805   1814     1
   1805   1826     1
   1811   3702     1
   1814   3673     1
   1820   3664     1
   1823   3693     1
   1827   1852     1
   1827   1849     1
   1827   1846     1
   1828   1843     1
   1828   1837     1
   1828   3769     1
   1831   1840     1
   1831   1837     1
   1831   3740     1
   1834   1840     1
   1834   1843     1
   1834   1855     1
   1840   3760     1
   1843   3731     1
   1849   3722     1
   1852   3751     1
   1856   1881     1
   1856   1878     1
   1856   1875     1
   1857   1872     1
   1857   1866     1
   1857   3827     1
   1860   1869     1
   1860   1866     1
   1860   3798     1
   1863   1869     1
   1863   1872     1
   1863   1884     1
   1869   3818     1
   1872   3789     1
   1878   3780     1
   1881   3809     1
   1885   1910     1
   1885   1907     1
   1885   1904     1
   1886   1901     1
   1886   1895     1
   1886   3885     1
   1889   1898     1
   1889   1895     1
   1889   3856     1
   1892   1898     1
   1892   1901     1
   1892   1913     1
   1898   3876     1
   1901   3847     1
   1907   3838     1
   1910   3867     1
   1914   1939     1
   1914   1936     1
   1914   1933     1
   1915   1930     1
   1915   1924     1
   1915   3943     1
   1918   1927     1
   1918   1924     1
   1918   3914     1
   1921   1927     1
   1921   1930     1
   1921   1942     1
   1927   3934     1
   1930   3905     1
   1936   3896     1
   1939   3925     1
   1943   1968     1
   1943   1965     1
   1943   1962     1
   1944   1959     1
   1944   1953     1
   1944   4001     1
   1947   1956     1
   1947   1953     1
   1947   3972     1
   1950   1956     1
   1950   1959     1
   1950   1971     1
   1956   3992     1
   1959   3963     1
   1965   3954     1
   1968   3983     1
   1972   1997     1
   1972   1994     1
   1972   1991     1
   1973   1988     1
   1973   1982     1
   1973   4059     1
   1976   1985     1
   1976   1982     1
   1976   4030     1
   1979   1985     1
   1979   1988     1
   1979   2000     1
   1985   4050     1
   1988   4021     1
   1994   4012     1
   1997   4041     1
   2001   2026     1
   2001   2023     1
   2001   2020     1
   2002   2017     1
   2002   2011     1
   2002   4117     1
   2005   2014     1
   2005   2011     1
   2005   4088     1
   2008   2014     1
   2008   2017     1
   2008   2029     1
   2014   4108     1
   2017   4079     1
   2023   4070     1
   2026   4099     1
   2030   2055     1
   2030   2052     1
   2030   2049     1
   2031   2046     1
   2031   2040     1
   2031   4175     1
   2034   2043     1
   2034   2040     1
   2034   4146     1
   2037   2043     1
   2037   2046     1
   2037   2058     1
   2043   4166     1
   2046   4137     1
   2052   4128     1
   2055   4157     1
   2059   2084     1
   2059   2081     1
   2059   2078     1
   2060   2075     1
   2060   2069     1
   2060   4233     1
   2063   2072     1
   2063   2069     1
   2063   4204     1
   2066   2072     1
   2066   2075     1
   2066   2087     1
   2072   4224     1
   2075   4195     1
   2081   4186     1
   2084   4215     1
   2088   2113     1
   2088   2110     1
   2088   2107     1
   2089   2104     1
   2089   2098     1
   2089   4291     1
   2092   2101     1
   2092   2098     1
   2092   4262     1
   2095   2101     1
   2095   2104     1
   2095   2116     1
   2101   4282     1
   2104   4253     1
   2110   4244     1
   2113   4273     1
   2117   2142     1
   2117   2139     1
   2117   2136     1
   2118   2133     1
   2118   2127     1
   2118   4349     1
   2121   2130     1
   2121   2127     1
   2121   4320     1
   2124   2130     1
   2124   2133     1
   2124   2145     1
   2130   4340     1
   2133   4311     1
   2139   4302     1
   2142   4331     1
   2146   2171     1
   2146   2168     1
   2146   2165     1
   2147   2162     1
   2147   2156     1
   2147   4407     1
   2150   2159     1
   2150   2156     1
   2150   4378     1
   2153   2159     1
   2153   2162     1
   2153   2174     1
   2159   4398     1
   2162   4369     1
   2168   4360     1
   2171   4389     1
   2175   2200     1
   2175   2197     1
   2175   2194     1
   2176   2191     1
   2176   2185     1
   2176   4465     1
   2179   2188     1
   2179   2185     1
   2179   4436     1
   2182   2188     1
   2182   2191     1
   2182   2203     1
   2188   4456     1
   2191   4427     1
   2197   4418     1
   2200   4447     1
   2204   2229     1
   2204   2226     1
   2204   2223     1
   2205   2220     1
   2205   2214     1
   2205   4523     1
   2208   2217     1
   2208   2214     1
   2208   4494     1
   2211   2217     1
   2211   2220     1
   2211   2232     1
   2217   4514     1
   2220   4485     1
   2226   4476     1
   2229   4505     1
   2233   2258     1
   2233   2255     1
   2233   2252     1
   2234   2249     1
   2234   2243     1
   2234   4581     1
   2237   2246     1
   2237   2243     1
   2237   4552     1
   2240   2246     1
   2240   2249     1
   2240   2261     1
   2246   4572     1
   2249   4543     1
   2255   4534     1
   2258   4563     1
   2262   2287     1
   2262   2284     1
   2262   2281     1
   2263   2278     1
   2263   2272     1
   2263   4639     1
   2266   2275     1
   2266   2272     1
   2266   4610     1
   2269   2275     1
   2269   2278     1
   2269   2290     1
   2275   4630     1
   2278   4601     1
   2284   4592     1
   2287   4621     1
   2291   2316     1
   2291   2313     1
   2291   2310     1
   2292   2307     1
   2292   2301     1
   2292   4697     1
   2295   2304     1
   2295   2301     1
   2295   4668     1
   2298   2304     1
   2298   2307     1
   2298   2319     1
   2304   4688     1
   2307   4659     1
   2313   4650     1
   2316   4679     1
   2320   2345     1
   2320   2342     1
   2320   2339     1
   2321   2336     1
   2321   2330     1
   2321   4755     1
   2324   2333     1
   2324   2330     1
   2324   4726     1
   2327   2333     1
   2327   2336     1
   2327   2348     1
   2333   4746     1
   2336   4717     1
   2342   4708     1
   2345   4737     1
   2349   2374     1
   2349   2371     1
   2349   2368     1
   2350   2365     1
   2350   2359     1
   2350   4813     1
   2353   2362     1
   2353   2359     1
   2353   4784     1
   2356   2362     1
   2356   2365     1
   2356   2377     1
   2362   4804     1
   2365   4775     1
   2371   4766     1
   2374   4795     1
   2378   2403     1
   2378   2400     1
   2378   2397     1
   2379   2394     1
   2379   2388     1
   2379   4871     1
   2382   2391     1
   2382   2388     1
   2382   4842     1
   2385   2391     1
   2385   2394     1
   2385   2406     1
   2391   4862     1
   2394   4833     1
   2400   4824     1
   2403   4853     1
   2407   2432     1
   2407   2429     1
   2407   2426     1
   2408   2423     1
   2408   2417     1
   2408   4929     1
   2411   2420     1
   2411   2417     1
   2411   4900     1
   2414   2420     1
   2414   2423     1
   2414   2435     1
   2420   4920     1
   2423   4891     1
   2429   4882     1
   2432   4911     1
   2436   2461     1
   2436   2458     1
   2436   2455     1
   2437   2452     1
   2437   2446     1
   2437   4987     1
   2440   2449     1
   2440   2446     1
   2440   4958     1
   2443   2449     1
   2443   2452     1
   2443   2464     1
   2449   4978     1
   2452   4949     1
   2458   4940     1
   2461   4969     1
   2465   2490     1
   2465   2487     1
   2465   2484     1
   2466   2481     1
   2466   2475     1
   2466   5045     1
   2469   2478     1
   2469   2475     1
   2469   5016     1
   2472   2478     1
   2472   2481     1
   2472   2493     1
   2478   5036     1
   2481   5007     1
   2487   4998     1
   2490   5027     1
   2494   2519     1
   2494   2516     1
   2494   2513     1
   2495   2510     1
   2495   2504     1
   2495   5103     1
   2498   2507     1
   2498   2504     1
   2498   5074     1
   2501   2507     1
   2501   2510     1
   2501   2522     1
   2507   5094     1
   2510   5065     1
   2516   5056     1
   2519   5085     1
   2523   2548     1
   2523   2545     1
   2523   2542     1
   2524   2539     1
   2524   2533     1
   2524   5161     1
   2527   2536     1
   2527   2533     1
   2527   5132     1
   2530   2536     1
   2530   2539     1
   2530   2551     1
   2536   5152     1
   2539   5123     1
   2545   5114     1
   2548   5143     1
   2552   2577     1
   2552   2574     1
   2552   2571     1
   2553   2568     1
   2553   2562     1
   2553   5219     1
   2556   2565     1
   2556   2562     1
   2556   5190     1
   2559   2565     1
   2559   2568     1
   2559   2580     1
   2565   5210     1
   2568   5181     1
   2574   5172     1
   2577   5201     1
   2581   2606     1
   2581   2603     1
   2581   2600     1
   2582   2597     1
   2582   2591     1
   2582   5277     1
   2585   2594     1
   2585   2591     1
   2585   5248     1
   2588   2594     1
   2588   2597     1
   2588   2609     1
   2594   5268     1
   2597   5239     1
   2603   5230     1
   2606   5259     1
   2610   2635     1
   2610   2632     1
   2610   2629     1
   2611   2626     1
   2611   2620     1
   2611   5335     1
   2614   2623     1
   2614   2620     1
   2614   5306     1
   2617   2623     1
   2617   2626     1
   2617   2638     1
   2623   5326     1
   2626   5297     1
   2632   5288     1
   2635   5317     1
   2639   2664     1
   2639   2661     1
   2639   2658     1
   2640   2655     1
   2640   2649     1
   2640   5393     1
   2643   2652     1
   2643   2649     1
   2643   5364     1
   2646   2652     1
   2646   2655     1
   2646   2667     1
   2652   5384     1
   2655   5355     1
   2661   5346     1
   2664   5375     1
   2668   2693     1
   2668   2690     1
   2668   2687     1
   2669   2684     1
   2669   2678     1
   2669   5451     1
   2672   2681     1
   2672   2678     1
   2672   5422     1
   2675   2681     1
   2675   2684     1
   2675   2696     1
   2681   5442     1
   2684   5413     1
   2690   5404     1
   2693   5433     1
   2697   2722     1
   2697   2719     1
   2697   2716     1
   2698   2713     1
   2698   2707     1
   2698   5509     1
   2701   2710     1
   2701   2707     1
   2701   5480     1
   2704   2710     1
   2704   2713     1
   2704   2725     1
   2710   5500     1
   2713   5471     1
   2719   5462     1
   2722   5491     1
   2726   2751     1
   2726   2748     1
   2726   2745     1
   2727   2742     1
   2727   2736     1
   2727   5567     1
   2730   2739     1
   2730   2736     1
   2730   5538     1
   2733   2739     1
   2733   2742     1
   2733   2754     1
   2739   5539     1
   2742   5510     1
   2748   5513     1
   2751   5542     1
   2755   2780     1
   2755   2777     1
   2755   2774     1
   2756   2771     1
   2756   2765     1
   2756   5625     1
   2759   2768     1
   2759   2765     1
   2759   5596     1
   2762   2768     1
   2762   2771     1
   2762   2783     1
   2768   5597     1
   2771   5568     1
   2777   5571     1
   2780   5600     1
   2784   2809     1
   2784   2806     1
   2784   2803     1
   2785   2800     1
   2785   2794     1
   2785   5683     1
   2788   2797     1
   2788   2794     1
   2788   5654     1
   2791   2797     1
   2791   2800     1
   2791   2812     1
   2797   5655     1
   2800   5626     1
   2806   5629     1
   2809   5658     1
   2813   2838     1
   2813   2835     1
   2813   2832     1
   2814   2829     1
   2814   2823     1
   2814   5741     1
   2817   2826     1
   2817   2823     1
   2817   5712     1
   2820   2826     1
   2820   2829     1
   2820   2841     1
   2826   5713     1
   2829   5684     1
   2835   5687     1
   2838   5716     1
   2842   2867     1
   2842   2864     1
   2842   2861     1
   2843   2858     1
   2843   2852     1
   2843   5799     1
   2846   2855     1
   2846   2852     1
   2846   5770     1
   2849   2855     1
   2849   2858     1
   2849   2870     1
   2855   5771     1
   2858   5742     1
   2864   5745     1
   2867   5774     1
   2871   2896     1
   2871   2893     1
   2871   2890     1
   2872   2887     1
   2872   2881     1
   2872   5857     1
   2875   2884     1
   2875   2881     1
   2875   5828     1
   2878   2884     1
   2878   2887     1
   2878   2899     1
   2884   5829     1
   2887   5800     1
   2893   5803     1
   2896   5832     1
   2900   2925     1
   2900   2922     1
   2900   2919     1
   2901   2916     1
   2901   2910     1
   2901   5915     1
   2904   2913     1
   2904   2910     1
   2904   5886     1
   2907   2913     1
   2907   2916     1
   2907   2928     1
   2913   5887     1
   2916   5858     1
   2922   5861     1
   2925   5890     1
   2929   2954     1
   2929   2951     1
   2929   2948     1
   2930   2945     1
   2930   2939     1
   2930   5973     1
   2933   2942     1
   2933   2939     1
   2933   5944     1
   2936   2942     1
   2936   2945     1
   2936   2957     1
   2942   5945     1
   2945   5916     1
   2951   5919     1
   2954   5948     1
   2958   2983     1
   2958   2980     1
   2958   2977     1
   2959   2974     1
   2959   2968     1
   2959   6031     1
   2962   2971     1
   2962   2968     1
   2962   6002     1
   2965   2971     1
   2965   2974     1
   2965   2986     1
   2971   6003     1
   2974   5974     1
   2980   5977     1
   2983   6006     1
   2987   3012     1
   2987   3009     1
   2987   3006     1
   2988   3003     1
   2988   2997     1
   2988   6089     1
   2991   3000     1
   2991   2997     1
   2991   6060     1
   2994   3000     1
   2994   3003     1
   2994   3015     1
   3000   6061     1
   3003   6032     1
   3009   6035     1
   3012   6064     1
   3016   3041     1
   3016   3038     1
   3016   3035     1
   3017   3032     1
   3017   3026     1
   3017   6147     1
   3020   3029     1
   3020   3026     1
   3020   6118     1
   3023   3029     1
   3023   3032     1
   3023   3044     1
   3029   6119     1
   3032   6090     1
   3038   6093     1
   3041   6122     1
   3045   3070     1
   3045   3067     1
   3045   3064     1
   3046   3061     1
   3046   3055     1
   3046   6205     1
   3049   3058     1
   3049   3055     1
   3049   6176     1
   3052   3058     1
   3052   3061     1
   3052   3073     1
   3058   6177     1
   3061   6148     1
   3067   6151     1
   3070   6180     1
   3074   3099     1
   3074   3096     1
   3074   3093     1
   3075   3090     1
   3075   3084     1
   3075   6263     1
   3078   3087     1
   3078   3084     1
   3078   6234     1
   3081   3087     1
   3081   3090     1
   3081   3102     1
   3087   6235     1
   3090   6206     1
   3096   6209     1
   3099   6238     1
   3103   3128     1
   3103   3125     1
   3103   3122     1
   3104   3119     1
   3104   3113     1
   3104   6321     1
   3107   3116     1
   3107   3113     1
   3107   6292     1
   3110   3116     1
   3110   3119     1
   3110   3131     1
   3116   6293     1
   3119   6264     1
   3125   6267     1
   3128   6296     1
   3132   3157     1
   3132   3154     1
   3132   3151     1
   3133   3148     1
   3133   3142     1
   3133   6379     1
   3136   3145     1
   3136   3142     1
   3136   6350     1
   3139   3145     1
   3139   3148     1
   3139   3160     1
   3145   6351     1
   3148   6322     1
   3154   6325     1
   3157   6354     1
   3161   3186     1
   3161   3183     1
   3161   3180     1
   3162   3177     1
   3162   3171     1
   3162   6437     1
   3165   3174     1
   3165   3171     1
   3165   6408     1
   3168   3174     1
   3168   3177     1
   3168   3189     1
   3174   6409     1
   3177   6380     1
   3183   6383     1
   3186   6412     1
   3190   3215     1
   3190   3212     1
   3190   3209     1
   3191   3206     1
   3191   3200     1
   3191   6495     1
   3194   3203     1
   3194   3200     1
   3194   6466     1
   3197   3203     1
   3197   3206     1
   3197   3218     1
   3203   6467     1
   3206   6438     1
   3212   6441     1
   3215   6470     1
   3219   3244     1
   3219   3241     1
   3219   3238     1
   3220   3235     1
   3220   3229     1
   3220   6553     1
   3223   3232     1
   3223   3229     1
   3223   6524     1
   3226   3232     1
   3226   3235     1
   3226   3247     1
   3232   6525     1
   3235   6496     1
   3241   6499     1
   3244   6528     1
   3248   3273     1
   3248   3270     1
   3248   3267     1
   3249   3264     1
   3249   3258     1
   3249   6611     1
   3252   3261     1
   3252   3258     1
   3252   6582     1
   3255   3261     1
   3255   3264     1
   3255   3276     1
   3261   6583     1
   3264   6554     1
   3270   6557     1
   3273   6586     1
   3277   3302     1
   3277   3299     1
   3277   3296     1
   3278   3293     1
   3278   3287     1
   3278   6669     1
   3281   3290     1
   3281   3287     1
   3281   6640     1
   3284   3290     1
   3284   3293     1
   3284   3305     1
   3290   6641     1
   3293   6612     1
   3299   6615     1
   3302   6644     1
   3306   3331     1
   3306   3328     1
   3306   3325     1
   3307   3322     1
   3307   3316     1
   3307   6727     1
   3310   3319     1
   3310   3316     1
   3310   6698     1
   3313   3319     1
   3313   3322     1
   3313   3334     1
   3319   6699     1
   3322   6670     1
   3328   6673     1
   3331   6702     1
   3335   3360     1
   3335   3357     1
   3335   3354     1
   3336   3351     1
   3336   3345     1
   3336   6785     1
   3339   3348     1
   3339   3345     1
   3339   6756     1
   3342   3348     1
   3342   3351     1
   3342   3363     1
   3348   6757     1
   3351   6728     1
   3357   6731     1
   3360   6760     1
   3364   3389     1
   3364   3386     1
   3364   3383     1
   3365   3380     1
   3365   3374     1
   3365   6843     1
   3368   3377     1
   3368   3374     1
   3368   6814     1
   3371   3377     1
   3371   3380     1
   3371   3392     1
   3377   6815     1
   3380   6786     1
   3386   6789     1
   3389   6818     1
   3393   3418     1
   3393   3415     1
   3393   3412     1
   3394   3409     1
   3394   3403     1
   3394   6901     1
   3397   3406     1
   3397   3403     1
   3397   6872     1
   3400   3406     1
   3400   3409     1
   3400   3421     1
   3406   6873     1
   3409   6844     1
   3415   6847     1
   3418   6876     1
   3422   3447     1
   3422   3444     1
   3422   3441     1
   3423   3438     1
   3423   3432     1
   3423   6959     1
   3426   3435     1
   3426   3432     1
   3426   6930     1
   3429   3435     1
   3429   3438     1
   3429   3450     1
   3435   6931     1
   3438   6902     1
   3444   6905     1
   3447   6934     1
   3451   3476     1
   3451   3473     1
   3451   3470     1
   3452   3467     1
   3452   3461     1
   3452   7017     1
   3455   3464     1
   3455   3461     1
   3455   6988     1
   3458   3464     1
   3458   3467     1
   3458   3479     1
   3464   6989     1
   3467   6960     1
   3473   6963     1
   3476   6992     1
   3480   3505     1
   3480   3502     1
   3480   3499     1
   3481   3496     1
   3481   3490     1
   3481   7075     1
   3484   3493     1
   3484   3490     1
   3484   7046     1
   3487   3493     1
   3487   3496     1
   3487   3508     1
   3493   7047     1
   3496   7018     1
   3502   7021     1
   3505   7050     1
   3509   3534     1
   3509   3531     1
   3509   3528     1
   3510   3525     1
   3510   3519     1
   3510   7133     1
   3513   3522     1
   3513   3519     1
   3513   7104     1
   3516   3522     1
   3516   3525     1
   3516   3537     1
   3522   7105     1
   3525   7076     1
   3531   7079     1
   3534   7108     1
   3538   3563     1
   3538   3560     1
   3538   3557     1
   3539   3554     1
   3539   3548     1
   3539   7191     1
   3542   3551     1
   3542   3548     1
   3542   7162     1
   3545   3551     1
   3545   3554     1
   3545   3566     1
   3551   7163     1
   3554   7134     1
   3560   7137     1
   3563   7166     1
   3567   3592     1
   3567   3589     1
   3567   3586     1
   3568   3583     1
   3568   3577     1
   3568   7249     1
   3571   3580     1
   3571   3577     1
   3571   7220     1
   3574   3580     1
   3574   3583     1
   3574   3595     1
   3580   7221     1
   3583   7192     1
   3589   7195     1
   3592   7224     1
   3596   3621     1
   3596   3618     1
   3596   3615     1
   3597   3612     1
   3597   3606     1
   3597   7307     1
   3600   3609     1
   3600   3606     1
   3600   7278     1
   3603   3609     1
   3603   3612     1
   3603   3624     1
   3609   7279     1
   3612   7250     1
   3618   7253     1
   3621   7282     1
   3625   3650     1
   3625   3647     1
   3625   3644     1
   3626   3641     1
   3626   3635     1
   3626   7365     1
   3629   3638     1
   3629   3635     1
   3629   7336     1
   3632   3638     1
   3632   3641     1
   3632   3653     1
   3638   7337     1
   3641   7308     1
   3647   7311     1
   3650   7340     1
   3654   3679     1
   3654   3676     1
   3654   3673     1
   3655   3670     1
   3655   3664     1
   3655   7423     1
   3658   3667     1
   3658   3664     1
   3658   7394     1
   3661   3667     1
   3661   3670     1
   3661   3682     1
   3667   7395     1
   3670   7366     1
   3676   7369     1
   3679   7398     1
   3683   3708     1
   3683   3705     1
   3683   3702     1
   3684   3699     1
   3684   3693     1
   3684   7481     1
   3687   3696     1
   3687   3693     1
   3687   7452     1
   3690   3696     1
   3690   3699     1
   3690   3711     1
   3696   7453     1
   3699   7424     1
   3705   7427     1
   3708   7456     1
   3712   3737     1
   3712   3734     1
   3712   3731     1
   3713   3728     1
   3713   3722     1
   3713   7539     1
   3716   3725     1
   3716   3722     1
   3716   7510     1
   3719   3725     1
   3719   3728     1
   3719   3740     1
   3725   7511     1
   3728   7482     1
   3734   7485     1
   3737   7514     1
   3741   3766     1
   3741   3763     1
   3741   3760     1
   3742   3757     1
   3742   3751     1
   3742   7597     1
   3745   3754     1
   3745   3751     1
   3745   7568     1
   3748   3754     1
   3748   3757     1
   3748   3769     1
   3754   7569     1
   3757   7540     1
   3763   7543     1
   3766   7572     1
   3770   3795     1
   3770   3792     1
   3770   3789     1
   3771   3786     1
   3771   3780     1
   3771   7655     1
   3774   3783     1
   3774   3780     1
   3774   7626     1
   3777   3783     1
   3777   3786     1
   3777   3798     1
   3783   7627     1
   3786   7598     1
   3792   7601     1
   3795   7630     1
   3799   3824     1
   3799   3821     1
   3799   3818     1
   3800   3815     1
   3800   3809     1
   3800   7713     1
   3803   3812     1
   3803   3809     1
   3803   7684     1
   3806   3812     1
   3806   3815     1
   3806   3827     1
   3812   7685     1
   3815   7656     1
   3821   7659     1
   3824   7688     1
   3828   3853     1
   3828   3850     1
   3828   3847     1
   3829   3844     1
   3829   3838     1
   3829   7771     1
   3832   3841     1
   3832   3838     1
   3832   7742     1
   3835   3841     1
   3835   3844     1
   3835   3856     1
   3841   7743     1
   3844   7714     1
   3850   7717     1
   3853   7746     1
   3857   3882     1
   3857   3879     1
   3857   3876     1
   3858   3873     1
   3858   3867     1
   3858   7829     1
   3861   3870     1
   3861   3867     1
   3861   7800     1
   3864   3870     1
   3864   3873     1
   3864   3885     1
   3870   7801     1
   3873   7772     1
   3879   7775     1
   3882   7804     1
   3886   3911     1
   3886   3908     1
   3886   3905     1
   3887   3902     1
   3887   3896     1
   3887   7887     1
   3890   3899     1
   3890   3896     1
   3890   7858     1
   3893   3899     1
   3893   3902     1
   3893   3914     1
   3899   7859     1
   3902   7830     1
   3908   7833     1
   3911   7862     1
   3915   3940     1
   3915   3937     1
   3915   3934     1
   3916   3931     1
   3916   3925     1
   3916   7945     1
   3919   3928     1
   3919   3925     1
   3919   7916     1
   3922   3928     1
   3922   3931     1
   3922   3943     1
   3928   7917     1
   3931   7888     1
   3937   7891     1
   3940   7920     1
   3944   3969     1
   3944   3966     1
   3944   3963     1
   3945   3960     1
   3945   3954     1
   3945   8003     1
   3948   3957     1
   3948   3954     1
   3948   7974     1
   3951   3957     1
   3951   3960     1
   3951   3972     1
   3957   7975     1
   3960   7946     1
   3966   7949     1
   3969   7978     1
   3973   3998     1
   3973   3995     1
   3973   3992     1
   3974   3989     1
   3974   3983     1
   3974   8061     1
   3977   3986     1
   3977   3983     1
   3977   8032     1
   3980   3986     1
   3980   3989     1
   3980   4001     1
   3986   8033     1
   3989   8004     1
   3995   8007     1
   3998   8036     1
   4002   4027     1
   4002   4024     1
   4002   4021     1
   4003   4018     1
   4003   4012     1
   4003   8119     1
   4006   4015     1
   4006   4012     1
   4006   8090     1
   4009   4015     1
   4009   4018     1
   4009   4030     1
   4015   8091     1
   4018   8062     1
   4024   8065     1
   4027   8094     1
   4031   4056     1
   4031   4053     1
   4031   4050     1
   4032   4047     1
   4032   4041     1
   4032   8177     1
   4035   4044     1
   4035   4041     1
   4035   8148     1
   4038   4044     1
   4038   4047     1
   4038   4059     1
   4044   8149     1
   4047   8120     1
   4053   8123     1
   4056   8152     1
   4060   4085     1
   4060   4082     1
   4060   4079     1
   4061   4076     1
   4061   4070     1
   4061   8235     1
   4064   4073     1
   4064   4070     1
   4064   8206     1
   4067   4073     1
   4067   4076     1
   4067   4088     1
   4073   8207     1
   4076   8178     1
   4082   8181     1
   4085   8210     1
   4089   4114     1
   4089   4111     1
   4089   4108     1
   4090   4105     1
   4090   4099     1
   4090   8293     1
   4093   4102     1
   4093   4099     1
   4093   8264     1
   4096   4102     1
   4096   4105     1
   4096   4117     1
   4102   8265     1
   4105   8236     1
   4111   8239     1
   4114   8268     1
   4118   4143     1
   4118   4140     1
   4118   4137     1
   4119   4134     1
   4119   4128     1
   4119   8351     1
   4122   4131     1
   4122   4128     1
   4122   8322     1
   4125   4131     1
   4125   4134     1
   4125   4146     1
   4131   8323     1
   4134   8294     1
   4140   8297     1
   4143   8326     1
   4147   4172     1
   4147   4169     1
   4147   4166     1
   4148   4163     1
   4148   4157     1
   4148   8409     1
   4151   4160     1
   4151   4157     1
   4151   8380     1
   4154   4160     1
   4154   4163     1
   4154   4175     1
   4160   8381     1
   4163   8352     1
   4169   8355     1
   4172   8384     1
   4176   4201     1
   4176   4198     1
   4176   4195     1
   4177   4192     1
   4177   4186     1
   4177   8467     1
   4180   4189     1
   4180   4186     1
   4180   8438     1
   4183   4189     1
   4183   4192     1
   4183   4204     1
   4189   8439     1
   4192   8410     1
   4198   8413     1
   4201   8442     1
   4205   4230     1
   4205   4227     1
   4205   4224     1
   4206   4221     1
   4206   4215     1
   4206   8525     1
   4209   4218     1
   4209   4215     1
   4209   8496     1
   4212   4218     1
   4212   4221     1
   4212   4233     1
   4218   8497     1
   4221   8468     1
   4227   8471     1
   4230   8500     1
   4234   4259     1
   4234   4256     1
   4234   4253     1
   4235   4250     1
   4235   4244     1
   4235   8583     1
   4238   4247     1
   4238   4244     1
   4238   8554     1
   4241   4247     1
   4241   4250     1
   4241   4262     1
   4247   8555     1
   4250   8526     1
   4256   8529     1
   4259   8558     1
   4263   4288     1
   4263   4285     1
   4263   4282     1
   4264   4279     1
   4264   4273     1
   4264   8641     1
   4267   4276     1
   4267   4273     1
   4267   8612     1
   4270   4276     1
   4270   4279     1
   4270   4291     1
   4276   8613     1
   4279   8584     1
   4285   8587     1
   4288   8616     1
   4292   4317     1
   4292   4314     1
   4292   4311     1
   4293   4308     1
   4293   4302     1
   4293   8699     1
   4296   4305     1
   4296   4302     1
   4296   8670     1
   4299   4305     1
   4299   4308     1
   4299   4320     1
   4305   8671     1
   4308   8642     1
   4314   8645     1
   4317   8674     1
   4321   4346     1
   4321   4343     1
   4321   4340     1
   4322   4337     1
   4322   4331     1
   4322   8757     1
   4325   4334     1
   4325   4331     1
   4325   8728     1
   4328   4334     1
   4328   4337     1
   4328   4349     1
   4334   8729     1
   4337   8700     1
   4343   8703     1
   4346   8732     1
   4350   4375     1
   4350   4372     1
   4350   4369     1
   4351   4366     1
   4351   4360     1
   4351   8815     1
   4354   4363     1
   4354   4360     1
   4354   8786     1
   4357   4363     1
   4357   4366     1
   4357   4378     1
   4363   8787     1
   4366   8758     1
   4372   8761     1
   4375   8790     1
   4379   4404     1
   4379   4401     1
   4379   4398     1
   4380   4395     1
   4380   4389     1
   4380   8873     1
   4383   4392     1
   4383   4389     1
   4383   8844     1
   4386   4392     1
   4386   4395     1
   4386   4407     1
   4392   8845     1
   4395   8816     1
   4401   8819     1
   4404   8848     1
   4408   4433     1
   4408   4430     1
   4408   4427     1
   4409   4424     1
   4409   4418     1
   4409   8931     1
   4412   4421     1
   4412   4418     1
   4412   8902     1
   4415   4421     1
   4415   4424     1
   4415   4436     1
   4421   8903     1
   4424   8874     1
   4430   8877     1
   4433   8906     1
   4437   4462     1
   4437   4459     1
   4437   4456     1
   4438   4453     1
   4438   4447     1
   4438   8989     1
   4441   4450     1
   4441   4447     1
   4441   8960     1
   4444   4450     1
   4444   4453     1
   4444   4465     1
   4450   8961     1
   4453   8932     1
   4459   8935     1
   4462   8964     1
   4466   4491     1
   4466   4488     1
   4466   4485     1
   4467   4482     1
   4467   4476     1
   4467   9047     1
   4470   4479     1
   4470   4476     1
   4470   9018     1
   4473   4479     1
   4473   4482     1
   4473   4494     1
   4479   9019     1
   4482   8990     1
   4488   8993     1
   4491   9022     1
   4495   4520     1
   4495   4517     1
   4495   4514     1
   4496   4511     1
   4496   4505     1
   4496   9105     1
   4499   4508     1
   4499   4505     1
   4499   9076     1
   4502   4508     1
   4502   4511     1
   4502   4523     1
   4508   9077     1
   4511   9048     1
   4517   9051     1
   4520   9080     1
   4524   4549     1
   4524   4546     1
   4524   4543     1
   4525   4540     1
   4525   4534     1
   4525   9163     1
   4528   4537     1
   4528   4534     1
   4528   9134     1
   4531   4537     1
   4531   4540     1
   4531   4552     1
   4537   9135     1
   4540   9106     1
   4546   9109     1
   4549   9138     1
   4553   4578     1
   4553   4575     1
   4553   4572     1
   4554   4569     1
   4554   4563     1
   4554   9221     1
   4557   4566     1
   4557   4563     1
   4557   9192     1
   4560   4566     1
   4560   4569     1
   4560   4581     1
   4566   9193     1
   4569   9164     1
   4575   9167     1
   4578   9196     1
   4582   4607     1
   4582   4604     1
   4582   4601     1
   4583   4598     1
   4583   4592     1
   4583   9279     1
   4586   4595     1
   4586   4592     1
   4586   9250     1
   4589   4595     1
   4589   4598     1
   4589   4610     1
   4595   9251     1
   4598   9222     1
   4604   9225     1
   4607   9254     1
   4611   4636     1
   4611   4633     1
   4611   4630     1
   4612   4627     1
   4612   4621     1
   4612   9337     1
   4615   4624     1
   4615   4621     1
   4615   9308     1
   4618   4624     1
   4618   4627     1
   4618   4639     1
   4624   9309     1
   4627   9280     1
   4633   9283     1
   4636   9312     1
   4640   4665     1
   4640   4662     1
   4640   4659     1
   4641   4656     1
   4641   4650     1
   4641   9395     1
   4644   4653     1
   4644   4650     1
   4644   9366     1
   4647   4653     1
   4647   4656     1
   4647   4668     1
   4653   9367     1
   4656   9338     1
   4662   9341     1
   4665   9370     1
   4669   4694     1
   4669   4691     1
   4669   4688     1
   4670   4685     1
   4670   4679     1
   4670   9453     1
   4673   4682     1
   4673   4679     1
   4673   9424     1
   4676   4682     1
   4676   4685     1
   4676   4697     1
   4682   9425     1
   4685   9396     1
   4691   9399     1
   4694   9428     1
   4698   4723     1
   4698   4720     1
   4698   4717     1
   4699   4714     1
   4699   4708     1
   4699   9511     1
   4702   4711     1
   4702   4708     1
   4702   9482     1
   4705   4711     1
   4705   4714     1
   4705   4726     1
   4711   9483     1
   4714   9454     1
   4720   9457     1
   4723   9486     1
   4727   4752     1
   4727   4749     1
   4727   4746     1
   4728   4743     1
   4728   4737     1
   4728   9569     1
   4731   4740     1
   4731   4737     1
   4731   9540     1
   4734   4740     1
   4734   4743     1
   4734   4755     1
   4740   9541     1
   4743   9512     1
   4749   9515     1
   4752   9544     1
   4756   4781     1
   4756   4778     1
   4756   4775     1
   4757   4772     1
   4757   4766     1
   4757   9627     1
   4760   4769     1
   4760   4766     1
   4760   9598     1
   4763   4769     1
   4763   4772     1
   4763   4784     1
   4769   9599     1
   4772   9570     1
   4778   9573     1
   4781   9602     1
   4785   4810     1
   4785   4807     1
   4785   4804     1
   4786   4801     1
   4786   4795     1
   4786   9685     1
   4789   4798     1
   4789   4795     1
   4789   9656     1
   4792   4798     1
   4792   4801     1
   4792   4813     1
   4798   9657     1
   4801   9628     1
   4807   9631     1
   4810   9660     1
   4814   4839     1
   4814   4836     1
   4814   4833     1
   4815   4830     1
   4815   4824     1
   4815   9743     1
   4818   4827     1
   4818   4824     1
   4818   9714     1
   4821   4827     1
   4821   4830     1
   4821   4842     1
   4827   9715     1
   4830   9686     1
   4836   9689     1
   4839   9718     1
   4843   4868     1
   4843   4865     1
   4843   4862     1
   4844   4859     1
   4844   4853     1
   4844   9801     1
   4847   4856     1
   4847   4853     1
   4847   9772     1
   4850   4856     1
   4850   4859     1
   4850   4871     1
   4856   9773     1
   4859   9744     1
   4865   9747     1
   4868   9776     1
   4872   4897     1
   4872   4894     1
   4872   4891     1
   4873   4888     1
   4873   4882     1
   4873   9859     1
   4876   4885     1
   4876   4882     1
   4876   9830     1
   4879   4885     1
   4879   4888     1
   4879   4900     1
   4885   9831     1
   4888   9802     1
   4894   9805     1
   4897   9834     1
   4901   4926     1
   4901   4923     1
   4901   4920     1
   4902   4917     1
   4902   4911     1
   4902   9917     1
   4905   4914     1
   4905   4911     1
   4905   9888     1
   4908   4914     1
   4908   4917     1
   4908   4929     1
   4914   9889     1
   4917   9860     1
   4923   9863     1
   4926   9892     1
   4930   4955     1
   4930   4952     1
   4930   4949     1
   4931   4946     1
   4931   4940     1
   4931   9975     1
   4934   4943     1
   4934   4940     1
   4934   9946     1
   4937   4943     1
   4937   4946     1
   4937   4958     1
   4943   9947     1
   4946   9918     1
   4952   9921     1
   4955   9950     1
   4959   4984     1
   4959   4981     1
   4959   4978     1
   4960   4975     1
   4960   4969     1
   4960  10033     1
   4963   4972     1
   4963   4969     1
   4963  10004     1
   4966   4972     1
   4966   4975     1
   4966   4987     1
   4972  10005     1
   4975   9976     1
   4981   9979     1
   4984  10008     1
   4988   5013     1
   4988   5010     1
   4988   5007     1
   4989   5004     1
   4989   4998     1
   4989  10091     1
   4992   5001     1
   4992   4998     1
   4992  10062     1
   4995   5001     1
   4995   5004     1
   4995   5016     1
   5001  10063     1
   5004  10034     1
   5010  10037     1
   5013  10066     1
   5017   5042     1
   5017   5039     1
   5017   5036     1
   5018   5033     1
   5018   5027     1
   5018  10149     1
   5021   5030     1
   5021   5027     1
   5021  10120     1
   5024   5030     1
   5024   5033     1
   5024   5045     1
   5030  10121     1
   5033  10092     1
   5039  10095     1
   5042  10124     1
   5046   5071     1
   5046   5068     1
   5046   5065     1
   5047   5062     1
   5047   5056     1
   5047  10207     1
   5050   5059     1
   5050   5056     1
   5050  10178     1
   5053   5059     1
   5053   5062     1
   5053   5074     1
   5059  10179     1
   5062  10150     1
   5068  10153     1
   5071  10182     1
   5075   5100     1
   5075   5097     1
   5075   5094     1
   5076   5091     1
   5076   5085     1
   5076  10265     1
   5079   5088     1
   5079   5085     1
   5079  10236     1
   5082   5088     1
   5082   5091     1
   5082   5103     1
   5088  10237     1
   5091  10208     1
   5097  10211     1
   5100  10240     1
   5104   5129     1
   5104   5126     1
   5104   5123     1
   5105   5120     1
   5105   5114     1
   5105  10323     1
   5108   5117     1
   5108   5114     1
   5108  10294     1
   5111   5117     1
   5111   5120     1
   5111   5132     1
   5117  10295     1
   5120  10266     1
   5126  10269     1
   5129  10298     1
   5133   5158     1
   5133   5155     1
   5133   5152     1
   5134   5149     1
   5134   5143     1
   5134  10381     1
   5137   5146     1
   5137   5143     1
   5137  10352     1
   5140   5146     1
   5140   5149     1
   5140   5161     1
   5146  10353     1
   5149  10324     1
   5155  10327     1
   5158  10356     1
   5162   5187     1
   5162   5184     1
   5162   5181     1
   5163   5178     1
   5163   5172     1
   5163  10439     1
   5166   5175     1
   5166   5172     1
   5166  10410     1
   5169   5175     1
   5169   5178     1
   5169   5190     1
   5175  10411     1
   5178  10382     1
   5184  10385     1
   5187  10414     1
   5191   5216     1
   5191   5213     1
   5191   5210     1
   5192   5207     1
   5192   5201     1
   5192  10497     1
   5195   5204     1
   5195   5201     1
   5195  10468     1
   5198   5204     1
   5198   5207     1
   5198   5219     1
   5204  10469     1
   5207  10440     1
   5213  10443     1
   5216  10472     1
   5220   5245     1
   5220   5242     1
   5220   5239     1
   5221   5236     1
   5221   5230     1
   5221  10555     1
   5224   5233     1
   5224   5230     1
   5224  10526     1
   5227   5233     1
   5227   5236     1
   5227   5248     1
   5233  10527     1
   5236  10498     1
   5242  10501     1
   5245  10530     1
   5249   5274     1
   5249   5271     1
   5249   5268     1
   5250   5265     1
   5250   5259     1
   5250  10613     1
   5253   5262     1
   5253   5259     1
   5253  10584     1
   5256   5262     1
   5256   5265     1
   5256   5277     1
   5262  10585     1
   5265  10556     1
   5271  10559     1
   5274  10588     1
   5278   5303     1
   5278   5300     1
   5278   5297     1
   5279   5294     1
   5279   5288     1
   5279  10671     1
   5282   5291     1
   5282   5288     1
   5282  10642     1
   5285   5291     1
   5285   5294     1
   5285   5306     1
   5291  10643     1
   5294  10614     1
   5300  10617     1
   5303  10646     1
   5307   5332     1
   5307   5329     1
   5307   5326     1
   5308   5323     1
   5308   5317     1
   5308  10729     1
   5311   5320     1
   5311   5317     1
   5311  10700     1
   5314   5320     1
   5314   5323     1
   5314   5335     1
   5320  10701     1
   5323  10672     1
   5329  10675     1
   5332  10704     1
   5336   5361     1
   5336   5358     1
   5336   5355     1
   5337   5352     1
   5337   5346     1
   5337  10787     1
   5340   5349     1
   5340   5346     1
   5340  10758     1
   5343   5349     1
   5343   5352     1
   5343   5364     1
   5349  10759     1
   5352  10730     1
   5358  10733     1
   5361  10762     1
   5365   5390     1
   5365   5387     1
   5365   5384     1
   5366   5381     1
   5366   5375     1
   5366  10845     1
   5369   5378     1
   5369   5375     1
   5369  10816     1
   5372   5378     1
   5372   5381     1
   5372   5393     1
   5378  10817     1
   5381  10788     1
   5387  10791     1
   5390  10820     1
   5394   5419     1
   5394   5416     1
   5394   5413     1
   5395   5410     1
   5395   5404     1
   5395  10903     1
   5398   5407     1
   5398   5404     1
   5398  10874     1
   5401   5407     1
   5401   5410     1
   5401   5422     1
   5407  10875     1
   5410  10846     1
   5416  10849     1
   5419  10878     1
   5423   5448     1
   5423   5445     1
   5423   5442     1
   5424   5439     1
   5424   5433     1
   5424  10961     1
   5427   5436     1
   5427   5433     1
   5427  10932     1
   5430   5436     1
   5430   5439     1
   5430   5451     1
   5436  10933     1
   5439  10904     1
   5445  10907     1
   5448  10936     1
   5452   5477     1
   5452   5474     1
   5452   5471     1
   5453   5468     1
   5453   5462     1
   5453  11019     1
   5456   5465     1
   5456   5462     1
   5456  10990     1
   5459   5465     1
   5459   5468     1
   5459   5480     1
   5465  10991     1
   5468  10962     1
   5474  10965     1
   5477  10994     1
   5481   5506     1
   5481   5503     1
   5481   5500     1
   5482   5497     1
   5482   5491     1
   5482  11077     1
   5485   5494     1
   5485   5491     1
   5485  11048     1
   5488   5494     1
   5488   5497     1
   5488   5509     1
   5494  11049     1
   5497  11020     1
   5503  11023     1
   5506  11052     1
   5510   5519     1
   5513   5520     1
   5513   5529     1
   5516   5538     1
   5516   5523     1
   5516   5532     1
   5519   5526     1
   5519   5535     1
   5520   5532     1
   5520   5527     1
   5520   5528     1
   5523   5529     1
   5529   5536     1
   5529   5537     1
   5539   5548     1
   5542   5549     1
   5542   5558     1
   5545   5552     1
   5545   5561     1
   5545   5567     1
   5548   5555     1
   5548   5564     1
   5549   5556     1
   5549   5557     1
   5549   5561     1
   5552   5558     1
   5558   5565     1
   5558   5566     1
   5568   5577     1
   5571   5578     1
   5571   5587     1
   5574   5596     1
   5574   5581     1
   5574   5590     1
   5577   5584     1
   5577   5593     1
   5578   5590     1
   5578   5585     1
   5578   5586     1
   5581   5587     1
   5587   5594     1
   5587   5595     1
   5597   5606     1
   5600   5607     1
   5600   5616     1
   5603   5610     1
   5603   5619     1
   5603   5625     1
   5606   5613     1
   5606   5622     1
   5607   5614     1
   5607   5615     1
   5607   5619     1
   5610   5616     1
   5616   5623     1
   5616   5624     1
   5626   5635     1
   5629   5636     1
   5629   5645     1
   5632   5654     1
   5632   5639     1
   5632   5648     1
   5635   5642     1
   5635   5651     1
   5636   5648     1
   5636   5643     1
   5636   5644     1
   5639   5645     1
   5645   5652     1
   5645   5653     1
   5655   5664     1
   5658   5665     1
   5658   5674     1
   5661   5668     1
   5661   5677     1
   5661   5683     1
   5664   5671     1
   5664   5680     1
   5665   5672     1
   5665   5673     1
   5665   5677     1
   5668   5674     1
   5674   5681     1
   5674   5682     1
   5684   5693     1
   5687   5694     1
   5687   5703     1
   5690   5712     1
   5690   5697     1
   5690   5706     1
   5693   5700     1
   5693   5709     1
   5694   5706     1
   5694   5701     1
   5694   5702     1
   5697   5703     1
   5703   5710     1
   5703   5711     1
   5713   5722     1
   5716   5723     1
   5716   5732     1
   5719   5726     1
   5719   5735     1
   5719   5741     1
   5722   5729     1
   5722   5738     1
   5723   5730     1
   5723   5731     1
   5723   5735     1
   5726   5732     1
   5732   5739     1
   5732   5740     1
   5742   5751     1
   5745   5752     1
   5745   5761     1
   5748   5770     1
   5748   5755     1
   5748   5764     1
   5751   5758     1
   5751   5767     1
   5752   5764     1
   5752   5759     1
   5752   5760     1
   5755   5761     1
   5761   5768     1
   5761   5769     1
   5771   5780     1
   5774   5781     1
   5774   5790     1
   5777   5784     1
   5777   5793     1
   5777   5799     1
   5780   5787     1
   5780   5796     1
   5781   5788     1
   5781   5789     1
   5781   5793     1
   5784   5790     1
   5790   5797     1
   5790   5798     1
   5800   5809     1
   5803   5810     1
   5803   5819     1
   5806   5828     1
   5806   5813     1
   5806   5822     1
   5809   5816     1
   5809   5825     1
   5810   5822     1
   5810   5817     1
   5810   5818     1
   5813   5819     1
   5819   5826     1
   5819   5827     1
   5829   5838     1
   5832   5839     1
   5832   5848     1
   5835   5842     1
   5835   5851     1
   5835   5857     1
   5838   5845     1
   5838   5854     1
   5839   5846     1
   5839   5847     1
   5839   5851     1
   5842   5848     1
   5848   5855     1
   5848   5856     1
   5858   5867     1
   5861   5868     1
   5861   5877     1
   5864   5886     1
   5864   5871     1
   5864   5880     1
   5867   5874     1
   5867   5883     1
   5868   5880     1
   5868   5875     1
   5868   5876     1
   5871   5877     1
   5877   5884     1
   5877   5885     1
   5887   5896     1
   5890   5897     1
   5890   5906     1
   5893   5900     1
   5893   5909     1
   5893   5915     1
   5896   5903     1
   5896   5912     1
   5897   5904     1
   5897   5905     1
   5897   5909     1
   5900   5906     1
   5906   5913     1
   5906   5914     1
   5916   5925     1
   5919   5926     1
   5919   5935     1
   5922   5944     1
   5922   5929     1
   5922   5938     1
   5925   5932     1
   5925   5941     1
   5926   5938     1
   5926   5933     1
   5926   5934     1
   5929   5935     1
   5935   5942     1
   5935   5943     1
   5945   5954     1
   5948   5955     1
   5948   5964     1
   5951   5958     1
   5951   5967     1
   5951   5973     1
   5954   5961     1
   5954   5970     1
   5955   5962     1
   5955   5963     1
   5955   5967     1
   5958   5964     1
   5964   5971     1
   5964   5972     1
   5974   5983     1
   5977   5984     1
   5977   5993     1
   5980   6002     1
   5980   5987     1
   5980   5996     1
   5983   5990     1
   5983   5999     1
   5984   5996     1
   5984   5991     1
   5984   5992     1
   5987   5993     1
   5993   6000     1
   5993   6001     1
   6003   6012     1
   6006   6013     1
   6006   6022     1
   6009   6016     1
   6009   6025     1
   6009   6031     1
   6012   6019     1
   6012   6028     1
   6013   6020     1
   6013   6021     1
   6013   6025     1
   6016   6022     1
   6022   6029     1
   6022   6030     1
   6032   6041     1
   6035   6042     1
   6035   6051     1
   6038   6060     1
   6038   6045     1
   6038   6054     1
   6041   6048     1
   6041   6057     1
   6042   6054     1
   6042   6049     1
   6042   6050     1
   6045   6051     1
   6051   6058     1
   6051   6059     1
   6061   6070     1
   6064   6071     1
   6064   6080     1
   6067   6074     1
   6067   6083     1
   6067   6089     1
   6070   6077     1
   6070   6086     1
   6071   6078     1
   6071   6079     1
   6071   6083     1
   6074   6080     1
   6080   6087     1
   6080   6088     1
   6090   6099     1
   6093   6100     1
   6093   6109     1
   6096   6118     1
   6096   6103     1
   6096   6112     1
   6099   6106     1
   6099   6115     1
   6100   6112     1
   6100   6107     1
   6100   6108     1
   6103   6109     1
   6109   6116     1
   6109   6117     1
   6119   6128     1
   6122   6129     1
   6122   6138     1
   6125   6132     1
   6125   6141     1
   6125   6147     1
   6128   6135     1
   6128   6144     1
   6129   6136     1
   6129   6137     1
   6129   6141     1
   6132   6138     1
   6138   6145     1
   6138   6146     1
   6148   6157     1
   6151   6158     1
   6151   6167     1
   6154   6176     1
   6154   6161     1
   6154   6170     1
   6157   6164     1
   6157   6173     1
   6158   6170     1
   6158   6165     1
   6158   6166     1
   6161   6167     1
   6167   6174     1
   6167   6175     1
   6177   6186     1
   6180   6187     1
   6180   6196     1
   6183   6190     1
   6183   6199     1
   6183   6205     1
   6186   6193     1
   6186   6202     1
   6187   6194     1
   6187   6195     1
   6187   6199     1
   6190   6196     1
   6196   6203     1
   6196   6204     1
   6206   6215     1
   6209   6216     1
   6209   6225     1
   6212   6234     1
   6212   6219     1
   6212   6228     1
   6215   6222     1
   6215   6231     1
   6216   6228     1
   6216   6223     1
   6216   6224     1
   6219   6225     1
   6225   6232     1
   6225   6233     1
   6235   6244     1
   6238   6245     1
   6238   6254     1
   6241   6248     1
   6241   6257     1
   6241   6263     1
   6244   6251     1
   6244   6260     1
   6245   6252     1
   6245   6253     1
   6245   6257     1
   6248   6254     1
   6254   6261     1
   6254   6262     1
   6264   6273     1
   6267   6274     1
   6267   6283     1
   6270   6292     1
   6270   6277     1
   6270   6286     1
   6273   6280     1
   6273   6289     1
   6274   6286     1
   6274   6281     1
   6274   6282     1
   6277   6283     1
   6283   6290     1
   6283   6291     1
   6293   6302     1
   6296   6303     1
   6296   6312     1
   6299   6306     1
   6299   6315     1
   6299   6321     1
   6302   6309     1
   6302   6318     1
   6303   6310     1
   6303   6311     1
   6303   6315     1
   6306   6312     1
   6312   6319     1
   6312   6320     1
   6322   6331     1
   6325   6332     1
   6325   6341     1
   6328   6350     1
   6328   6335     1
   6328   6344     1
   6331   6338     1
   6331   6347     1
   6332   6344     1
   6332   6339     1
   6332   6340     1
   6335   6341     1
   6341   6348     1
   6341   6349     1
   6351   6360     1
   6354   6361     1
   6354   6370     1
   6357   6364     1
   6357   6373     1
   6357   6379     1
   6360   6367     1
   6360   6376     1
   6361   6368     1
   6361   6369     1
   6361   6373     1
   6364   6370     1
   6370   6377     1
   6370   6378     1
   6380   6389     1
   6383   6390     1
   6383   6399     1
   6386   6408     1
   6386   6393     1
   6386   6402     1
   6389   6396     1
   6389   6405     1
   6390   6402     1
   6390   6397     1
   6390   6398     1
   6393   6399     1
   6399   6406     1
   6399   6407     1
   6409   6418     1
   6412   6419     1
   6412   6428     1
   6415   6422     1
   6415   6431     1
   6415   6437     1
   6418   6425     1
   6418   6434     1
   6419   6426     1
   6419   6427     1
   6419   6431     1
   6422   6428     1
   6428   6435     1
   6428   6436     1
   6438   6447     1
   6441   6448     1
   6441   6457     1
   6444   6466     1
   6444   6451     1
   6444   6460     1
   6447   6454     1
   6447   6463     1
   6448   6460     1
   6448   6455     1
   6448   6456     1
   6451   6457     1
   6457   6464     1
   6457   6465     1
   6467   6476     1
   6470   6477     1
   6470   6486     1
   6473   6480     1
   6473   6489     1
   6473   6495     1
   6476   6483     1
   6476   6492     1
   6477   6484     1
   6477   6485     1
   6477   6489     1
   6480   6486     1
   6486   6493     1
   6486   6494     1
   6496   6505     1
   6499   6506     1
   6499   6515     1
   6502   6524     1
   6502   6509     1
   6502   6518     1
   6505   6512     1
   6505   6521     1
   6506   6518     1
   6506   6513     1
   6506   6514     1
   6509   6515     1
   6515   6522     1
   6515   6523     1
   6525   6534     1
   6528   6535     1
   6528   6544     1
   6531   6538     1
   6531   6547     1
   6531   6553     1
   6534   6541     1
   6534   6550     1
   6535   6542     1
   6535   6543     1
   6535   6547     1
   6538   6544     1
   6544   6551     1
   6544   6552     1
   6554   6563     1
   6557   6564     1
   6557   6573     1
   6560   6582     1
   6560   6567     1
   6560   6576     1
   6563   6570     1
   6563   6579     1
   6564   6576     1
   6564   6571     1
   6564   6572     1
   6567   6573     1
   6573   6580     1
   6573   6581     1
   6583   6592     1
   6586   6593     1
   6586   6602     1
   6589   6596     1
   6589   6605     1
   6589   6611     1
   6592   6599     1
   6592   6608     1
   6593   6600     1
   6593   6601     1
   6593   6605     1
   6596   6602     1
   6602   6609     1
   6602   6610     1
   6612   6621     1
   6615   6622     1
   6615   6631     1
   6618   6640     1
   6618   6625     1
   6618   6634     1
   6621   6628     1
   6621   6637     1
   6622   6634     1
   6622   6629     1
   6622   6630     1
   6625   6631     1
   6631   6638     1
   6631   6639     1
   6641   6650     1
   6644   6651     1
   6644   6660     1
   6647   6654     1
   6647   6663     1
   6647   6669     1
   6650   6657     1
   6650   6666     1
   6651   6658     1
   6651   6659     1
   6651   6663     1
   6654   6660     1
   6660   6667     1
   6660   6668     1
   6670   6679     1
   6673   6680     1
   6673   6689     1
   6676   6698     1
   6676   6683     1
   6676   6692     1
   6679   6686     1
   6679   6695     1
   6680   6692     1
   6680   6687     1
   6680   6688     1
   6683   6689     1
   6689   6696     1
   6689   6697     1
   6699   6708     1
   6702   6709     1
   6702   6718     1
   6705   6712     1
   6705   6721     1
   6705   6727     1
   6708   6715     1
   6708   6724     1
   6709   6716     1
   6709   6717     1
   6709   6721     1
   6712   6718     1
   6718   6725     1
   6718   6726     1
   6728   6737     1
   6731   6738     1
   6731   6747     1
   6734   6756     1
   6734   6741     1
   6734   6750     1
   6737   6744     1
   6737   6753     1
   6738   6750     1
   6738   6745     1
   6738   6746     1
   6741   6747     1
   6747   6754     1
   6747   6755     1
   6757   6766     1
   6760   6767     1
   6760   6776     1
   6763   6770     1
   6763   6779     1
   6763   6785     1
   6766   6773     1
   6766   6782     1
   6767   6774     1
   6767   6775     1
   6767   6779     1
   6770   6776     1
   6776   6783     1
   6776   6784     1
   6786   6795     1
   6789   6796     1
   6789   6805     1
   6792   6814     1
   6792   6799     1
   6792   6808     1
   6795   6802     1
   6795   6811     1
   6796   6808     1
   6796   6803     1
   6796   6804     1
   6799   6805     1
   6805   6812     1
   6805   6813     1
   6815   6824     1
   6818   6825     1
   6818   6834     1
   6821   6828     1
   6821   6837     1
   6821   6843     1
   6824   6831     1
   6824   6840     1
   6825   6832     1
   6825   6833     1
   6825   6837     1
   6828   6834     1
   6834   6841     1
   6834   6842     1
   6844   6853     1
   6847   6854     1
   6847   6863     1
   6850   6872     1
   6850   6857     1
   6850   6866     1
   6853   6860     1
   6853   6869     1
   6854   6866     1
   6854   6861     1
   6854   6862     1
   6857   6863     1
   6863   6870     1
   6863   6871     1
   6873   6882     1
   6876   6883     1
   6876   6892     1
   6879   6886     1
   6879   6895     1
   6879   6901     1
   6882   6889     1
   6882   6898     1
   6883   6890     1
   6883   6891     1
   6883   6895     1
   6886   6892     1
   6892   6899     1
   6892   6900     1
   6902   6911     1
   6905   6912     1
   6905   6921     1
   6908   6930     1
   6908   6915     1
   6908   6924     1
   6911   6918     1
   6911   6927     1
   6912   6924     1
   6912   6919     1
   6912   6920     1
   6915   6921     1
   6921   6928     1
   6921   6929     1
   6931   6940     1
   6934   6941     1
   6934   6950     1
   6937   6944     1
   6937   6953     1
   6937   6959     1
   6940   6947     1
   6940   6956     1
   6941   6948     1
   6941   6949     1
   6941   6953     1
   6944   6950     1
   6950   6957     1
   6950   6958     1
   6960   6969     1
   6963   6970     1
   6963   6979     1
   6966   6988     1
   6966   6973     1
   6966   6982     1
   6969   6976     1
   6969   6985     1
   6970   6982     1
   6970   6977     1
   6970   6978     1
   6973   6979     1
   6979   6986     1
   6979   6987     1
   6989   6998     1
   6992   6999     1
   6992   7008     1
   6995   7002     1
   6995   7011     1
   6995   7017     1
   6998   7005     1
   6998   7014     1
   6999   7006     1
   6999   7007     1
   6999   7011     1
   7002   7008     1
   7008   7015     1
   7008   7016     1
   7018   7027     1
   7021   7028     1
   7021   7037     1
   7024   7046     1
   7024   7031     1
   7024   7040     1
   7027   7034     1
   7027   7043     1
   7028   7040     1
   7028   7035     1
   7028   7036     1
   7031   7037     1
   7037   7044     1
   7037   7045     1
   7047   7056     1
   7050   7057     1
   7050   7066     1
   7053   7060     1
   7053   7069     1
   7053   7075     1
   7056   7063     1
   7056   7072     1
   7057   7064     1
   7057   7065     1
   7057   7069     1
   7060   7066     1
   7066   7073     1
   7066   7074     1
   7076   7085     1
   7079   7086     1
   7079   7095     1
   7082   7104     1
   7082   7089     1
   7082   7098     1
   7085   7092     1
   7085   7101     1
   7086   7098     1
   7086   7093     1
   7086   7094     1
   7089   7095     1
   7095   7102     1
   7095   7103     1
   7105   7114     1
   7108   7115     1
   7108   7124     1
   7111   7118     1
   7111   7127     1
   7111   7133     1
   7114   7121     1
   7114   7130     1
   7115   7122     1
   7115   7123     1
   7115   7127     1
   7118   7124     1
   7124   7131     1
   7124   7132     1
   7134   7143     1
   7137   7144     1
   7137   7153     1
   7140   7162     1
   7140   7147     1
   7140   7156     1
   7143   7150     1
   7143   7159     1
   7144   7156     1
   7144   7151     1
   7144   7152     1
   7147   7153     1
   7153   7160     1
   7153   7161     1
   7163   7172     1
   7166   7173     1
   7166   7182     1
   7169   7176     1
   7169   7185     1
   7169   7191     1
   7172   7179     1
   7172   7188     1
   7173   7180     1
   7173   7181     1
   7173   7185     1
   7176   7182     1
   7182   7189     1
   7182   7190     1
   7192   7201     1
   7195   7202     1
   7195   7211     1
   7198   7220     1
   7198   7205     1
   7198   7214     1
   7201   7208     1
   7201   7217     1
   7202   7214     1
   7202   7209     1
   7202   7210     1
   7205   7211     1
   7211   7218     1
   7211   7219     1
   7221   7230     1
   7224   7231     1
   7224   7240     1
   7227   7234     1
   7227   7243     1
   7227   7249     1
   7230   7237     1
   7230   7246     1
   7231   7238     1
   7231   7239     1
   7231   7243     1
   7234   7240     1
   7240   7247     1
   7240   7248     1
   7250   7259     1
   7253   7260     1
   7253   7269     1
   7256   7278     1
   7256   7263     1
   7256   7272     1
   7259   7266     1
   7259   7275     1
   7260   7272     1
   7260   7267     1
   7260   7268     1
   7263   7269     1
   7269   7276     1
   7269   7277     1
   7279   7288     1
   7282   7289     1
   7282   7298     1
   7285   7292     1
   7285   7301     1
   7285   7307     1
   7288   7295     1
   7288   7304     1
   7289   7296     1
   7289   7297     1
   7289   7301     1
   7292   7298     1
   7298   7305     1
   7298   7306     1
   7308   7317     1
   7311   7318     1
   7311   7327     1
   7314   7336     1
   7314   7321     1
   7314   7330     1
   7317   7324     1
   7317   7333     1
   7318   7330     1
   7318   7325     1
   7318   7326     1
   7321   7327     1
   7327   7334     1
   7327   7335     1
   7337   7346     1
   7340   7347     1
   7340   7356     1
   7343   7350     1
   7343   7359     1
   7343   7365     1
   7346   7353     1
   7346   7362     1
   7347   7354     1
   7347   7355     1
   7347   7359     1
   7350   7356     1
   7356   7363     1
   7356   7364     1
   7366   7375     1
   7369   7376     1
   7369   7385     1
   7372   7394     1
   7372   7379     1
   7372   7388     1
   7375   7382     1
   7375   7391     1
   7376   7388     1
   7376   7383     1
   7376   7384     1
   7379   7385     1
   7385   7392     1
   7385   7393     1
   7395   7404     1
   7398   7405     1
   7398   7414     1
   7401   7408     1
   7401   7417     1
   7401   7423     1
   7404   7411     1
   7404   7420     1
   7405   7412     1
   7405   7413     1
   7405   7417     1
   7408   7414     1
   7414   7421     1
   7414   7422     1
   7424   7433     1
   7427   7434     1
   7427   7443     1
   7430   7452     1
   7430   7437     1
   7430   7446     1
   7433   7440     1
   7433   7449     1
   7434   7446     1
   7434   7441     1
   7434   7442     1
   7437   7443     1
   7443   7450     1
   7443   7451     1
   7453   7462     1
   7456   7463     1
   7456   7472     1
   7459   7466     1
   7459   7475     1
   7459   7481     1
   7462   7469     1
   7462   7478     1
   7463   7470     1
   7463   7471     1
   7463   7475     1
   7466   7472     1
   7472   7479     1
   7472   7480     1
   7482   7491     1
   7485   7492     1
   7485   7501     1
   7488   7510     1
   7488   7495     1
   7488   7504     1
   7491   7498     1
   7491   7507     1
   7492   7504     1
   7492   7499     1
   7492   7500     1
   7495   7501     1
   7501   7508     1
   7501   7509     1
   7511   7520     1
   7514   7521     1
   7514   7530     1
   7517   7524     1
   7517   7533     1
   7517   7539     1
   7520   7527     1
   7520   7536     1
   7521   7528     1
   7521   7529     1
   7521   7533     1
   7524   7530     1
   7530   7537     1
   7530   7538     1
   7540   7549     1
   7543   7550     1
   7543   7559     1
   7546   7568     1
   7546   7553     1
   7546   7562     1
   7549   7556     1
   7549   7565     1
   7550   7562     1
   7550   7557     1
   7550   7558     1
   7553   7559     1
   7559   7566     1
   7559   7567     1
   7569   7578     1
   7572   7579     1
   7572   7588     1
   7575   7582     1
   7575   7591     1
   7575   7597     1
   7578   7585     1
   7578   7594     1
   7579   7586     1
   7579   7587     1
   7579   7591     1
   7582   7588     1
   7588   7595     1
   7588   7596     1
   7598   7607     1
   7601   7608     1
   7601   7617     1
   7604   7626     1
   7604   7611     1
   7604   7620     1
   7607   7614     1
   7607   7623     1
   7608   7620     1
   7608   7615     1
   7608   7616     1
   7611   7617     1
   7617   7624     1
   7617   7625     1
   7627   7636     1
   7630   7637     1
   7630   7646     1
   7633   7640     1
   7633   7649     1
   7633   7655     1
   7636   7643     1
   7636   7652     1
   7637   7644     1
   7637   7645     1
   7637   7649     1
   7640   7646     1
   7646   7653     1
   7646   7654     1
   7656   7665     1
   7659   7666     1
   7659   7675     1
   7662   7684     1
   7662   7669     1
   7662   7678     1
   7665   7672     1
   7665   7681     1
   7666   7678     1
   7666   7673     1
   7666   7674     1
   7669   7675     1
   7675   7682     1
   7675   7683     1
   7685   7694     1
   7688   7695     1
   7688   7704     1
   7691   7698     1
   7691   7707     1
   7691   7713     1
   7694   7701     1
   7694   7710     1
   7695   7702     1
   7695   7703     1
   7695   7707     1
   7698   7704     1
   7704   7711     1
   7704   7712     1
   7714   7723     1
   7717   7724     1
   7717   7733     1
   7720   7742     1
   7720   7727     1
   7720   7736     1
   7723   7730     1
   7723   7739     1
   7724   7736     1
   7724   7731     1
   7724   7732     1
   7727   7733     1
   7733   7740     1
   7733   7741     1
   7743   7752     1
   7746   7753     1
   7746   7762     1
   7749   7756     1
   7749   7765     1
   7749   7771     1
   7752   7759     1
   7752   7768     1
   7753   7760     1
   7753   7761     1
   7753   7765     1
   7756   7762     1
   7762   7769     1
   7762   7770     1
   7772   7781     1
   7775   7782     1
   7775   7791     1
   7778   7800     1
   7778   7785     1
   7778   7794     1
   7781   7788     1
   7781   7797     1
   7782   7794     1
   7782   7789     1
   7782   7790     1
   7785   7791     1
   7791   7798     1
   7791   7799     1
   7801   7810     1
   7804   7811     1
   7804   7820     1
   7807   7814     1
   7807   7823     1
   7807   7829     1
   7810   7817     1
   7810   7826     1
   7811   7818     1
   7811   7819     1
   7811   7823     1
   7814   7820     1
   7820   7827     1
   7820   7828     1
   7830   7839     1
   7833   7840     1
   7833   7849     1
   7836   7858     1
   7836   7843     1
   7836   7852     1
   7839   7846     1
   7839   7855     1
   7840   7852     1
   7840   7847     1
   7840   7848     1
   7843   7849     1
   7849   7856     1
   7849   7857     1
   7859   7868     1
   7862   7869     1
   7862   7878     1
   7865   7872     1
   7865   7881     1
   7865   7887     1
   7868   7875     1
   7868   7884     1
   7869   7876     1
   7869   7877     1
   7869   7881     1
   7872   7878     1
   7878   7885     1
   7878   7886     1
   7888   7897     1
   7891   7898     1
   7891   7907     1
   7894   7916     1
   7894   7901     1
   7894   7910     1
   7897   7904     1
   7897   7913     1
   7898   7910     1
   7898   7905     1
   7898   7906     1
   7901   7907     1
   7907   7914     1
   7907   7915     1
   7917   7926     1
   7920   7927     1
   7920   7936     1
   7923   7930     1
   7923   7939     1
   7923   7945     1
   7926   7933     1
   7926   7942     1
   7927   7934     1
   7927   7935     1
   7927   7939     1
   7930   7936     1
   7936   7943     1
   7936   7944     1
   7946   7955     1
   7949   7956     1
   7949   7965     1
   7952   7974     1
   7952   7959     1
   7952   7968     1
   7955   7962     1
   7955   7971     1
   7956   7968     1
   7956   7963     1
   7956   7964     1
   7959   7965     1
   7965   7972     1
   7965   7973     1
   7975   7984     1
   7978   7985     1
   7978   7994     1
   7981   7988     1
   7981   7997     1
   7981   8003     1
   7984   7991     1
   7984   8000     1
   7985   7992     1
   7985   7993     1
   7985   7997     1
   7988   7994     1
   7994   8001     1
   7994   8002     1
   8004   8013     1
   8007   8014     1
   8007   8023     1
   8010   8032     1
   8010   8017     1
   8010   8026     1
   8013   8020     1
   8013   8029     1
   8014   8026     1
   8014   8021     1
   8014   8022     1
   8017   8023     1
   8023   8030     1
   8023   8031     1
   8033   8042     1
   8036   8043     1
   8036   8052     1
   8039   8046     1
   8039   8055     1
   8039   8061     1
   8042   8049     1
   8042   8058     1
   8043   8050     1
   8043   8051     1
   8043   8055     1
   8046   8052     1
   8052   8059     1
   8052   8060     1
   8062   8071     1
   8065   8072     1
   8065   8081     1
   8068   8090     1
   8068   8075     1
   8068   8084     1
   8071   8078     1
   8071   8087     1
   8072   8084     1
   8072   8079     1
   8072   8080     1
   8075   8081     1
   8081   8088     1
   8081   8089     1
   8091   8100     1
   8094   8101     1
   8094   8110     1
   8097   8104     1
   8097   8113     1
   8097   8119     1
   8100   8107     1
   8100   8116     1
   8101   8108     1
   8101   8109     1
   8101   8113     1
   8104   8110     1
   8110   8117     1
   8110   8118     1
   8120   8129     1
   8123   8130     1
   8123   8139     1
   8126   8148     1
   8126   8133     1
   8126   8142     1
   8129   8136     1
   8129   8145     1
   8130   8142     1
   8130   8137     1
   8130   8138     1
   8133   8139     1
   8139   8146     1
   8139   8147     1
   8149   8158     1
   8152   8159     1
   8152   8168     1
   8155   8162     1
   8155   8171     1
   8155   8177     1
   8158   8165     1
   8158   8174     1
   8159   8166     1
   8159   8167     1
   8159   8171     1
   8162   8168     1
   8168   8175     1
   8168   8176     1
   8178   8187     1
   8181   8188     1
   8181   8197     1
   8184   8206     1
   8184   8191     1
   8184   8200     1
   8187   8194     1
   8187   8203     1
   8188   8200     1
   8188   8195     1
   8188   8196     1
   8191   8197     1
   8197   8204     1
   8197   8205     1
   8207   8216     1
   8210   8217     1
   8210   8226     1
   8213   8220     1
   8213   8229     1
   8213   8235     1
   8216   8223     1
   8216   8232     1
   8217   8224     1
   8217   8225     1
   8217   8229     1
   8220   8226     1
   8226   8233     1
   8226   8234     1
   8236   8245     1
   8239   8246     1
   8239   8255     1
   8242   8264     1
   8242   8249     1
   8242   8258     1
   8245   8252     1
   8245   8261     1
   8246   8258     1
   8246   8253     1
   8246   8254     1
   8249   8255     1
   8255   8262     1
   8255   8263     1
   8265   8274     1
   8268   8275     1
   8268   8284     1
   8271   8278     1
   8271   8287     1
   8271   8293     1
   8274   8281     1
   8274   8290     1
   8275   8282     1
   8275   8283     1
   8275   8287     1
   8278   8284     1
   8284   8291     1
   8284   8292     1
   8294   8303     1
   8297   8304     1
   8297   8313     1
   8300   8322     1
   8300   8307     1
   8300   8316     1
   8303   8310     1
   8303   8319     1
   8304   8316     1
   8304   8311     1
   8304   8312     1
   8307   8313     1
   8313   8320     1
   8313   8321     1
   8323   8332     1
   8326   8333     1
   8326   8342     1
   8329   8336     1
   8329   8345     1
   8329   8351     1
   8332   8339     1
   8332   8348     1
   8333   8340     1
   8333   8341     1
   8333   8345     1
   8336   8342     1
   8342   8349     1
   8342   8350     1
   8352   8361     1
   8355   8362     1
   8355   8371     1
   8358   8380     1
   8358   8365     1
   8358   8374     1
   8361   8368     1
   8361   8377     1
   8362   8374     1
   8362   8369     1
   8362   8370     1
   8365   8371     1
   8371   8378     1
   8371   8379     1
   8381   8390     1
   8384   8391     1
   8384   8400     1
   8387   8394     1
   8387   8403     1
   8387   8409     1
   8390   8397     1
   8390   8406     1
   8391   8398     1
   8391   8399     1
   8391   8403     1
   8394   8400     1
   8400   8407     1
   8400   8408     1
   8410   8419     1
   8413   8420     1
   8413   8429     1
   8416   8438     1
   8416   8423     1
   8416   8432     1
   8419   8426     1
   8419   8435     1
   8420   8432     1
   8420   8427     1
   8420   8428     1
   8423   8429     1
   8429   8436     1
   8429   8437     1
   8439   8448     1
   8442   8449     1
   8442   8458     1
   8445   8452     1
   8445   8461     1
   8445   8467     1
   8448   8455     1
   8448   8464     1
   8449   8456     1
   8449   8457     1
   8449   8461     1
   8452   8458     1
   8458   8465     1
   8458   8466     1
   8468   8477     1
   8471   8478     1
   8471   8487     1
   8474   8496     1
   8474   8481     1
   8474   8490     1
   8477   8484     1
   8477   8493     1
   8478   8490     1
   8478   8485     1
   8478   8486     1
   8481   8487     1
   8487   8494     1
   8487   8495     1
   8497   8506     1
   8500   8507     1
   8500   8516     1
   8503   8510     1
   8503   8519     1
   8503   8525     1
   8506   8513     1
   8506   8522     1
   8507   8514     1
   8507   8515     1
   8507   8519     1
   8510   8516     1
   8516   8523     1
   8516   8524     1
   8526   8535     1
   8529   8536     1
   8529   8545     1
   8532   8554     1
   8532   8539     1
   8532   8548     1
   8535   8542     1
   8535   8551     1
   8536   8548     1
   8536   8543     1
   8536   8544     1
   8539   8545     1
   8545   8552     1
   8545   8553     1
   8555   8564     1
   8558   8565     1
   8558   8574     1
   8561   8568     1
   8561   8577     1
   8561   8583     1
   8564   8571     1
   8564   8580     1
   8565   8572     1
   8565   8573     1
   8565   8577     1
   8568   8574     1
   8574   8581     1
   8574   8582     1
   8584   8593     1
   8587   8594     1
   8587   8603     1
   8590   8612     1
   8590   8597     1
   8590   8606     1
   8593   8600     1
   8593   8609     1
   8594   8606     1
   8594   8601     1
   8594   8602     1
   8597   8603     1
   8603   8610     1
   8603   8611     1
   8613   8622     1
   8616   8623     1
   8616   8632     1
   8619   8626     1
   8619   8635     1
   8619   8641     1
   8622   8629     1
   8622   8638     1
   8623   8630     1
   8623   8631     1
   8623   8635     1
   8626   8632     1
   8632   8639     1
   8632   8640     1
   8642   8651     1
   8645   8652     1
   8645   8661     1
   8648   8670     1
   8648   8655     1
   8648   8664     1
   8651   8658     1
   8651   8667     1
   8652   8664     1
   8652   8659     1
   8652   8660     1
   8655   8661     1
   8661   8668     1
   8661   8669     1
   8671   8680     1
   8674   8681     1
   8674   8690     1
   8677   8684     1
   8677   8693     1
   8677   8699     1
   8680   8687     1
   8680   8696     1
   8681   8688     1
   8681   8689     1
   8681   8693     1
   8684   8690     1
   8690   8697     1
   8690   8698     1
   8700   8709     1
   8703   8710     1
   8703   8719     1
   8706   8728     1
   8706   8713     1
   8706   8722     1
   8709   8716     1
   8709   8725     1
   8710   8722     1
   8710   8717     1
   8710   8718     1
   8713   8719     1
   8719   8726     1
   8719   8727     1
   8729   8738     1
   8732   8739     1
   8732   8748     1
   8735   8742     1
   8735   8751     1
   8735   8757     1
   8738   8745     1
   8738   8754     1
   8739   8746     1
   8739   8747     1
   8739   8751     1
   8742   8748     1
   8748   8755     1
   8748   8756     1
   8758   8767     1
   8761   8768     1
   8761   8777     1
   8764   8786     1
   8764   8771     1
   8764   8780     1
   8767   8774     1
   8767   8783     1
   8768   8780     1
   8768   8775     1
   8768   8776     1
   8771   8777     1
   8777   8784     1
   8777   8785     1
   8787   8796     1
   8790   8797     1
   8790   8806     1
   8793   8800     1
   8793   8809     1
   8793   8815     1
   8796   8803     1
   8796   8812     1
   8797   8804     1
   8797   8805     1
   8797   8809     1
   8800   8806     1
   8806   8813     1
   8806   8814     1
   8816   8825     1
   8819   8826     1
   8819   8835     1
   8822   8844     1
   8822   8829     1
   8822   8838     1
   8825   8832     1
   8825   8841     1
   8826   8838     1
   8826   8833     1
   8826   8834     1
   8829   8835     1
   8835   8842     1
   8835   8843     1
   8845   8854     1
   8848   8855     1
   8848   8864     1
   8851   8858     1
   8851   8867     1
   8851   8873     1
   8854   8861     1
   8854   8870     1
   8855   8862     1
   8855   8863     1
   8855   8867     1
   8858   8864     1
   8864   8871     1
   8864   8872     1
   8874   8883     1
   8877   8884     1
   8877   8893     1
   8880   8902     1
   8880   8887     1
   8880   8896     1
   8883   8890     1
   8883   8899     1
   8884   8896     1
   8884   8891     1
   8884   8892     1
   8887   8893     1
   8893   8900     1
   8893   8901     1
   8903   8912     1
   8906   8913     1
   8906   8922     1
   8909   8916     1
   8909   8925     1
   8909   8931     1
   8912   8919     1
   8912   8928     1
   8913   8920     1
   8913   8921     1
   8913   8925     1
   8916   8922     1
   8922   8929     1
   8922   8930     1
   8932   8941     1
   8935   8942     1
   8935   8951     1
   8938   8960     1
   8938   8945     1
   8938   8954     1
   8941   8948     1
   8941   8957     1
   8942   8954     1
   8942   8949     1
   8942   8950     1
   8945   8951     1
   8951   8958     1
   8951   8959     1
   8961   8970     1
   8964   8971     1
   8964   8980     1
   8967   8974     1
   8967   8983     1
   8967   8989     1
   8970   8977     1
   8970   8986     1
   8971   8978     1
   8971   8979     1
   8971   8983     1
   8974   8980     1
   8980   8987     1
   8980   8988     1
   8990   8999     1
   8993   9000     1
   8993   9009     1
   8996   9018     1
   8996   9003     1
   8996   9012     1
   8999   9006     1
   8999   9015     1
   9000   9012     1
   9000   9007     1
   9000   9008     1
   9003   9009     1
   9009   9016     1
   9009   9017     1
   9019   9028     1
   9022   9029     1
   9022   9038     1
   9025   9032     1
   9025   9041     1
   9025   9047     1
   9028   9035     1
   9028   9044     1
   9029   9036     1
   9029   9037     1
   9029   9041     1
   9032   9038     1
   9038   9045     1
   9038   9046     1
   9048   9057     1
   9051   9058     1
   9051   9067     1
   9054   9076     1
   9054   9061     1
   9054   9070     1
   9057   9064     1
   9057   9073     1
   9058   9070     1
   9058   9065     1
   9058   9066     1
   9061   9067     1
   9067   9074     1
   9067   9075     1
   9077   9086     1
   9080   9087     1
   9080   9096     1
   9083   9090     1
   9083   9099     1
   9083   9105     1
   9086   9093     1
   9086   9102     1
   9087   9094     1
   9087   9095     1
   9087   9099     1
   9090   9096     1
   9096   9103     1
   9096   9104     1
   9106   9115     1
   9109   9116     1
   9109   9125     1
   9112   9134     1
   9112   9119     1
   9112   9128     1
   9115   9122     1
   9115   9131     1
   9116   9128     1
   9116   9123     1
   9116   9124     1
   9119   9125     1
   9125   9132     1
   9125   9133     1
   9135   9144     1
   9138   9145     1
   9138   9154     1
   9141   9148     1
   9141   9157     1
   9141   9163     1
   9144   9151     1
   9144   9160     1
   9145   9152     1
   9145   9153     1
   9145   9157     1
   9148   9154     1
   9154   9161     1
   9154   9162     1
   9164   9173     1
   9167   9174     1
   9167   9183     1
   9170   9192     1
   9170   9177     1
   9170   9186     1
   9173   9180     1
   9173   9189     1
   9174   9186     1
   9174   9181     1
   9174   9182     1
   9177   9183     1
   9183   9190     1
   9183   9191     1
   9193   9202     1
   9196   9203     1
   9196   9212     1
   9199   9206     1
   9199   9215     1
   9199   9221     1
   9202   9209     1
   9202   9218     1
   9203   9210     1
   9203   9211     1
   9203   9215     1
   9206   9212     1
   9212   9219     1
   9212   9220     1
   9222   9231     1
   9225   9232     1
   9225   9241     1
   9228   9250     1
   9228   9235     1
   9228   9244     1
   9231   9238     1
   9231   9247     1
   9232   9244     1
   9232   9239     1
   9232   9240     1
   9235   9241     1
   9241   9248     1
   9241   9249     1
   9251   9260     1
   9254   9261     1
   9254   9270     1
   9257   9264     1
   9257   9273     1
   9257   9279     1
   9260   9267     1
   9260   9276     1
   9261   9268     1
   9261   9269     1
   9261   9273     1
   9264   9270     1
   9270   9277     1
   9270   9278     1
   9280   9289     1
   9283   9290     1
   9283   9299     1
   9286   9308     1
   9286   9293     1
   9286   9302     1
   9289   9296     1
   9289   9305     1
   9290   9302     1
   9290   9297     1
   9290   9298     1
   9293   9299     1
   9299   9306     1
   9299   9307     1
   9309   9318     1
   9312   9319     1
   9312   9328     1
   9315   9322     1
   9315   9331     1
   9315   9337     1
   9318   9325     1
   9318   9334     1
   9319   9326     1
   9319   9327     1
   9319   9331     1
   9322   9328     1
   9328   9335     1
   9328   9336     1
   9338   9347     1
   9341   9348     1
   9341   9357     1
   9344   9366     1
   9344   9351     1
   9344   9360     1
   9347   9354     1
   9347   9363     1
   9348   9360     1
   9348   9355     1
   9348   9356     1
   9351   9357     1
   9357   9364     1
   9357   9365     1
   9367   9376     1
   9370   9377     1
   9370   9386     1
   9373   9380     1
   9373   9389     1
   9373   9395     1
   9376   9383     1
   9376   9392     1
   9377   9384     1
   9377   9385     1
   9377   9389     1
   9380   9386     1
   9386   9393     1
   9386   9394     1
   9396   9405     1
   9399   9406     1
   9399   9415     1
   9402   9424     1
   9402   9409     1
   9402   9418     1
   9405   9412     1
   9405   9421     1
   9406   9418     1
   9406   9413     1
   9406   9414     1
   9409   9415     1
   9415   9422     1
   9415   9423     1
   9425   9434     1
   9428   9435     1
   9428   9444     1
   9431   9438     1
   9431   9447     1
   9431   9453     1
   9434   9441     1
   9434   9450     1
   9435   9442     1
   9435   9443     1
   9435   9447     1
   9438   9444     1
   9444   9451     1
   9444   9452     1
   9454   9463     1
   9457   9464     1
   9457   9473     1
   9460   9482     1
   9460   9467     1
   9460   9476     1
   9463   9470     1
   9463   9479     1
   9464   9476     1
   9464   9471     1
   9464   9472     1
   9467   9473     1
   9473   9480     1
   9473   9481     1
   9483   9492     1
   9486   9493     1
   9486   9502     1
   9489   9496     1
   9489   9505     1
   9489   9511     1
   9492   9499     1
   9492   9508     1
   9493   9500     1
   9493   9501     1
   9493   9505     1
   9496   9502     1
   9502   9509     1
   9502   9510     1
   9512   9521     1
   9515   9522     1
   9515   9531     1
   9518   9540     1
   9518   9525     1
   9518   9534     1
   9521   9528     1
   9521   9537     1
   9522   9534     1
   9522   9529     1
   9522   9530     1
   9525   9531     1
   9531   9538     1
   9531   9539     1
   9541   9550     1
   9544   9551     1
   9544   9560     1
   9547   9554     1
   9547   9563     1
   9547   9569     1
   9550   9557     1
   9550   9566     1
   9551   9558     1
   9551   9559     1
   9551   9563     1
   9554   9560     1
   9560   9567     1
   9560   9568     1
   9570   9579     1
   9573   9580     1
   9573   9589     1
   9576   9598     1
   9576   9583     1
   9576   9592     1
   9579   9586     1
   9579   9595     1
   9580   9592     1
   9580   9587     1
   9580   9588     1
   9583   9589     1
   9589   9596     1
   9589   9597     1
   9599   9608     1
   9602   9609     1
   9602   9618     1
   9605   9612     1
   9605   9621     1
   9605   9627     1
   9608   9615     1
   9608   9624     1
   9609   9616     1
   9609   9617     1
   9609   9621     1
   9612   9618     1
   9618   9625     1
   9618   9626     1
   9628   9637     1
   9631   9638     1
   9631   9647     1
   9634   9656     1
   9634   9641     1
   9634   9650     1
   9637   9644     1
   9637   9653     1
   9638   9650     1
   9638   9645     1
   9638   9646     1
   9641   9647     1
   9647   9654     1
   9647   9655     1
   9657   9666     1
   9660   9667     1
   9660   9676     1
   9663   9670     1
   9663   9679     1
   9663   9685     1
   9666   9673     1
   9666   9682     1
   9667   9674     1
   9667   9675     1
   9667   9679     1
   9670   9676     1
   9676   9683     1
   9676   9684     1
   9686   9695     1
   9689   9696     1
   9689   9705     1
   9692   9714     1
   9692   9699     1
   9692   9708     1
   9695   9702     1
   9695   9711     1
   9696   9708     1
   9696   9703     1
   9696   9704     1
   9699   9705     1
   9705   9712     1
   9705   9713     1
   9715   9724     1
   9718   9725     1
   9718   9734     1
   9721   9728     1
   9721   9737     1
   9721   9743     1
   9724   9731     1
   9724   9740     1
   9725   9732     1
   9725   9733     1
   9725   9737     1
   9728   9734     1
   9734   9741     1
   9734   9742     1
   9744   9753     1
   9747   9754     1
   9747   9763     1
   9750   9772     1
   9750   9757     1
   9750   9766     1
   9753   9760     1
   9753   9769     1
   9754   9766     1
   9754   9761     1
   9754   9762     1
   9757   9763     1
   9763   9770     1
   9763   9771     1
   9773   9782     1
   9776   9783     1
   9776   9792     1
   9779   9786     1
   9779   9795     1
   9779   9801     1
   9782   9789     1
   9782   9798     1
   9783   9790     1
   9783   9791     1
   9783   9795     1
   9786   9792     1
   9792   9799     1
   9792   9800     1
   9802   9811     1
   9805   9812     1
   9805   9821     1
   9808   9830     1
   9808   9815     1
   9808   9824     1
   9811   9818     1
   9811   9827     1
   9812   9824     1
   9812   9819     1
   9812   9820     1
   9815   9821     1
   9821   9828     1
   9821   9829     1
   9831   9840     1
   9834   9841     1
   9834   9850     1
   9837   9844     1
   9837   9853     1
   9837   9859     1
   9840   9847     1
   9840   9856     1
   9841   9848     1
   9841   9849     1
   9841   9853     1
   9844   9850     1
   9850   9857     1
   9850   9858     1
   9860   9869     1
   9863   9870     1
   9863   9879     1
   9866   9888     1
   9866   9873     1
   9866   9882     1
   9869   9876     1
   9869   9885     1
   9870   9882     1
   9870   9877     1
   9870   9878     1
   9873   9879     1
   9879   9886     1
   9879   9887     1
   9889   9898     1
   9892   9899     1
   9892   9908     1
   9895   9902     1
   9895   9911     1
   9895   9917     1
   9898   9905     1
   9898   9914     1
   9899   9906     1
   9899   9907     1
   9899   9911     1
   9902   9908     1
   9908   9915     1
   9908   9916     1
   9918   9927     1
   9921   9928     1
   9921   9937     1
   9924   9946     1
   9924   9931     1
   9924   9940     1
   9927   9934     1
   9927   9943     1
   9928   9940     1
   9928   9935     1
   9928   9936     1
   9931   9937     1
   9937   9944     1
   9937   9945     1
   9947   9956     1
   9950   9957     1
   9950   9966     1
   9953   9960     1
   9953   9969     1
   9953   9975     1
   9956   9963     1
   9956   9972     1
   9957   9964     1
   9957   9965     1
   9957   9969     1
   9960   9966     1
   9966   9973     1
   9966   9974     1
   9976   9985     1
   9979   9986     1
   9979   9995     1
   9982  10004     1
   9982   9989     1
   9982   9998     1
   9985   9992     1
   9985  10001     1
   9986   9998     1
   9986   9993     1
   9986   9994     1
   9989   9995     1
   9995  10002     1
   9995  10003     1
  10005  10014     1
  10008  10015     1
  10008  10024     1
  10011  10018     1
  10011  10027     1
  10011  10033     1
  10014  10021     1
  10014  10030     1
  10015  10022     1
  10015  10023     1
  10015  10027     1
  10018  10024     1
  10024  10031     1
  10024  10032     1
  10034  10043     1
  10037  10044     1
  10037  10053     1
  10040  10062     1
  10040  10047     1
  10040  10056     1
  10043  10050     1
  10043  10059     1
  10044  10056     1
  10044  10051     1
  10044  10052     1
  10047  10053     1
  10053  10060     1
  10053  10061     1
  10063  10072     1
  10066  10073     1
  10066  10082     1
  10069  10076     1
  10069  10085     1
  10069  10091     1
  10072  10079     1
  10072  10088     1
  10073  10080     1
  10073  10081     1
  10073  10085     1
  10076  10082     1
  10082  10089     1
  10082  10090     1
  10092  10101     1
  10095  10102     1
  10095  10111     1
  10098  10120     1
  10098  10105     1
  10098  10114     1
  10101  10108     1
  10101  10117     1
  10102  10114     1
  10102  10109     1
  10102  10110     1
  10105  10111     1
  10111  10118     1
  10111  10119     1
  10121  10130     1
  10124  10131     1
  10124  10140     1
  10127  10134     1
  10127  10143     1
  10127  10149     1
  10130  10137     1
  10130  10146     1
  10131  10138     1
  10131  10139     1
  10131  10143     1
  10134  10140     1
  10140  10147     1
  10140  10148     1
  10150  10159     1
  10153  10160     1
  10153  10169     1
  10156  10178     1
  10156  10163     1
  10156  10172     1
  10159  10166     1
  10159  10175     1
  10160  10172     1
  10160  10167     1
  10160  10168     1
  10163  10169     1
  10169  10176     1
  10169  10177     1
  10179  10188     1
  10182  10189     1
  10182  10198     1
  10185  10192     1
  10185  10201     1
  10185  10207     1
  10188  10195     1
  10188  10204     1
  10189  10196     1
  10189  10197     1
  10189  10201     1
  10192  10198     1
  10198  10205     1
  10198  10206     1
  10208  10217     1
  10211  10218     1
  10211  10227     1
  10214  10236     1
  10214  10221     1
  10214  10230     1
  10217  10224     1
  10217  10233     1
  10218  10230     1
  10218  10225     1
  10218  10226     1
  10221  10227     1
  10227  10234     1
  10227  10235     1
  10237  10246     1
  10240  10247     1
  10240  10256     1
  10243  10250     1
  10243  10259     1
  10243  10265     1
  10246  10253     1
  10246  10262     1
  10247  10254     1
  10247  10255     1
  10247  10259     1
  10250  10256     1
  10256  10263     1
  10256  10264     1
  10266  10275     1
  10269  10276     1
  10269  10285     1
  10272  10294     1
  10272  10279     1
  10272  10288     1
  10275  10282     1
  10275  10291     1
  10276  10288     1
  10276  10283     1
  10276  10284     1
  10279  10285     1
  10285  10292     1
  10285  10293     1
  10295  10304     1
  10298  10305     1
  10298  10314     1
  10301  10308     1
  10301  10317     1
  10301  10323     1
  10304  10311     1
  10304  10320     1
  10305  10312     1
  10305  10313     1
  10305  10317     1
  10308  10314     1
  10314  10321     1
  10314  10322     1
  10324  10333     1
  10327  10334     1
  10327  10343     1
  10330  10352     1
  10330  10337     1
  10330  10346     1
  10333  10340     1
  10333  10349     1
  10334  10346     1
  10334  10341     1
  10334  10342     1
  10337  10343     1
  10343  10350     1
  10343  10351     1
  10353  10362     1
  10356  10363     1
  10356  10372     1
  10359  10366     1
  10359  10375     1
  10359  10381     1
  10362  10369     1
  10362  10378     1
  10363  10370     1
  10363  10371     1
  10363  10375     1
  10366  10372     1
  10372  10379     1
  10372  10380     1
  10382  10391     1
  10385  10392     1
  10385  10401     1
  10388  10410     1
  10388  10395     1
  10388  10404     1
  10391  10398     1
  10391  10407     1
  10392  10404     1
  10392  10399     1
  10392  10400     1
  10395  10401     1
  10401  10408     1
  10401  10409     1
  10411  10420     1
  10414  10421     1
  10414  10430     1
  10417  10424     1
  10417  10433     1
  10417  10439     1
  10420  10427     1
  10420  10436     1
  10421  10428     1
  10421  10429     1
  10421  10433     1
  10424  10430     1
  10430  10437     1
  10430  10438     1
  10440  10449     1
  10443  10450     1
  10443  10459     1
  10446  10468     1
  10446  10453     1
  10446  10462     1
  10449  10456     1
  10449  10465     1
  10450  10462     1
  10450  10457     1
  10450  10458     1
  10453  10459     1
  10459  10466     1
  10459  10467     1
  10469  10478     1
  10472  10479     1
  10472  10488     1
  10475  10482     1
  10475  10491     1
  10475  10497     1
  10478  10485     1
  10478  10494     1
  10479  10486     1
  10479  10487     1
  10479  10491     1
  10482  10488     1
  10488  10495     1
  10488  10496     1
  10498  10507     1
  10501  10508     1
  10501  10517     1
  10504  10526     1
  10504  10511     1
  10504  10520     1
  10507  10514     1
  10507  10523     1
  10508  10520     1
  10508  10515     1
  10508  10516     1
  10511  10517     1
  10517  10524     1
  10517  10525     1
  10527  10536     1
  10530  10537     1
  10530  10546     1
  10533  10540     1
  10533  10549     1
  10533  10555     1
  10536  10543     1
  10536  10552     1
  10537  10544     1
  10537  10545     1
  10537  10549     1
  10540  10546     1
  10546  10553     1
  10546  10554     1
  10556  10565     1
  10559  10566     1
  10559  10575     1
  10562  10584     1
  10562  10569     1
  10562  10578     1
  10565  10572     1
  10565  10581     1
  10566  10578     1
  10566  10573     1
  10566  10574     1
  10569  10575     1
  10575  10582     1
  10575  10583     1
  10585  10594     1
  10588  10595     1
  10588  10604     1
  10591  10598     1
  10591  10607     1
  10591  10613     1
  10594  10601     1
  10594  10610     1
  10595  10602     1
  10595  10603     1
  10595  10607     1
  10598  10604     1
  10604  10611     1
  10604  10612     1
  10614  10623     1
  10617  10624     1
  10617  10633     1
  10620  10642     1
  10620  10627     1
  10620  10636     1
  10623  10630     1
  10623  10639     1
  10624  10636     1
  10624  10631     1
  10624  10632     1
  10627  10633     1
  10633  10640     1
  10633  10641     1
  10643  10652     1
  10646  10653     1
  10646  10662     1
  10649  10656     1
  10649  10665     1
  10649  10671     1
  10652  10659     1
  10652  10668     1
  10653  10660     1
  10653  10661     1
  10653  10665     1
  10656  10662     1
  10662  10669     1
  10662  10670     1
  10672  10681     1
  10675  10682     1
  10675  10691     1
  10678  10700     1
  10678  10685     1
  10678  10694     1
  10681  10688     1
  10681  10697     1
  10682  10694     1
  10682  10689     1
  10682  10690     1
  10685  10691     1
  10691  10698     1
  10691  10699     1
  10701  10710     1
  10704  10711     1
  10704  10720     1
  10707  10714     1
  10707  10723     1
  10707  10729     1
  10710  10717     1
  10710  10726     1
  10711  10718     1
  10711  10719     1
  10711  10723     1
  10714  10720     1
  10720  10727     1
  10720  10728     1
  10730  10739     1
  10733  10740     1
  10733  10749     1
  10736  10758     1
  10736  10743     1
  10736  10752     1
  10739  10746     1
  10739  10755     1
  10740  10752     1
  10740  10747     1
  10740  10748     1
  10743  10749     1
  10749  10756     1
  10749  10757     1
  10759  10768     1
  10762  10769     1
  10762  10778     1
  10765  10772     1
  10765  10781     1
  10765  10787     1
  10768  10775     1
  10768  10784     1
  10769  10776     1
  10769  10777     1
  10769  10781     1
  10772  10778     1
  10778  10785     1
  10778  10786     1
  10788  10797     1
  10791  10798     1
  10791  10807     1
  10794  10816     1
  10794  10801     1
  10794  10810     1
  10797  10804     1
  10797  10813     1
  10798  10810     1
  10798  10805     1
  10798  10806     1
  10801  10807     1
  10807  10814     1
  10807  10815     1
  10817  10826     1
  10820  10827     1
  10820  10836     1
  10823  10830     1
  10823  10839     1
  10823  10845     1
  10826  10833     1
  10826  10842     1
  10827  10834     1
  10827  10835     1
  10827  10839     1
  10830  10836     1
  10836  10843     1
  10836  10844     1
  10846  10855     1
  10849  10856     1
  10849  10865     1
  10852  10874     1
  10852  10859     1
  10852  10868     1
  10855  10862     1
  10855  10871     1
  10856  10868     1
  10856  10863     1
  10856  10864     1
  10859  10865     1
  10865  10872     1
  10865  10873     1
  10875  10884     1
  10878  10885     1
  10878  10894     1
  10881  10888     1
  10881  10897     1
  10881  10903     1
  10884  10891     1
  10884  10900     1
  10885  10892     1
  10885  10893     1
  10885  10897     1
  10888  10894     1
  10894  10901     1
  10894  10902     1
  10904  10913     1
  10907  10914     1
  10907  10923     1
  10910  10932     1
  10910  10917     1
  10910  10926     1
  10913  10920     1
  10913  10929     1
  10914  10926     1
  10914  10921     1
  10914  10922     1
  10917  10923     1
  10923  10930     1
  10923  10931     1
  10933  10942     1
  10936  10943     1
  10936  10952     1
  10939  10946     1
  10939  10955     1
  10939  10961     1
  10942  10949     1
  10942  10958     1
  10943  10950     1
  10943  10951     1
  10943  10955     1
  10946  10952     1
  10952  10959     1
  10952  10960     1
  10962  10971     1
  10965  10972     1
  10965  10981     1
  10968  10990     1
  10968  10975     1
  10968  10984     1
  10971  10978     1
  10971  10987     1
  10972  10984     1
  10972  10979     1
  10972  10980     1
  10975  10981     1
  10981  10988     1
  10981  10989     1
  10991  11000     1
  10994  11001     1
  10994  11010     1
  10997  11004     1
  10997  11013     1
  10997  11019     1
  11000  11007     1
  11000  11016     1
  11001  11008     1
  11001  11009     1
  11001  11013     1
  11004  11010     1
  11010  11017     1
  11010  11018     1
  11020  11029     1
  11023  11030     1
  11023  11039     1
  11026  11048     1
  11026  11033     1
  11026  11042     1
  11029  11036     1
  11029  11045     1
  11030  11042     1
  11030  11037     1
  11030  11038     1
  11033  11039     1
  11039  11046     1
  11039  11047     1
  11049  11058     1
  11052  11059     1
  11052  11068     1
  11055  11062     1
  11055  11071     1
  11055  11077     1
  11058  11065     1
  11058  11074     1
  11059  11066     1
  11059  11067     1
  11059  11071     1
  11062  11068     1
  11068  11075     1
  11068  11076     1
      1     15     1
      1     16     1
      1     18     1
      1     19     1
      1     12     1
      1     13     1
      2      6     1
      2      7     1
      2      9     1
      2     10     1
      2     27     1
      2     28     1
      5      3     1
      8      3     1
      3     26     1
      3     15     1
      3     16     1
      5      4     1
      8      4     1
      4     26     1
      4     15     1
      4     16     1
      5      9     1
      5     10     1
      5     21     1
      5     22     1
      8      6     1
      6     20     1
      6     18     1
      6     19     1
      8      7     1
      7     20     1
      7     18     1
      7     19     1
      8     24     1
      8     25     1
      9     23     1
      9     12     1
      9     13     1
     10     23     1
     10     12     1
     10     13     1
     12     86     1
     12     24     1
     12     25     1
     13     86     1
     13     24     1
     13     25     1
     15    115     1
     15     27     1
     15     28     1
     16    115     1
     16     27     1
     16     28     1
     18     57     1
     18     21     1
     18     22     1
     19     57     1
     19     21     1
     19     22     1
     20     49     1
     20     50     1
     21     48     1
     22     48     1
     23     78     1
     23     79     1
     24     77     1
     25     77     1
     26    107     1
     26    108     1
     27    106     1
     28    106     1
     29     43     1
     29     44     1
     29     46     1
     29     47     1
     29     40     1
     29     41     1
     30     34     1
     30     35     1
     30     37     1
     30     38     1
     30     55     1
     30     56     1
     31     33     1
     31     36     1
     31     54     1
     31     43     1
     31     44     1
     32     33     1
     32     36     1
     32     54     1
     32     43     1
     32     44     1
     33     37     1
     33     38     1
     33     52     1
     33     53     1
     34     36     1
     34     51     1
     34     46     1
     34     47     1
     35     36     1
     35     51     1
     35     46     1
     35     47     1
     36     49     1
     36     50     1
     37     48     1
     37     40     1
     37     41     1
     38     48     1
     38     40     1
     38     41     1
     40     57     1
     40     49     1
     40     50     1
     41     57     1
     41     49     1
     41     50     1
     43    173     1
     43     55     1
     43     56     1
     44    173     1
     44     55     1
     44     56     1
     46    144     1
     46     52     1
     46     53     1
     47    144     1
     47     52     1
     47     53     1
     51    136     1
     51    137     1
     52    135     1
     53    135     1
     54    165     1
     54    166     1
     55    164     1
     56    164     1
     58     72     1
     58     73     1
     58     75     1
     58     76     1
     58     69     1
     58     70     1
     59     63     1
     59     64     1
     59     66     1
     59     67     1
     59     84     1
     59     85     1
     60     62     1
     60     65     1
     60     83     1
     60     72     1
     60     73     1
     61     62     1
     61     65     1
     61     83     1
     61     72     1
     61     73     1
     62     66     1
     62     67     1
     62     81     1
     62     82     1
     63     65     1
     63     80     1
     63     75     1
     63     76     1
     64     65     1
     64     80     1
     64     75     1
     64     76     1
     65     78     1
     65     79     1
     66     77     1
     66     69     1
     66     70     1
     67     77     1
     67     69     1
     67     70     1
     69     86     1
     69     78     1
     69     79     1
     70     86     1
     70     78     1
     70     79     1
     72    231     1
     72     84     1
     72     85     1
     73    231     1
     73     84     1
     73     85     1
     75    202     1
     75     81     1
     75     82     1
     76    202     1
     76     81     1
     76     82     1
     80    194     1
     80    195     1
     81    193     1
     82    193     1
     83    223     1
     83    224     1
     84    222     1
     85    222     1
     87    101     1
     87    102     1
     87    104     1
     87    105     1
     87     98     1
     87     99     1
     88     92     1
     88     93     1
     88     95     1
     88     96     1
     88    113     1
     88    114     1
     89     91     1
     89     94     1
     89    112     1
     89    101     1
     89    102     1
     90     91     1
     90     94     1
     90    112     1
     90    101     1
     90    102     1
     91     95     1
     91     96     1
     91    110     1
     91    111     1
     92     94     1
     92    109     1
     92    104     1
     92    105     1
     93     94     1
     93    109     1
     93    104     1
     93    105     1
     94    107     1
     94    108     1
     95    106     1
     95     98     1
     95     99     1
     96    106     1
     96     98     1
     96     99     1
     98    115     1
     98    107     1
     98    108     1
     99    115     1
     99    107     1
     99    108     1
    101    289     1
    101    113     1
    101    114     1
    102    289     1
    102    113     1
    102    114     1
    104    260     1
    104    110     1
    104    111     1
    105    260     1
    105    110     1
    105    111     1
    109    252     1
    109    253     1
    110    251     1
    111    251     1
    112    281     1
    112    282     1
    113    280     1
    114    280     1
    116    130     1
    116    131     1
    116    133     1
    116    134     1
    116    127     1
    116    128     1
    117    121     1
    117    122     1
    117    124     1
    117    125     1
    117    142     1
    117    143     1
    118    120     1
    118    123     1
    118    141     1
    118    130     1
    118    131     1
    119    120     1
    119    123     1
    119    141     1
    119    130     1
    119    131     1
    120    124     1
    120    125     1
    120    139     1
    120    140     1
    121    123     1
    121    138     1
    121    133     1
    121    134     1
    122    123     1
    122    138     1
    122    133     1
    122    134     1
    123    136     1
    123    137     1
    124    135     1
    124    127     1
    124    128     1
    125    135     1
    125    127     1
    125    128     1
    127    144     1
    127    136     1
    127    137     1
    128    144     1
    128    136     1
    128    137     1
    130    347     1
    130    142     1
    130    143     1
    131    347     1
    131    142     1
    131    143     1
    133    318     1
    133    139     1
    133    140     1
    134    318     1
    134    139     1
    134    140     1
    138    310     1
    138    311     1
    139    309     1
    140    309     1
    141    339     1
    141    340     1
    142    338     1
    143    338     1
    145    159     1
    145    160     1
    145    162     1
    145    163     1
    145    156     1
    145    157     1
    146    150     1
    146    151     1
    146    153     1
    146    154     1
    146    171     1
    146    172     1
    147    149     1
    147    152     1
    147    170     1
    147    159     1
    147    160     1
    148    149     1
    148    152     1
    148    170     1
    148    159     1
    148    160     1
    149    153     1
    149    154     1
    149    168     1
    149    169     1
    150    152     1
    150    167     1
    150    162     1
    150    163     1
    151    152     1
    151    167     1
    151    162     1
    151    163     1
    152    165     1
    152    166     1
    153    164     1
    153    156     1
    153    157     1
    154    164     1
    154    156     1
    154    157     1
    156    173     1
    156    165     1
    156    166     1
    157    173     1
    157    165     1
    157    166     1
    159    405     1
    159    171     1
    159    172     1
    160    405     1
    160    171     1
    160    172     1
    162    376     1
    162    168     1
    162    169     1
    163    376     1
    163    168     1
    163    169     1
    167    368     1
    167    369     1
    168    367     1
    169    367     1
    170    397     1
    170    398     1
    171    396     1
    172    396     1
    174    188     1
    174    189     1
    174    191     1
    174    192     1
    174    185     1
    174    186     1
    175    179     1
    175    180     1
    175    182     1
    175    183     1
    175    200     1
    175    201     1
    176    178     1
    176    181     1
    176    199     1
    176    188     1
    176    189     1
    177    178     1
    177    181     1
    177    199     1
    177    188     1
    177    189     1
    178    182     1
    178    183     1
    178    197     1
    178    198     1
    179    181     1
    179    196     1
    179    191     1
    179    192     1
    180    181     1
    180    196     1
    180    191     1
    180    192     1
    181    194     1
    181    195     1
    182    193     1
    182    185     1
    182    186     1
    183    193     1
    183    185     1
    183    186     1
    185    202     1
    185    194     1
    185    195     1
    186    202     1
    186    194     1
    186    195     1
    188    463     1
    188    200     1
    188    201     1
    189    463     1
    189    200     1
    189    201     1
    191    434     1
    191    197     1
    191    198     1
    192    434     1
    192    197     1
    192    198     1
    196    426     1
    196    427     1
    197    425     1
    198    425     1
    199    455     1
    199    456     1
    200    454     1
    201    454     1
    203    217     1
    203    218     1
    203    220     1
    203    221     1
    203    214     1
    203    215     1
    204    208     1
    204    209     1
    204    211     1
    204    212     1
    204    229     1
    204    230     1
    205    207     1
    205    210     1
    205    228     1
    205    217     1
    205    218     1
    206    207     1
    206    210     1
    206    228     1
    206    217     1
    206    218     1
    207    211     1
    207    212     1
    207    226     1
    207    227     1
    208    210     1
    208    225     1
    208    220     1
    208    221     1
    209    210     1
    209    225     1
    209    220     1
    209    221     1
    210    223     1
    210    224     1
    211    222     1
    211    214     1
    211    215     1
    212    222     1
    212    214     1
    212    215     1
    214    231     1
    214    223     1
    214    224     1
    215    231     1
    215    223     1
    215    224     1
    217    521     1
    217    229     1
    217    230     1
    218    521     1
    218    229     1
    218    230     1
    220    492     1
    220    226     1
    220    227     1
    221    492     1
    221    226     1
    221    227     1
    225    484     1
    225    485     1
    226    483     1
    227    483     1
    228    513     1
    228    514     1
    229    512     1
    230    512     1
    232    246     1
    232    247     1
    232    249     1
    232    250     1
    232    243     1
    232    244     1
    233    237     1
    233    238     1
    233    240     1
    233    241     1
    233    258     1
    233    259     1
    234    236     1
    234    239     1
    234    257     1
    234    246     1
    234    247     1
    235    236     1
    235    239     1
    235    257     1
    235    246     1
    235    247     1
    236    240     1
    236    241     1
    236    255     1
    236    256     1
    237    239     1
    237    254     1
    237    249     1
    237    250     1
    238    239     1
    238    254     1
    238    249     1
    238    250     1
    239    252     1
    239    253     1
    240    251     1
    240    243     1
    240    244     1
    241    251     1
    241    243     1
    241    244     1
    243    260     1
    243    252     1
    243    253     1
    244    260     1
    244    252     1
    244    253     1
    246    579     1
    246    258     1
    246    259     1
    247    579     1
    247    258     1
    247    259     1
    249    550     1
    249    255     1
    249    256     1
    250    550     1
    250    255     1
    250    256     1
    254    542     1
    254    543     1
    255    541     1
    256    541     1
    257    571     1
    257    572     1
    258    570     1
    259    570     1
    261    275     1
    261    276     1
    261    278     1
    261    279     1
    261    272     1
    261    273     1
    262    266     1
    262    267     1
    262    269     1
    262    270     1
    262    287     1
    262    288     1
    263    265     1
    263    268     1
    263    286     1
    263    275     1
    263    276     1
    264    265     1
    264    268     1
    264    286     1
    264    275     1
    264    276     1
    265    269     1
    265    270     1
    265    284     1
    265    285     1
    266    268     1
    266    283     1
    266    278     1
    266    279     1
    267    268     1
    267    283     1
    267    278     1
    267    279     1
    268    281     1
    268    282     1
    269    280     1
    269    272     1
    269    273     1
    270    280     1
    270    272     1
    270    273     1
    272    289     1
    272    281     1
    272    282     1
    273    289     1
    273    281     1
    273    282     1
    275    637     1
    275    287     1
    275    288     1
    276    637     1
    276    287     1
    276    288     1
    278    608     1
    278    284     1
    278    285     1
    279    608     1
    279    284     1
    279    285     1
    283    600     1
    283    601     1
    284    599     1
    285    599     1
    286    629     1
    286    630     1
    287    628     1
    288    628     1
    290    304     1
    290    305     1
    290    307     1
    290    308     1
    290    301     1
    290    302     1
    291    295     1
    291    296     1
    291    298     1
    291    299     1
    291    316     1
    291    317     1
    292    294     1
    292    297     1
    292    315     1
    292    304     1
    292    305     1
    293    294     1
    293    297     1
    293    315     1
    293    304     1
    293    305     1
    294    298     1
    294    299     1
    294    313     1
    294    314     1
    295    297     1
    295    312     1
    295    307     1
    295    308     1
    296    297     1
    296    312     1
    296    307     1
    296    308     1
    297    310     1
    297    311     1
    298    309     1
    298    301     1
    298    302     1
    299    309     1
    299    301     1
    299    302     1
    301    318     1
    301    310     1
    301    311     1
    302    318     1
    302    310     1
    302    311     1
    304    695     1
    304    316     1
    304    317     1
    305    695     1
    305    316     1
    305    317     1
    307    666     1
    307    313     1
    307    314     1
    308    666     1
    308    313     1
    308    314     1
    312    658     1
    312    659     1
    313    657     1
    314    657     1
    315    687     1
    315    688     1
    316    686     1
    317    686     1
    319    333     1
    319    334     1
    319    336     1
    319    337     1
    319    330     1
    319    331     1
    320    324     1
    320    325     1
    320    327     1
    320    328     1
    320    345     1
    320    346     1
    321    323     1
    321    326     1
    321    344     1
    321    333     1
    321    334     1
    322    323     1
    322    326     1
    322    344     1
    322    333     1
    322    334     1
    323    327     1
    323    328     1
    323    342     1
    323    343     1
    324    326     1
    324    341     1
    324    336     1
    324    337     1
    325    326     1
    325    341     1
    325    336     1
    325    337     1
    326    339     1
    326    340     1
    327    338     1
    327    330     1
    327    331     1
    328    338     1
    328    330     1
    328    331     1
    330    347     1
    330    339     1
    330    340     1
    331    347     1
    331    339     1
    331    340     1
    333    753     1
    333    345     1
    333    346     1
    334    753     1
    334    345     1
    334    346     1
    336    724     1
    336    342     1
    336    343     1
    337    724     1
    337    342     1
    337    343     1
    341    716     1
    341    717     1
    342    715     1
    343    715     1
    344    745     1
    344    746     1
    345    744     1
    346    744     1
    348    362     1
    348    363     1
    348    365     1
    348    366     1
    348    359     1
    348    360     1
    349    353     1
    349    354     1
    349    356     1
    349    357     1
    349    374     1
    349    375     1
    350    352     1
    350    355     1
    350    373     1
    350    362     1
    350    363     1
    351    352     1
    351    355     1
    351    373     1
    351    362     1
    351    363     1
    352    356     1
    352    357     1
    352    371     1
    352    372     1
    353    355     1
    353    370     1
    353    365     1
    353    366     1
    354    355     1
    354    370     1
    354    365     1
    354    366     1
    355    368     1
    355    369     1
    356    367     1
    356    359     1
    356    360     1
    357    367     1
    357    359     1
    357    360     1
    359    376     1
    359    368     1
    359    369     1
    360    376     1
    360    368     1
    360    369     1
    362    811     1
    362    374     1
    362    375     1
    363    811     1
    363    374     1
    363    375     1
    365    782     1
    365    371     1
    365    372     1
    366    782     1
    366    371     1
    366    372     1
    370    774     1
    370    775     1
    371    773     1
    372    773     1
    373    803     1
    373    804     1
    374    802     1
    375    802     1
    377    391     1
    377    392     1
    377    394     1
    377    395     1
    377    388     1
    377    389     1
    378    382     1
    378    383     1
    378    385     1
    378    386     1
    378    403     1
    378    404     1
    379    381     1
    379    384     1
    379    402     1
    379    391     1
    379    392     1
    380    381     1
    380    384     1
    380    402     1
    380    391     1
    380    392     1
    381    385     1
    381    386     1
    381    400     1
    381    401     1
    382    384     1
    382    399     1
    382    394     1
    382    395     1
    383    384     1
    383    399     1
    383    394     1
    383    395     1
    384    397     1
    384    398     1
    385    396     1
    385    388     1
    385    389     1
    386    396     1
    386    388     1
    386    389     1
    388    405     1
    388    397     1
    388    398     1
    389    405     1
    389    397     1
    389    398     1
    391    869     1
    391    403     1
    391    404     1
    392    869     1
    392    403     1
    392    404     1
    394    840     1
    394    400     1
    394    401     1
    395    840     1
    395    400     1
    395    401     1
    399    832     1
    399    833     1
    400    831     1
    401    831     1
    402    861     1
    402    862     1
    403    860     1
    404    860     1
    406    420     1
    406    421     1
    406    423     1
    406    424     1
    406    417     1
    406    418     1
    407    411     1
    407    412     1
    407    414     1
    407    415     1
    407    432     1
    407    433     1
    408    410     1
    408    413     1
    408    431     1
    408    420     1
    408    421     1
    409    410     1
    409    413     1
    409    431     1
    409    420     1
    409    421     1
    410    414     1
    410    415     1
    410    429     1
    410    430     1
    411    413     1
    411    428     1
    411    423     1
    411    424     1
    412    413     1
    412    428     1
    412    423     1
    412    424     1
    413    426     1
    413    427     1
    414    425     1
    414    417     1
    414    418     1
    415    425     1
    415    417     1
    415    418     1
    417    434     1
    417    426     1
    417    427     1
    418    434     1
    418    426     1
    418    427     1
    420    927     1
    420    432     1
    420    433     1
    421    927     1
    421    432     1
    421    433     1
    423    898     1
    423    429     1
    423    430     1
    424    898     1
    424    429     1
    424    430     1
    428    890     1
    428    891     1
    429    889     1
    430    889     1
    431    919     1
    431    920     1
    432    918     1
    433    918     1
    435    449     1
    435    450     1
    435    452     1
    435    453     1
    435    446     1
    435    447     1
    436    440     1
    436    441     1
    436    443     1
    436    444     1
    436    461     1
    436    462     1
    437    439     1
    437    442     1
    437    460     1
    437    449     1
    437    450     1
    438    439     1
    438    442     1
    438    460     1
    438    449     1
    438    450     1
    439    443     1
    439    444     1
    439    458     1
    439    459     1
    440    442     1
    440    457     1
    440    452     1
    440    453     1
    441    442     1
    441    457     1
    441    452     1
    441    453     1
    442    455     1
    442    456     1
    443    454     1
    443    446     1
    443    447     1
    444    454     1
    444    446     1
    444    447     1
    446    463     1
    446    455     1
    446    456     1
    447    463     1
    447    455     1
    447    456     1
    449    985     1
    449    461     1
    449    462     1
    450    985     1
    450    461     1
    450    462     1
    452    956     1
    452    458     1
    452    459     1
    453    956     1
    453    458     1
    453    459     1
    457    948     1
    457    949     1
    458    947     1
    459    947     1
    460    977     1
    460    978     1
    461    976     1
    462    976     1
    464    478     1
    464    479     1
    464    481     1
    464    482     1
    464    475     1
    464    476     1
    465    469     1
    465    470     1
    465    472     1
    465    473     1
    465    490     1
    465    491     1
    466    468     1
    466    471     1
    466    489     1
    466    478     1
    466    479     1
    467    468     1
    467    471     1
    467    489     1
    467    478     1
    467    479     1
    468    472     1
    468    473     1
    468    487     1
    468    488     1
    469    471     1
    469    486     1
    469    481     1
    469    482     1
    470    471     1
    470    486     1
    470    481     1
    470    482     1
    471    484     1
    471    485     1
    472    483     1
    472    475     1
    472    476     1
    473    483     1
    473    475     1
    473    476     1
    475    492     1
    475    484     1
    475    485     1
    476    492     1
    476    484     1
    476    485     1
    478   1043     1
    478    490     1
    478    491     1
    479   1043     1
    479    490     1
    479    491     1
    481   1014     1
    481    487     1
    481    488     1
    482   1014     1
    482    487     1
    482    488     1
    486   1006     1
    486   1007     1
    487   1005     1
    488   1005     1
    489   1035     1
    489   1036     1
    490   1034     1
    491   1034     1
    493    507     1
    493    508     1
    493    510     1
    493    511     1
    493    504     1
    493    505     1
    494    498     1
    494    499     1
    494    501     1
    494    502     1
    494    519     1
    494    520     1
    495    497     1
    495    500     1
    495    518     1
    495    507     1
    495    508     1
    496    497     1
    496    500     1
    496    518     1
    496    507     1
    496    508     1
    497    501     1
    497    502     1
    497    516     1
    497    517     1
    498    500     1
    498    515     1
    498    510     1
    498    511     1
    499    500     1
    499    515     1
    499    510     1
    499    511     1
    500    513     1
    500    514     1
    501    512     1
    501    504     1
    501    505     1
    502    512     1
    502    504     1
    502    505     1
    504    521     1
    504    513     1
    504    514     1
    505    521     1
    505    513     1
    505    514     1
    507   1101     1
    507    519     1
    507    520     1
    508   1101     1
    508    519     1
    508    520     1
    510   1072     1
    510    516     1
    510    517     1
    511   1072     1
    511    516     1
    511    517     1
    515   1064     1
    515   1065     1
    516   1063     1
    517   1063     1
    518   1093     1
    518   1094     1
    519   1092     1
    520   1092     1
    522    536     1
    522    537     1
    522    539     1
    522    540     1
    522    533     1
    522    534     1
    523    527     1
    523    528     1
    523    530     1
    523    531     1
    523    548     1
    523    549     1
    524    526     1
    524    529     1
    524    547     1
    524    536     1
    524    537     1
    525    526     1
    525    529     1
    525    547     1
    525    536     1
    525    537     1
    526    530     1
    526    531     1
    526    545     1
    526    546     1
    527    529     1
    527    544     1
    527    539     1
    527    540     1
    528    529     1
    528    544     1
    528    539     1
    528    540     1
    529    542     1
    529    543     1
    530    541     1
    530    533     1
    530    534     1
    531    541     1
    531    533     1
    531    534     1
    533    550     1
    533    542     1
    533    543     1
    534    550     1
    534    542     1
    534    543     1
    536   1159     1
    536    548     1
    536    549     1
    537   1159     1
    537    548     1
    537    549     1
    539   1130     1
    539    545     1
    539    546     1
    540   1130     1
    540    545     1
    540    546     1
    544   1122     1
    544   1123     1
    545   1121     1
    546   1121     1
    547   1151     1
    547   1152     1
    548   1150     1
    549   1150     1
    551    565     1
    551    566     1
    551    568     1
    551    569     1
    551    562     1
    551    563     1
    552    556     1
    552    557     1
    552    559     1
    552    560     1
    552    577     1
    552    578     1
    553    555     1
    553    558     1
    553    576     1
    553    565     1
    553    566     1
    554    555     1
    554    558     1
    554    576     1
    554    565     1
    554    566     1
    555    559     1
    555    560     1
    555    574     1
    555    575     1
    556    558     1
    556    573     1
    556    568     1
    556    569     1
    557    558     1
    557    573     1
    557    568     1
    557    569     1
    558    571     1
    558    572     1
    559    570     1
    559    562     1
    559    563     1
    560    570     1
    560    562     1
    560    563     1
    562    579     1
    562    571     1
    562    572     1
    563    579     1
    563    571     1
    563    572     1
    565   1217     1
    565    577     1
    565    578     1
    566   1217     1
    566    577     1
    566    578     1
    568   1188     1
    568    574     1
    568    575     1
    569   1188     1
    569    574     1
    569    575     1
    573   1180     1
    573   1181     1
    574   1179     1
    575   1179     1
    576   1209     1
    576   1210     1
    577   1208     1
    578   1208     1
    580    594     1
    580    595     1
    580    597     1
    580    598     1
    580    591     1
    580    592     1
    581    585     1
    581    586     1
    581    588     1
    581    589     1
    581    606     1
    581    607     1
    582    584     1
    582    587     1
    582    605     1
    582    594     1
    582    595     1
    583    584     1
    583    587     1
    583    605     1
    583    594     1
    583    595     1
    584    588     1
    584    589     1
    584    603     1
    584    604     1
    585    587     1
    585    602     1
    585    597     1
    585    598     1
    586    587     1
    586    602     1
    586    597     1
    586    598     1
    587    600     1
    587    601     1
    588    599     1
    588    591     1
    588    592     1
    589    599     1
    589    591     1
    589    592     1
    591    608     1
    591    600     1
    591    601     1
    592    608     1
    592    600     1
    592    601     1
    594   1275     1
    594    606     1
    594    607     1
    595   1275     1
    595    606     1
    595    607     1
    597   1246     1
    597    603     1
    597    604     1
    598   1246     1
    598    603     1
    598    604     1
    602   1238     1
    602   1239     1
    603   1237     1
    604   1237     1
    605   1267     1
    605   1268     1
    606   1266     1
    607   1266     1
    609    623     1
    609    624     1
    609    626     1
    609    627     1
    609    620     1
    609    621     1
    610    614     1
    610    615     1
    610    617     1
    610    618     1
    610    635     1
    610    636     1
    611    613     1
    611    616     1
    611    634     1
    611    623     1
    611    624     1
    612    613     1
    612    616     1
    612    634     1
    612    623     1
    612    624     1
    613    617     1
    613    618     1
    613    632     1
    613    633     1
    614    616     1
    614    631     1
    614    626     1
    614    627     1
    615    616     1
    615    631     1
    615    626     1
    615    627     1
    616    629     1
    616    630     1
    617    628     1
    617    620     1
    617    621     1
    618    628     1
    618    620     1
    618    621     1
    620    637     1
    620    629     1
    620    630     1
    621    637     1
    621    629     1
    621    630     1
    623   1333     1
    623    635     1
    623    636     1
    624   1333     1
    624    635     1
    624    636     1
    626   1304     1
    626    632     1
    626    633     1
    627   1304     1
    627    632     1
    627    633     1
    631   1296     1
    631   1297     1
    632   1295     1
    633   1295     1
    634   1325     1
    634   1326     1
    635   1324     1
    636   1324     1
    638    652     1
    638    653     1
    638    655     1
    638    656     1
    638    649     1
    638    650     1
    639    643     1
    639    644     1
    639    646     1
    639    647     1
    639    664     1
    639    665     1
    640    642     1
    640    645     1
    640    663     1
    640    652     1
    640    653     1
    641    642     1
    641    645     1
    641    663     1
    641    652     1
    641    653     1
    642    646     1
    642    647     1
    642    661     1
    642    662     1
    643    645     1
    643    660     1
    643    655     1
    643    656     1
    644    645     1
    644    660     1
    644    655     1
    644    656     1
    645    658     1
    645    659     1
    646    657     1
    646    649     1
    646    650     1
    647    657     1
    647    649     1
    647    650     1
    649    666     1
    649    658     1
    649    659     1
    650    666     1
    650    658     1
    650    659     1
    652   1391     1
    652    664     1
    652    665     1
    653   1391     1
    653    664     1
    653    665     1
    655   1362     1
    655    661     1
    655    662     1
    656   1362     1
    656    661     1
    656    662     1
    660   1354     1
    660   1355     1
    661   1353     1
    662   1353     1
    663   1383     1
    663   1384     1
    664   1382     1
    665   1382     1
    667    681     1
    667    682     1
    667    684     1
    667    685     1
    667    678     1
    667    679     1
    668    672     1
    668    673     1
    668    675     1
    668    676     1
    668    693     1
    668    694     1
    669    671     1
    669    674     1
    669    692     1
    669    681     1
    669    682     1
    670    671     1
    670    674     1
    670    692     1
    670    681     1
    670    682     1
    671    675     1
    671    676     1
    671    690     1
    671    691     1
    672    674     1
    672    689     1
    672    684     1
    672    685     1
    673    674     1
    673    689     1
    673    684     1
    673    685     1
    674    687     1
    674    688     1
    675    686     1
    675    678     1
    675    679     1
    676    686     1
    676    678     1
    676    679     1
    678    695     1
    678    687     1
    678    688     1
    679    695     1
    679    687     1
    679    688     1
    681   1449     1
    681    693     1
    681    694     1
    682   1449     1
    682    693     1
    682    694     1
    684   1420     1
    684    690     1
    684    691     1
    685   1420     1
    685    690     1
    685    691     1
    689   1412     1
    689   1413     1
    690   1411     1
    691   1411     1
    692   1441     1
    692   1442     1
    693   1440     1
    694   1440     1
    696    710     1
    696    711     1
    696    713     1
    696    714     1
    696    707     1
    696    708     1
    697    701     1
    697    702     1
    697    704     1
    697    705     1
    697    722     1
    697    723     1
    698    700     1
    698    703     1
    698    721     1
    698    710     1
    698    711     1
    699    700     1
    699    703     1
    699    721     1
    699    710     1
    699    711     1
    700    704     1
    700    705     1
    700    719     1
    700    720     1
    701    703     1
    701    718     1
    701    713     1
    701    714     1
    702    703     1
    702    718     1
    702    713     1
    702    714     1
    703    716     1
    703    717     1
    704    715     1
    704    707     1
    704    708     1
    705    715     1
    705    707     1
    705    708     1
    707    724     1
    707    716     1
    707    717     1
    708    724     1
    708    716     1
    708    717     1
    710   1507     1
    710    722     1
    710    723     1
    711   1507     1
    711    722     1
    711    723     1
    713   1478     1
    713    719     1
    713    720     1
    714   1478     1
    714    719     1
    714    720     1
    718   1470     1
    718   1471     1
    719   1469     1
    720   1469     1
    721   1499     1
    721   1500     1
    722   1498     1
    723   1498     1
    725    739     1
    725    740     1
    725    742     1
    725    743     1
    725    736     1
    725    737     1
    726    730     1
    726    731     1
    726    733     1
    726    734     1
    726    751     1
    726    752     1
    727    729     1
    727    732     1
    727    750     1
    727    739     1
    727    740     1
    728    729     1
    728    732     1
    728    750     1
    728    739     1
    728    740     1
    729    733     1
    729    734     1
    729    748     1
    729    749     1
    730    732     1
    730    747     1
    730    742     1
    730    743     1
    731    732     1
    731    747     1
    731    742     1
    731    743     1
    732    745     1
    732    746     1
    733    744     1
    733    736     1
    733    737     1
    734    744     1
    734    736     1
    734    737     1
    736    753     1
    736    745     1
    736    746     1
    737    753     1
    737    745     1
    737    746     1
    739   1565     1
    739    751     1
    739    752     1
    740   1565     1
    740    751     1
    740    752     1
    742   1536     1
    742    748     1
    742    749     1
    743   1536     1
    743    748     1
    743    749     1
    747   1528     1
    747   1529     1
    748   1527     1
    749   1527     1
    750   1557     1
    750   1558     1
    751   1556     1
    752   1556     1
    754    768     1
    754    769     1
    754    771     1
    754    772     1
    754    765     1
    754    766     1
    755    759     1
    755    760     1
    755    762     1
    755    763     1
    755    780     1
    755    781     1
    756    758     1
    756    761     1
    756    779     1
    756    768     1
    756    769     1
    757    758     1
    757    761     1
    757    779     1
    757    768     1
    757    769     1
    758    762     1
    758    763     1
    758    777     1
    758    778     1
    759    761     1
    759    776     1
    759    771     1
    759    772     1
    760    761     1
    760    776     1
    760    771     1
    760    772     1
    761    774     1
    761    775     1
    762    773     1
    762    765     1
    762    766     1
    763    773     1
    763    765     1
    763    766     1
    765    782     1
    765    774     1
    765    775     1
    766    782     1
    766    774     1
    766    775     1
    768   1623     1
    768    780     1
    768    781     1
    769   1623     1
    769    780     1
    769    781     1
    771   1594     1
    771    777     1
    771    778     1
    772   1594     1
    772    777     1
    772    778     1
    776   1586     1
    776   1587     1
    777   1585     1
    778   1585     1
    779   1615     1
    779   1616     1
    780   1614     1
    781   1614     1
    783    797     1
    783    798     1
    783    800     1
    783    801     1
    783    794     1
    783    795     1
    784    788     1
    784    789     1
    784    791     1
    784    792     1
    784    809     1
    784    810     1
    785    787     1
    785    790     1
    785    808     1
    785    797     1
    785    798     1
    786    787     1
    786    790     1
    786    808     1
    786    797     1
    786    798     1
    787    791     1
    787    792     1
    787    806     1
    787    807     1
    788    790     1
    788    805     1
    788    800     1
    788    801     1
    789    790     1
    789    805     1
    789    800     1
    789    801     1
    790    803     1
    790    804     1
    791    802     1
    791    794     1
    791    795     1
    792    802     1
    792    794     1
    792    795     1
    794    811     1
    794    803     1
    794    804     1
    795    811     1
    795    803     1
    795    804     1
    797   1681     1
    797    809     1
    797    810     1
    798   1681     1
    798    809     1
    798    810     1
    800   1652     1
    800    806     1
    800    807     1
    801   1652     1
    801    806     1
    801    807     1
    805   1644     1
    805   1645     1
    806   1643     1
    807   1643     1
    808   1673     1
    808   1674     1
    809   1672     1
    810   1672     1
    812    826     1
    812    827     1
    812    829     1
    812    830     1
    812    823     1
    812    824     1
    813    817     1
    813    818     1
    813    820     1
    813    821     1
    813    838     1
    813    839     1
    814    816     1
    814    819     1
    814    837     1
    814    826     1
    814    827     1
    815    816     1
    815    819     1
    815    837     1
    815    826     1
    815    827     1
    816    820     1
    816    821     1
    816    835     1
    816    836     1
    817    819     1
    817    834     1
    817    829     1
    817    830     1
    818    819     1
    818    834     1
    818    829     1
    818    830     1
    819    832     1
    819    833     1
    820    831     1
    820    823     1
    820    824     1
    821    831     1
    821    823     1
    821    824     1
    823    840     1
    823    832     1
    823    833     1
    824    840     1
    824    832     1
    824    833     1
    826   1739     1
    826    838     1
    826    839     1
    827   1739     1
    827    838     1
    827    839     1
    829   1710     1
    829    835     1
    829    836     1
    830   1710     1
    830    835     1
    830    836     1
    834   1702     1
    834   1703     1
    835   1701     1
    836   1701     1
    837   1731     1
    837   1732     1
    838   1730     1
    839   1730     1
    841    855     1
    841    856     1
    841    858     1
    841    859     1
    841    852     1
    841    853     1
    842    846     1
    842    847     1
    842    849     1
    842    850     1
    842    867     1
    842    868     1
    843    845     1
    843    848     1
    843    866     1
    843    855     1
    843    856     1
    844    845     1
    844    848     1
    844    866     1
    844    855     1
    844    856     1
    845    849     1
    845    850     1
    845    864     1
    845    865     1
    846    848     1
    846    863     1
    846    858     1
    846    859     1
    847    848     1
    847    863     1
    847    858     1
    847    859     1
    848    861     1
    848    862     1
    849    860     1
    849    852     1
    849    853     1
    850    860     1
    850    852     1
    850    853     1
    852    869     1
    852    861     1
    852    862     1
    853    869     1
    853    861     1
    853    862     1
    855   1797     1
    855    867     1
    855    868     1
    856   1797     1
    856    867     1
    856    868     1
    858   1768     1
    858    864     1
    858    865     1
    859   1768     1
    859    864     1
    859    865     1
    863   1760     1
    863   1761     1
    864   1759     1
    865   1759     1
    866   1789     1
    866   1790     1
    867   1788     1
    868   1788     1
    870    884     1
    870    885     1
    870    887     1
    870    888     1
    870    881     1
    870    882     1
    871    875     1
    871    876     1
    871    878     1
    871    879     1
    871    896     1
    871    897     1
    872    874     1
    872    877     1
    872    895     1
    872    884     1
    872    885     1
    873    874     1
    873    877     1
    873    895     1
    873    884     1
    873    885     1
    874    878     1
    874    879     1
    874    893     1
    874    894     1
    875    877     1
    875    892     1
    875    887     1
    875    888     1
    876    877     1
    876    892     1
    876    887     1
    876    888     1
    877    890     1
    877    891     1
    878    889     1
    878    881     1
    878    882     1
    879    889     1
    879    881     1
    879    882     1
    881    898     1
    881    890     1
    881    891     1
    882    898     1
    882    890     1
    882    891     1
    884   1855     1
    884    896     1
    884    897     1
    885   1855     1
    885    896     1
    885    897     1
    887   1826     1
    887    893     1
    887    894     1
    888   1826     1
    888    893     1
    888    894     1
    892   1818     1
    892   1819     1
    893   1817     1
    894   1817     1
    895   1847     1
    895   1848     1
    896   1846     1
    897   1846     1
    899    913     1
    899    914     1
    899    916     1
    899    917     1
    899    910     1
    899    911     1
    900    904     1
    900    905     1
    900    907     1
    900    908     1
    900    925     1
    900    926     1
    901    903     1
    901    906     1
    901    924     1
    901    913     1
    901    914     1
    902    903     1
    902    906     1
    902    924     1
    902    913     1
    902    914     1
    903    907     1
    903    908     1
    903    922     1
    903    923     1
    904    906     1
    904    921     1
    904    916     1
    904    917     1
    905    906     1
    905    921     1
    905    916     1
    905    917     1
    906    919     1
    906    920     1
    907    918     1
    907    910     1
    907    911     1
    908    918     1
    908    910     1
    908    911     1
    910    927     1
    910    919     1
    910    920     1
    911    927     1
    911    919     1
    911    920     1
    913   1913     1
    913    925     1
    913    926     1
    914   1913     1
    914    925     1
    914    926     1
    916   1884     1
    916    922     1
    916    923     1
    917   1884     1
    917    922     1
    917    923     1
    921   1876     1
    921   1877     1
    922   1875     1
    923   1875     1
    924   1905     1
    924   1906     1
    925   1904     1
    926   1904     1
    928    942     1
    928    943     1
    928    945     1
    928    946     1
    928    939     1
    928    940     1
    929    933     1
    929    934     1
    929    936     1
    929    937     1
    929    954     1
    929    955     1
    930    932     1
    930    935     1
    930    953     1
    930    942     1
    930    943     1
    931    932     1
    931    935     1
    931    953     1
    931    942     1
    931    943     1
    932    936     1
    932    937     1
    932    951     1
    932    952     1
    933    935     1
    933    950     1
    933    945     1
    933    946     1
    934    935     1
    934    950     1
    934    945     1
    934    946     1
    935    948     1
    935    949     1
    936    947     1
    936    939     1
    936    940     1
    937    947     1
    937    939     1
    937    940     1
    939    956     1
    939    948     1
    939    949     1
    940    956     1
    940    948     1
    940    949     1
    942   1971     1
    942    954     1
    942    955     1
    943   1971     1
    943    954     1
    943    955     1
    945   1942     1
    945    951     1
    945    952     1
    946   1942     1
    946    951     1
    946    952     1
    950   1934     1
    950   1935     1
    951   1933     1
    952   1933     1
    953   1963     1
    953   1964     1
    954   1962     1
    955   1962     1
    957    971     1
    957    972     1
    957    974     1
    957    975     1
    957    968     1
    957    969     1
    958    962     1
    958    963     1
    958    965     1
    958    966     1
    958    983     1
    958    984     1
    959    961     1
    959    964     1
    959    982     1
    959    971     1
    959    972     1
    960    961     1
    960    964     1
    960    982     1
    960    971     1
    960    972     1
    961    965     1
    961    966     1
    961    980     1
    961    981     1
    962    964     1
    962    979     1
    962    974     1
    962    975     1
    963    964     1
    963    979     1
    963    974     1
    963    975     1
    964    977     1
    964    978     1
    965    976     1
    965    968     1
    965    969     1
    966    976     1
    966    968     1
    966    969     1
    968    985     1
    968    977     1
    968    978     1
    969    985     1
    969    977     1
    969    978     1
    971   2029     1
    971    983     1
    971    984     1
    972   2029     1
    972    983     1
    972    984     1
    974   2000     1
    974    980     1
    974    981     1
    975   2000     1
    975    980     1
    975    981     1
    979   1992     1
    979   1993     1
    980   1991     1
    981   1991     1
    982   2021     1
    982   2022     1
    983   2020     1
    984   2020     1
    986   1000     1
    986   1001     1
    986   1003     1
    986   1004     1
    986    997     1
    986    998     1
    987    991     1
    987    992     1
    987    994     1
    987    995     1
    987   1012     1
    987   1013     1
    988    990     1
    988    993     1
    988   1011     1
    988   1000     1
    988   1001     1
    989    990     1
    989    993     1
    989   1011     1
    989   1000     1
    989   1001     1
    990    994     1
    990    995     1
    990   1009     1
    990   1010     1
    991    993     1
    991   1008     1
    991   1003     1
    991   1004     1
    992    993     1
    992   1008     1
    992   1003     1
    992   1004     1
    993   1006     1
    993   1007     1
    994   1005     1
    994    997     1
    994    998     1
    995   1005     1
    995    997     1
    995    998     1
    997   1014     1
    997   1006     1
    997   1007     1
    998   1014     1
    998   1006     1
    998   1007     1
   1000   2087     1
   1000   1012     1
   1000   1013     1
   1001   2087     1
   1001   1012     1
   1001   1013     1
   1003   2058     1
   1003   1009     1
   1003   1010     1
   1004   2058     1
   1004   1009     1
   1004   1010     1
   1008   2050     1
   1008   2051     1
   1009   2049     1
   1010   2049     1
   1011   2079     1
   1011   2080     1
   1012   2078     1
   1013   2078     1
   1015   1029     1
   1015   1030     1
   1015   1032     1
   1015   1033     1
   1015   1026     1
   1015   1027     1
   1016   1020     1
   1016   1021     1
   1016   1023     1
   1016   1024     1
   1016   1041     1
   1016   1042     1
   1017   1019     1
   1017   1022     1
   1017   1040     1
   1017   1029     1
   1017   1030     1
   1018   1019     1
   1018   1022     1
   1018   1040     1
   1018   1029     1
   1018   1030     1
   1019   1023     1
   1019   1024     1
   1019   1038     1
   1019   1039     1
   1020   1022     1
   1020   1037     1
   1020   1032     1
   1020   1033     1
   1021   1022     1
   1021   1037     1
   1021   1032     1
   1021   1033     1
   1022   1035     1
   1022   1036     1
   1023   1034     1
   1023   1026     1
   1023   1027     1
   1024   1034     1
   1024   1026     1
   1024   1027     1
   1026   1043     1
   1026   1035     1
   1026   1036     1
   1027   1043     1
   1027   1035     1
   1027   1036     1
   1029   2145     1
   1029   1041     1
   1029   1042     1
   1030   2145     1
   1030   1041     1
   1030   1042     1
   1032   2116     1
   1032   1038     1
   1032   1039     1
   1033   2116     1
   1033   1038     1
   1033   1039     1
   1037   2108     1
   1037   2109     1
   1038   2107     1
   1039   2107     1
   1040   2137     1
   1040   2138     1
   1041   2136     1
   1042   2136     1
   1044   1058     1
   1044   1059     1
   1044   1061     1
   1044   1062     1
   1044   1055     1
   1044   1056     1
   1045   1049     1
   1045   1050     1
   1045   1052     1
   1045   1053     1
   1045   1070     1
   1045   1071     1
   1046   1048     1
   1046   1051     1
   1046   1069     1
   1046   1058     1
   1046   1059     1
   1047   1048     1
   1047   1051     1
   1047   1069     1
   1047   1058     1
   1047   1059     1
   1048   1052     1
   1048   1053     1
   1048   1067     1
   1048   1068     1
   1049   1051     1
   1049   1066     1
   1049   1061     1
   1049   1062     1
   1050   1051     1
   1050   1066     1
   1050   1061     1
   1050   1062     1
   1051   1064     1
   1051   1065     1
   1052   1063     1
   1052   1055     1
   1052   1056     1
   1053   1063     1
   1053   1055     1
   1053   1056     1
   1055   1072     1
   1055   1064     1
   1055   1065     1
   1056   1072     1
   1056   1064     1
   1056   1065     1
   1058   2203     1
   1058   1070     1
   1058   1071     1
   1059   2203     1
   1059   1070     1
   1059   1071     1
   1061   2174     1
   1061   1067     1
   1061   1068     1
   1062   2174     1
   1062   1067     1
   1062   1068     1
   1066   2166     1
   1066   2167     1
   1067   2165     1
   1068   2165     1
   1069   2195     1
   1069   2196     1
   1070   2194     1
   1071   2194     1
   1073   1087     1
   1073   1088     1
   1073   1090     1
   1073   1091     1
   1073   1084     1
   1073   1085     1
   1074   1078     1
   1074   1079     1
   1074   1081     1
   1074   1082     1
   1074   1099     1
   1074   1100     1
   1075   1077     1
   1075   1080     1
   1075   1098     1
   1075   1087     1
   1075   1088     1
   1076   1077     1
   1076   1080     1
   1076   1098     1
   1076   1087     1
   1076   1088     1
   1077   1081     1
   1077   1082     1
   1077   1096     1
   1077   1097     1
   1078   1080     1
   1078   1095     1
   1078   1090     1
   1078   1091     1
   1079   1080     1
   1079   1095     1
   1079   1090     1
   1079   1091     1
   1080   1093     1
   1080   1094     1
   1081   1092     1
   1081   1084     1
   1081   1085     1
   1082   1092     1
   1082   1084     1
   1082   1085     1
   1084   1101     1
   1084   1093     1
   1084   1094     1
   1085   1101     1
   1085   1093     1
   1085   1094     1
   1087   2261     1
   1087   1099     1
   1087   1100     1
   1088   2261     1
   1088   1099     1
   1088   1100     1
   1090   2232     1
   1090   1096     1
   1090   1097     1
   1091   2232     1
   1091   1096     1
   1091   1097     1
   1095   2224     1
   1095   2225     1
   1096   2223     1
   1097   2223     1
   1098   2253     1
   1098   2254     1
   1099   2252     1
   1100   2252     1
   1102   1116     1
   1102   1117     1
   1102   1119     1
   1102   1120     1
   1102   1113     1
   1102   1114     1
   1103   1107     1
   1103   1108     1
   1103   1110     1
   1103   1111     1
   1103   1128     1
   1103   1129     1
   1104   1106     1
   1104   1109     1
   1104   1127     1
   1104   1116     1
   1104   1117     1
   1105   1106     1
   1105   1109     1
   1105   1127     1
   1105   1116     1
   1105   1117     1
   1106   1110     1
   1106   1111     1
   1106   1125     1
   1106   1126     1
   1107   1109     1
   1107   1124     1
   1107   1119     1
   1107   1120     1
   1108   1109     1
   1108   1124     1
   1108   1119     1
   1108   1120     1
   1109   1122     1
   1109   1123     1
   1110   1121     1
   1110   1113     1
   1110   1114     1
   1111   1121     1
   1111   1113     1
   1111   1114     1
   1113   1130     1
   1113   1122     1
   1113   1123     1
   1114   1130     1
   1114   1122     1
   1114   1123     1
   1116   2319     1
   1116   1128     1
   1116   1129     1
   1117   2319     1
   1117   1128     1
   1117   1129     1
   1119   2290     1
   1119   1125     1
   1119   1126     1
   1120   2290     1
   1120   1125     1
   1120   1126     1
   1124   2282     1
   1124   2283     1
   1125   2281     1
   1126   2281     1
   1127   2311     1
   1127   2312     1
   1128   2310     1
   1129   2310     1
   1131   1145     1
   1131   1146     1
   1131   1148     1
   1131   1149     1
   1131   1142     1
   1131   1143     1
   1132   1136     1
   1132   1137     1
   1132   1139     1
   1132   1140     1
   1132   1157     1
   1132   1158     1
   1133   1135     1
   1133   1138     1
   1133   1156     1
   1133   1145     1
   1133   1146     1
   1134   1135     1
   1134   1138     1
   1134   1156     1
   1134   1145     1
   1134   1146     1
   1135   1139     1
   1135   1140     1
   1135   1154     1
   1135   1155     1
   1136   1138     1
   1136   1153     1
   1136   1148     1
   1136   1149     1
   1137   1138     1
   1137   1153     1
   1137   1148     1
   1137   1149     1
   1138   1151     1
   1138   1152     1
   1139   1150     1
   1139   1142     1
   1139   1143     1
   1140   1150     1
   1140   1142     1
   1140   1143     1
   1142   1159     1
   1142   1151     1
   1142   1152     1
   1143   1159     1
   1143   1151     1
   1143   1152     1
   1145   2377     1
   1145   1157     1
   1145   1158     1
   1146   2377     1
   1146   1157     1
   1146   1158     1
   1148   2348     1
   1148   1154     1
   1148   1155     1
   1149   2348     1
   1149   1154     1
   1149   1155     1
   1153   2340     1
   1153   2341     1
   1154   2339     1
   1155   2339     1
   1156   2369     1
   1156   2370     1
   1157   2368     1
   1158   2368     1
   1160   1174     1
   1160   1175     1
   1160   1177     1
   1160   1178     1
   1160   1171     1
   1160   1172     1
   1161   1165     1
   1161   1166     1
   1161   1168     1
   1161   1169     1
   1161   1186     1
   1161   1187     1
   1162   1164     1
   1162   1167     1
   1162   1185     1
   1162   1174     1
   1162   1175     1
   1163   1164     1
   1163   1167     1
   1163   1185     1
   1163   1174     1
   1163   1175     1
   1164   1168     1
   1164   1169     1
   1164   1183     1
   1164   1184     1
   1165   1167     1
   1165   1182     1
   1165   1177     1
   1165   1178     1
   1166   1167     1
   1166   1182     1
   1166   1177     1
   1166   1178     1
   1167   1180     1
   1167   1181     1
   1168   1179     1
   1168   1171     1
   1168   1172     1
   1169   1179     1
   1169   1171     1
   1169   1172     1
   1171   1188     1
   1171   1180     1
   1171   1181     1
   1172   1188     1
   1172   1180     1
   1172   1181     1
   1174   2435     1
   1174   1186     1
   1174   1187     1
   1175   2435     1
   1175   1186     1
   1175   1187     1
   1177   2406     1
   1177   1183     1
   1177   1184     1
   1178   2406     1
   1178   1183     1
   1178   1184     1
   1182   2398     1
   1182   2399     1
   1183   2397     1
   1184   2397     1
   1185   2427     1
   1185   2428     1
   1186   2426     1
   1187   2426     1
   1189   1203     1
   1189   1204     1
   1189   1206     1
   1189   1207     1
   1189   1200     1
   1189   1201     1
   1190   1194     1
   1190   1195     1
   1190   1197     1
   1190   1198     1
   1190   1215     1
   1190   1216     1
   1191   1193     1
   1191   1196     1
   1191   1214     1
   1191   1203     1
   1191   1204     1
   1192   1193     1
   1192   1196     1
   1192   1214     1
   1192   1203     1
   1192   1204     1
   1193   1197     1
   1193   1198     1
   1193   1212     1
   1193   1213     1
   1194   1196     1
   1194   1211     1
   1194   1206     1
   1194   1207     1
   1195   1196     1
   1195   1211     1
   1195   1206     1
   1195   1207     1
   1196   1209     1
   1196   1210     1
   1197   1208     1
   1197   1200     1
   1197   1201     1
   1198   1208     1
   1198   1200     1
   1198   1201     1
   1200   1217     1
   1200   1209     1
   1200   1210     1
   1201   1217     1
   1201   1209     1
   1201   1210     1
   1203   2493     1
   1203   1215     1
   1203   1216     1
   1204   2493     1
   1204   1215     1
   1204   1216     1
   1206   2464     1
   1206   1212     1
   1206   1213     1
   1207   2464     1
   1207   1212     1
   1207   1213     1
   1211   2456     1
   1211   2457     1
   1212   2455     1
   1213   2455     1
   1214   2485     1
   1214   2486     1
   1215   2484     1
   1216   2484     1
   1218   1232     1
   1218   1233     1
   1218   1235     1
   1218   1236     1
   1218   1229     1
   1218   1230     1
   1219   1223     1
   1219   1224     1
   1219   1226     1
   1219   1227     1
   1219   1244     1
   1219   1245     1
   1220   1222     1
   1220   1225     1
   1220   1243     1
   1220   1232     1
   1220   1233     1
   1221   1222     1
   1221   1225     1
   1221   1243     1
   1221   1232     1
   1221   1233     1
   1222   1226     1
   1222   1227     1
   1222   1241     1
   1222   1242     1
   1223   1225     1
   1223   1240     1
   1223   1235     1
   1223   1236     1
   1224   1225     1
   1224   1240     1
   1224   1235     1
   1224   1236     1
   1225   1238     1
   1225   1239     1
   1226   1237     1
   1226   1229     1
   1226   1230     1
   1227   1237     1
   1227   1229     1
   1227   1230     1
   1229   1246     1
   1229   1238     1
   1229   1239     1
   1230   1246     1
   1230   1238     1
   1230   1239     1
   1232   2551     1
   1232   1244     1
   1232   1245     1
   1233   2551     1
   1233   1244     1
   1233   1245     1
   1235   2522     1
   1235   1241     1
   1235   1242     1
   1236   2522     1
   1236   1241     1
   1236   1242     1
   1240   2514     1
   1240   2515     1
   1241   2513     1
   1242   2513     1
   1243   2543     1
   1243   2544     1
   1244   2542     1
   1245   2542     1
   1247   1261     1
   1247   1262     1
   1247   1264     1
   1247   1265     1
   1247   1258     1
   1247   1259     1
   1248   1252     1
   1248   1253     1
   1248   1255     1
   1248   1256     1
   1248   1273     1
   1248   1274     1
   1249   1251     1
   1249   1254     1
   1249   1272     1
   1249   1261     1
   1249   1262     1
   1250   1251     1
   1250   1254     1
   1250   1272     1
   1250   1261     1
   1250   1262     1
   1251   1255     1
   1251   1256     1
   1251   1270     1
   1251   1271     1
   1252   1254     1
   1252   1269     1
   1252   1264     1
   1252   1265     1
   1253   1254     1
   1253   1269     1
   1253   1264     1
   1253   1265     1
   1254   1267     1
   1254   1268     1
   1255   1266     1
   1255   1258     1
   1255   1259     1
   1256   1266     1
   1256   1258     1
   1256   1259     1
   1258   1275     1
   1258   1267     1
   1258   1268     1
   1259   1275     1
   1259   1267     1
   1259   1268     1
   1261   2609     1
   1261   1273     1
   1261   1274     1
   1262   2609     1
   1262   1273     1
   1262   1274     1
   1264   2580     1
   1264   1270     1
   1264   1271     1
   1265   2580     1
   1265   1270     1
   1265   1271     1
   1269   2572     1
   1269   2573     1
   1270   2571     1
   1271   2571     1
   1272   2601     1
   1272   2602     1
   1273   2600     1
   1274   2600     1
   1276   1290     1
   1276   1291     1
   1276   1293     1
   1276   1294     1
   1276   1287     1
   1276   1288     1
   1277   1281     1
   1277   1282     1
   1277   1284     1
   1277   1285     1
   1277   1302     1
   1277   1303     1
   1278   1280     1
   1278   1283     1
   1278   1301     1
   1278   1290     1
   1278   1291     1
   1279   1280     1
   1279   1283     1
   1279   1301     1
   1279   1290     1
   1279   1291     1
   1280   1284     1
   1280   1285     1
   1280   1299     1
   1280   1300     1
   1281   1283     1
   1281   1298     1
   1281   1293     1
   1281   1294     1
   1282   1283     1
   1282   1298     1
   1282   1293     1
   1282   1294     1
   1283   1296     1
   1283   1297     1
   1284   1295     1
   1284   1287     1
   1284   1288     1
   1285   1295     1
   1285   1287     1
   1285   1288     1
   1287   1304     1
   1287   1296     1
   1287   1297     1
   1288   1304     1
   1288   1296     1
   1288   1297     1
   1290   2667     1
   1290   1302     1
   1290   1303     1
   1291   2667     1
   1291   1302     1
   1291   1303     1
   1293   2638     1
   1293   1299     1
   1293   1300     1
   1294   2638     1
   1294   1299     1
   1294   1300     1
   1298   2630     1
   1298   2631     1
   1299   2629     1
   1300   2629     1
   1301   2659     1
   1301   2660     1
   1302   2658     1
   1303   2658     1
   1305   1319     1
   1305   1320     1
   1305   1322     1
   1305   1323     1
   1305   1316     1
   1305   1317     1
   1306   1310     1
   1306   1311     1
   1306   1313     1
   1306   1314     1
   1306   1331     1
   1306   1332     1
   1307   1309     1
   1307   1312     1
   1307   1330     1
   1307   1319     1
   1307   1320     1
   1308   1309     1
   1308   1312     1
   1308   1330     1
   1308   1319     1
   1308   1320     1
   1309   1313     1
   1309   1314     1
   1309   1328     1
   1309   1329     1
   1310   1312     1
   1310   1327     1
   1310   1322     1
   1310   1323     1
   1311   1312     1
   1311   1327     1
   1311   1322     1
   1311   1323     1
   1312   1325     1
   1312   1326     1
   1313   1324     1
   1313   1316     1
   1313   1317     1
   1314   1324     1
   1314   1316     1
   1314   1317     1
   1316   1333     1
   1316   1325     1
   1316   1326     1
   1317   1333     1
   1317   1325     1
   1317   1326     1
   1319   2725     1
   1319   1331     1
   1319   1332     1
   1320   2725     1
   1320   1331     1
   1320   1332     1
   1322   2696     1
   1322   1328     1
   1322   1329     1
   1323   2696     1
   1323   1328     1
   1323   1329     1
   1327   2688     1
   1327   2689     1
   1328   2687     1
   1329   2687     1
   1330   2717     1
   1330   2718     1
   1331   2716     1
   1332   2716     1
   1334   1348     1
   1334   1349     1
   1334   1351     1
   1334   1352     1
   1334   1345     1
   1334   1346     1
   1335   1339     1
   1335   1340     1
   1335   1342     1
   1335   1343     1
   1335   1360     1
   1335   1361     1
   1336   1338     1
   1336   1341     1
   1336   1359     1
   1336   1348     1
   1336   1349     1
   1337   1338     1
   1337   1341     1
   1337   1359     1
   1337   1348     1
   1337   1349     1
   1338   1342     1
   1338   1343     1
   1338   1357     1
   1338   1358     1
   1339   1341     1
   1339   1356     1
   1339   1351     1
   1339   1352     1
   1340   1341     1
   1340   1356     1
   1340   1351     1
   1340   1352     1
   1341   1354     1
   1341   1355     1
   1342   1353     1
   1342   1345     1
   1342   1346     1
   1343   1353     1
   1343   1345     1
   1343   1346     1
   1345   1362     1
   1345   1354     1
   1345   1355     1
   1346   1362     1
   1346   1354     1
   1346   1355     1
   1348   2783     1
   1348   1360     1
   1348   1361     1
   1349   2783     1
   1349   1360     1
   1349   1361     1
   1351   2754     1
   1351   1357     1
   1351   1358     1
   1352   2754     1
   1352   1357     1
   1352   1358     1
   1356   2746     1
   1356   2747     1
   1357   2745     1
   1358   2745     1
   1359   2775     1
   1359   2776     1
   1360   2774     1
   1361   2774     1
   1363   1377     1
   1363   1378     1
   1363   1380     1
   1363   1381     1
   1363   1374     1
   1363   1375     1
   1364   1368     1
   1364   1369     1
   1364   1371     1
   1364   1372     1
   1364   1389     1
   1364   1390     1
   1365   1367     1
   1365   1370     1
   1365   1388     1
   1365   1377     1
   1365   1378     1
   1366   1367     1
   1366   1370     1
   1366   1388     1
   1366   1377     1
   1366   1378     1
   1367   1371     1
   1367   1372     1
   1367   1386     1
   1367   1387     1
   1368   1370     1
   1368   1385     1
   1368   1380     1
   1368   1381     1
   1369   1370     1
   1369   1385     1
   1369   1380     1
   1369   1381     1
   1370   1383     1
   1370   1384     1
   1371   1382     1
   1371   1374     1
   1371   1375     1
   1372   1382     1
   1372   1374     1
   1372   1375     1
   1374   1391     1
   1374   1383     1
   1374   1384     1
   1375   1391     1
   1375   1383     1
   1375   1384     1
   1377   2841     1
   1377   1389     1
   1377   1390     1
   1378   2841     1
   1378   1389     1
   1378   1390     1
   1380   2812     1
   1380   1386     1
   1380   1387     1
   1381   2812     1
   1381   1386     1
   1381   1387     1
   1385   2804     1
   1385   2805     1
   1386   2803     1
   1387   2803     1
   1388   2833     1
   1388   2834     1
   1389   2832     1
   1390   2832     1
   1392   1406     1
   1392   1407     1
   1392   1409     1
   1392   1410     1
   1392   1403     1
   1392   1404     1
   1393   1397     1
   1393   1398     1
   1393   1400     1
   1393   1401     1
   1393   1418     1
   1393   1419     1
   1394   1396     1
   1394   1399     1
   1394   1417     1
   1394   1406     1
   1394   1407     1
   1395   1396     1
   1395   1399     1
   1395   1417     1
   1395   1406     1
   1395   1407     1
   1396   1400     1
   1396   1401     1
   1396   1415     1
   1396   1416     1
   1397   1399     1
   1397   1414     1
   1397   1409     1
   1397   1410     1
   1398   1399     1
   1398   1414     1
   1398   1409     1
   1398   1410     1
   1399   1412     1
   1399   1413     1
   1400   1411     1
   1400   1403     1
   1400   1404     1
   1401   1411     1
   1401   1403     1
   1401   1404     1
   1403   1420     1
   1403   1412     1
   1403   1413     1
   1404   1420     1
   1404   1412     1
   1404   1413     1
   1406   2899     1
   1406   1418     1
   1406   1419     1
   1407   2899     1
   1407   1418     1
   1407   1419     1
   1409   2870     1
   1409   1415     1
   1409   1416     1
   1410   2870     1
   1410   1415     1
   1410   1416     1
   1414   2862     1
   1414   2863     1
   1415   2861     1
   1416   2861     1
   1417   2891     1
   1417   2892     1
   1418   2890     1
   1419   2890     1
   1421   1435     1
   1421   1436     1
   1421   1438     1
   1421   1439     1
   1421   1432     1
   1421   1433     1
   1422   1426     1
   1422   1427     1
   1422   1429     1
   1422   1430     1
   1422   1447     1
   1422   1448     1
   1423   1425     1
   1423   1428     1
   1423   1446     1
   1423   1435     1
   1423   1436     1
   1424   1425     1
   1424   1428     1
   1424   1446     1
   1424   1435     1
   1424   1436     1
   1425   1429     1
   1425   1430     1
   1425   1444     1
   1425   1445     1
   1426   1428     1
   1426   1443     1
   1426   1438     1
   1426   1439     1
   1427   1428     1
   1427   1443     1
   1427   1438     1
   1427   1439     1
   1428   1441     1
   1428   1442     1
   1429   1440     1
   1429   1432     1
   1429   1433     1
   1430   1440     1
   1430   1432     1
   1430   1433     1
   1432   1449     1
   1432   1441     1
   1432   1442     1
   1433   1449     1
   1433   1441     1
   1433   1442     1
   1435   2957     1
   1435   1447     1
   1435   1448     1
   1436   2957     1
   1436   1447     1
   1436   1448     1
   1438   2928     1
   1438   1444     1
   1438   1445     1
   1439   2928     1
   1439   1444     1
   1439   1445     1
   1443   2920     1
   1443   2921     1
   1444   2919     1
   1445   2919     1
   1446   2949     1
   1446   2950     1
   1447   2948     1
   1448   2948     1
   1450   1464     1
   1450   1465     1
   1450   1467     1
   1450   1468     1
   1450   1461     1
   1450   1462     1
   1451   1455     1
   1451   1456     1
   1451   1458     1
   1451   1459     1
   1451   1476     1
   1451   1477     1
   1452   1454     1
   1452   1457     1
   1452   1475     1
   1452   1464     1
   1452   1465     1
   1453   1454     1
   1453   1457     1
   1453   1475     1
   1453   1464     1
   1453   1465     1
   1454   1458     1
   1454   1459     1
   1454   1473     1
   1454   1474     1
   1455   1457     1
   1455   1472     1
   1455   1467     1
   1455   1468     1
   1456   1457     1
   1456   1472     1
   1456   1467     1
   1456   1468     1
   1457   1470     1
   1457   1471     1
   1458   1469     1
   1458   1461     1
   1458   1462     1
   1459   1469     1
   1459   1461     1
   1459   1462     1
   1461   1478     1
   1461   1470     1
   1461   1471     1
   1462   1478     1
   1462   1470     1
   1462   1471     1
   1464   3015     1
   1464   1476     1
   1464   1477     1
   1465   3015     1
   1465   1476     1
   1465   1477     1
   1467   2986     1
   1467   1473     1
   1467   1474     1
   1468   2986     1
   1468   1473     1
   1468   1474     1
   1472   2978     1
   1472   2979     1
   1473   2977     1
   1474   2977     1
   1475   3007     1
   1475   3008     1
   1476   3006     1
   1477   3006     1
   1479   1493     1
   1479   1494     1
   1479   1496     1
   1479   1497     1
   1479   1490     1
   1479   1491     1
   1480   1484     1
   1480   1485     1
   1480   1487     1
   1480   1488     1
   1480   1505     1
   1480   1506     1
   1481   1483     1
   1481   1486     1
   1481   1504     1
   1481   1493     1
   1481   1494     1
   1482   1483     1
   1482   1486     1
   1482   1504     1
   1482   1493     1
   1482   1494     1
   1483   1487     1
   1483   1488     1
   1483   1502     1
   1483   1503     1
   1484   1486     1
   1484   1501     1
   1484   1496     1
   1484   1497     1
   1485   1486     1
   1485   1501     1
   1485   1496     1
   1485   1497     1
   1486   1499     1
   1486   1500     1
   1487   1498     1
   1487   1490     1
   1487   1491     1
   1488   1498     1
   1488   1490     1
   1488   1491     1
   1490   1507     1
   1490   1499     1
   1490   1500     1
   1491   1507     1
   1491   1499     1
   1491   1500     1
   1493   3073     1
   1493   1505     1
   1493   1506     1
   1494   3073     1
   1494   1505     1
   1494   1506     1
   1496   3044     1
   1496   1502     1
   1496   1503     1
   1497   3044     1
   1497   1502     1
   1497   1503     1
   1501   3036     1
   1501   3037     1
   1502   3035     1
   1503   3035     1
   1504   3065     1
   1504   3066     1
   1505   3064     1
   1506   3064     1
   1508   1522     1
   1508   1523     1
   1508   1525     1
   1508   1526     1
   1508   1519     1
   1508   1520     1
   1509   1513     1
   1509   1514     1
   1509   1516     1
   1509   1517     1
   1509   1534     1
   1509   1535     1
   1510   1512     1
   1510   1515     1
   1510   1533     1
   1510   1522     1
   1510   1523     1
   1511   1512     1
   1511   1515     1
   1511   1533     1
   1511   1522     1
   1511   1523     1
   1512   1516     1
   1512   1517     1
   1512   1531     1
   1512   1532     1
   1513   1515     1
   1513   1530     1
   1513   1525     1
   1513   1526     1
   1514   1515     1
   1514   1530     1
   1514   1525     1
   1514   1526     1
   1515   1528     1
   1515   1529     1
   1516   1527     1
   1516   1519     1
   1516   1520     1
   1517   1527     1
   1517   1519     1
   1517   1520     1
   1519   1536     1
   1519   1528     1
   1519   1529     1
   1520   1536     1
   1520   1528     1
   1520   1529     1
   1522   3131     1
   1522   1534     1
   1522   1535     1
   1523   3131     1
   1523   1534     1
   1523   1535     1
   1525   3102     1
   1525   1531     1
   1525   1532     1
   1526   3102     1
   1526   1531     1
   1526   1532     1
   1530   3094     1
   1530   3095     1
   1531   3093     1
   1532   3093     1
   1533   3123     1
   1533   3124     1
   1534   3122     1
   1535   3122     1
   1537   1551     1
   1537   1552     1
   1537   1554     1
   1537   1555     1
   1537   1548     1
   1537   1549     1
   1538   1542     1
   1538   1543     1
   1538   1545     1
   1538   1546     1
   1538   1563     1
   1538   1564     1
   1539   1541     1
   1539   1544     1
   1539   1562     1
   1539   1551     1
   1539   1552     1
   1540   1541     1
   1540   1544     1
   1540   1562     1
   1540   1551     1
   1540   1552     1
   1541   1545     1
   1541   1546     1
   1541   1560     1
   1541   1561     1
   1542   1544     1
   1542   1559     1
   1542   1554     1
   1542   1555     1
   1543   1544     1
   1543   1559     1
   1543   1554     1
   1543   1555     1
   1544   1557     1
   1544   1558     1
   1545   1556     1
   1545   1548     1
   1545   1549     1
   1546   1556     1
   1546   1548     1
   1546   1549     1
   1548   1565     1
   1548   1557     1
   1548   1558     1
   1549   1565     1
   1549   1557     1
   1549   1558     1
   1551   3189     1
   1551   1563     1
   1551   1564     1
   1552   3189     1
   1552   1563     1
   1552   1564     1
   1554   3160     1
   1554   1560     1
   1554   1561     1
   1555   3160     1
   1555   1560     1
   1555   1561     1
   1559   3152     1
   1559   3153     1
   1560   3151     1
   1561   3151     1
   1562   3181     1
   1562   3182     1
   1563   3180     1
   1564   3180     1
   1566   1580     1
   1566   1581     1
   1566   1583     1
   1566   1584     1
   1566   1577     1
   1566   1578     1
   1567   1571     1
   1567   1572     1
   1567   1574     1
   1567   1575     1
   1567   1592     1
   1567   1593     1
   1568   1570     1
   1568   1573     1
   1568   1591     1
   1568   1580     1
   1568   1581     1
   1569   1570     1
   1569   1573     1
   1569   1591     1
   1569   1580     1
   1569   1581     1
   1570   1574     1
   1570   1575     1
   1570   1589     1
   1570   1590     1
   1571   1573     1
   1571   1588     1
   1571   1583     1
   1571   1584     1
   1572   1573     1
   1572   1588     1
   1572   1583     1
   1572   1584     1
   1573   1586     1
   1573   1587     1
   1574   1585     1
   1574   1577     1
   1574   1578     1
   1575   1585     1
   1575   1577     1
   1575   1578     1
   1577   1594     1
   1577   1586     1
   1577   1587     1
   1578   1594     1
   1578   1586     1
   1578   1587     1
   1580   3247     1
   1580   1592     1
   1580   1593     1
   1581   3247     1
   1581   1592     1
   1581   1593     1
   1583   3218     1
   1583   1589     1
   1583   1590     1
   1584   3218     1
   1584   1589     1
   1584   1590     1
   1588   3210     1
   1588   3211     1
   1589   3209     1
   1590   3209     1
   1591   3239     1
   1591   3240     1
   1592   3238     1
   1593   3238     1
   1595   1609     1
   1595   1610     1
   1595   1612     1
   1595   1613     1
   1595   1606     1
   1595   1607     1
   1596   1600     1
   1596   1601     1
   1596   1603     1
   1596   1604     1
   1596   1621     1
   1596   1622     1
   1597   1599     1
   1597   1602     1
   1597   1620     1
   1597   1609     1
   1597   1610     1
   1598   1599     1
   1598   1602     1
   1598   1620     1
   1598   1609     1
   1598   1610     1
   1599   1603     1
   1599   1604     1
   1599   1618     1
   1599   1619     1
   1600   1602     1
   1600   1617     1
   1600   1612     1
   1600   1613     1
   1601   1602     1
   1601   1617     1
   1601   1612     1
   1601   1613     1
   1602   1615     1
   1602   1616     1
   1603   1614     1
   1603   1606     1
   1603   1607     1
   1604   1614     1
   1604   1606     1
   1604   1607     1
   1606   1623     1
   1606   1615     1
   1606   1616     1
   1607   1623     1
   1607   1615     1
   1607   1616     1
   1609   3305     1
   1609   1621     1
   1609   1622     1
   1610   3305     1
   1610   1621     1
   1610   1622     1
   1612   3276     1
   1612   1618     1
   1612   1619     1
   1613   3276     1
   1613   1618     1
   1613   1619     1
   1617   3268     1
   1617   3269     1
   1618   3267     1
   1619   3267     1
   1620   3297     1
   1620   3298     1
   1621   3296     1
   1622   3296     1
   1624   1638     1
   1624   1639     1
   1624   1641     1
   1624   1642     1
   1624   1635     1
   1624   1636     1
   1625   1629     1
   1625   1630     1
   1625   1632     1
   1625   1633     1
   1625   1650     1
   1625   1651     1
   1626   1628     1
   1626   1631     1
   1626   1649     1
   1626   1638     1
   1626   1639     1
   1627   1628     1
   1627   1631     1
   1627   1649     1
   1627   1638     1
   1627   1639     1
   1628   1632     1
   1628   1633     1
   1628   1647     1
   1628   1648     1
   1629   1631     1
   1629   1646     1
   1629   1641     1
   1629   1642     1
   1630   1631     1
   1630   1646     1
   1630   1641     1
   1630   1642     1
   1631   1644     1
   1631   1645     1
   1632   1643     1
   1632   1635     1
   1632   1636     1
   1633   1643     1
   1633   1635     1
   1633   1636     1
   1635   1652     1
   1635   1644     1
   1635   1645     1
   1636   1652     1
   1636   1644     1
   1636   1645     1
   1638   3363     1
   1638   1650     1
   1638   1651     1
   1639   3363     1
   1639   1650     1
   1639   1651     1
   1641   3334     1
   1641   1647     1
   1641   1648     1
   1642   3334     1
   1642   1647     1
   1642   1648     1
   1646   3326     1
   1646   3327     1
   1647   3325     1
   1648   3325     1
   1649   3355     1
   1649   3356     1
   1650   3354     1
   1651   3354     1
   1653   1667     1
   1653   1668     1
   1653   1670     1
   1653   1671     1
   1653   1664     1
   1653   1665     1
   1654   1658     1
   1654   1659     1
   1654   1661     1
   1654   1662     1
   1654   1679     1
   1654   1680     1
   1655   1657     1
   1655   1660     1
   1655   1678     1
   1655   1667     1
   1655   1668     1
   1656   1657     1
   1656   1660     1
   1656   1678     1
   1656   1667     1
   1656   1668     1
   1657   1661     1
   1657   1662     1
   1657   1676     1
   1657   1677     1
   1658   1660     1
   1658   1675     1
   1658   1670     1
   1658   1671     1
   1659   1660     1
   1659   1675     1
   1659   1670     1
   1659   1671     1
   1660   1673     1
   1660   1674     1
   1661   1672     1
   1661   1664     1
   1661   1665     1
   1662   1672     1
   1662   1664     1
   1662   1665     1
   1664   1681     1
   1664   1673     1
   1664   1674     1
   1665   1681     1
   1665   1673     1
   1665   1674     1
   1667   3421     1
   1667   1679     1
   1667   1680     1
   1668   3421     1
   1668   1679     1
   1668   1680     1
   1670   3392     1
   1670   1676     1
   1670   1677     1
   1671   3392     1
   1671   1676     1
   1671   1677     1
   1675   3384     1
   1675   3385     1
   1676   3383     1
   1677   3383     1
   1678   3413     1
   1678   3414     1
   1679   3412     1
   1680   3412     1
   1682   1696     1
   1682   1697     1
   1682   1699     1
   1682   1700     1
   1682   1693     1
   1682   1694     1
   1683   1687     1
   1683   1688     1
   1683   1690     1
   1683   1691     1
   1683   1708     1
   1683   1709     1
   1684   1686     1
   1684   1689     1
   1684   1707     1
   1684   1696     1
   1684   1697     1
   1685   1686     1
   1685   1689     1
   1685   1707     1
   1685   1696     1
   1685   1697     1
   1686   1690     1
   1686   1691     1
   1686   1705     1
   1686   1706     1
   1687   1689     1
   1687   1704     1
   1687   1699     1
   1687   1700     1
   1688   1689     1
   1688   1704     1
   1688   1699     1
   1688   1700     1
   1689   1702     1
   1689   1703     1
   1690   1701     1
   1690   1693     1
   1690   1694     1
   1691   1701     1
   1691   1693     1
   1691   1694     1
   1693   1710     1
   1693   1702     1
   1693   1703     1
   1694   1710     1
   1694   1702     1
   1694   1703     1
   1696   3479     1
   1696   1708     1
   1696   1709     1
   1697   3479     1
   1697   1708     1
   1697   1709     1
   1699   3450     1
   1699   1705     1
   1699   1706     1
   1700   3450     1
   1700   1705     1
   1700   1706     1
   1704   3442     1
   1704   3443     1
   1705   3441     1
   1706   3441     1
   1707   3471     1
   1707   3472     1
   1708   3470     1
   1709   3470     1
   1711   1725     1
   1711   1726     1
   1711   1728     1
   1711   1729     1
   1711   1722     1
   1711   1723     1
   1712   1716     1
   1712   1717     1
   1712   1719     1
   1712   1720     1
   1712   1737     1
   1712   1738     1
   1713   1715     1
   1713   1718     1
   1713   1736     1
   1713   1725     1
   1713   1726     1
   1714   1715     1
   1714   1718     1
   1714   1736     1
   1714   1725     1
   1714   1726     1
   1715   1719     1
   1715   1720     1
   1715   1734     1
   1715   1735     1
   1716   1718     1
   1716   1733     1
   1716   1728     1
   1716   1729     1
   1717   1718     1
   1717   1733     1
   1717   1728     1
   1717   1729     1
   1718   1731     1
   1718   1732     1
   1719   1730     1
   1719   1722     1
   1719   1723     1
   1720   1730     1
   1720   1722     1
   1720   1723     1
   1722   1739     1
   1722   1731     1
   1722   1732     1
   1723   1739     1
   1723   1731     1
   1723   1732     1
   1725   3537     1
   1725   1737     1
   1725   1738     1
   1726   3537     1
   1726   1737     1
   1726   1738     1
   1728   3508     1
   1728   1734     1
   1728   1735     1
   1729   3508     1
   1729   1734     1
   1729   1735     1
   1733   3500     1
   1733   3501     1
   1734   3499     1
   1735   3499     1
   1736   3529     1
   1736   3530     1
   1737   3528     1
   1738   3528     1
   1740   1754     1
   1740   1755     1
   1740   1757     1
   1740   1758     1
   1740   1751     1
   1740   1752     1
   1741   1745     1
   1741   1746     1
   1741   1748     1
   1741   1749     1
   1741   1766     1
   1741   1767     1
   1742   1744     1
   1742   1747     1
   1742   1765     1
   1742   1754     1
   1742   1755     1
   1743   1744     1
   1743   1747     1
   1743   1765     1
   1743   1754     1
   1743   1755     1
   1744   1748     1
   1744   1749     1
   1744   1763     1
   1744   1764     1
   1745   1747     1
   1745   1762     1
   1745   1757     1
   1745   1758     1
   1746   1747     1
   1746   1762     1
   1746   1757     1
   1746   1758     1
   1747   1760     1
   1747   1761     1
   1748   1759     1
   1748   1751     1
   1748   1752     1
   1749   1759     1
   1749   1751     1
   1749   1752     1
   1751   1768     1
   1751   1760     1
   1751   1761     1
   1752   1768     1
   1752   1760     1
   1752   1761     1
   1754   3595     1
   1754   1766     1
   1754   1767     1
   1755   3595     1
   1755   1766     1
   1755   1767     1
   1757   3566     1
   1757   1763     1
   1757   1764     1
   1758   3566     1
   1758   1763     1
   1758   1764     1
   1762   3558     1
   1762   3559     1
   1763   3557     1
   1764   3557     1
   1765   3587     1
   1765   3588     1
   1766   3586     1
   1767   3586     1
   1769   1783     1
   1769   1784     1
   1769   1786     1
   1769   1787     1
   1769   1780     1
   1769   1781     1
   1770   1774     1
   1770   1775     1
   1770   1777     1
   1770   1778     1
   1770   1795     1
   1770   1796     1
   1771   1773     1
   1771   1776     1
   1771   1794     1
   1771   1783     1
   1771   1784     1
   1772   1773     1
   1772   1776     1
   1772   1794     1
   1772   1783     1
   1772   1784     1
   1773   1777     1
   1773   1778     1
   1773   1792     1
   1773   1793     1
   1774   1776     1
   1774   1791     1
   1774   1786     1
   1774   1787     1
   1775   1776     1
   1775   1791     1
   1775   1786     1
   1775   1787     1
   1776   1789     1
   1776   1790     1
   1777   1788     1
   1777   1780     1
   1777   1781     1
   1778   1788     1
   1778   1780     1
   1778   1781     1
   1780   1797     1
   1780   1789     1
   1780   1790     1
   1781   1797     1
   1781   1789     1
   1781   1790     1
   1783   3653     1
   1783   1795     1
   1783   1796     1
   1784   3653     1
   1784   1795     1
   1784   1796     1
   1786   3624     1
   1786   1792     1
   1786   1793     1
   1787   3624     1
   1787   1792     1
   1787   1793     1
   1791   3616     1
   1791   3617     1
   1792   3615     1
   1793   3615     1
   1794   3645     1
   1794   3646     1
   1795   3644     1
   1796   3644     1
   1798   1812     1
   1798   1813     1
   1798   1815     1
   1798   1816     1
   1798   1809     1
   1798   1810     1
   1799   1803     1
   1799   1804     1
   1799   1806     1
   1799   1807     1
   1799   1824     1
   1799   1825     1
   1800   1802     1
   1800   1805     1
   1800   1823     1
   1800   1812     1
   1800   1813     1
   1801   1802     1
   1801   1805     1
   1801   1823     1
   1801   1812     1
   1801   1813     1
   1802   1806     1
   1802   1807     1
   1802   1821     1
   1802   1822     1
   1803   1805     1
   1803   1820     1
   1803   1815     1
   1803   1816     1
   1804   1805     1
   1804   1820     1
   1804   1815     1
   1804   1816     1
   1805   1818     1
   1805   1819     1
   1806   1817     1
   1806   1809     1
   1806   1810     1
   1807   1817     1
   1807   1809     1
   1807   1810     1
   1809   1826     1
   1809   1818     1
   1809   1819     1
   1810   1826     1
   1810   1818     1
   1810   1819     1
   1812   3711     1
   1812   1824     1
   1812   1825     1
   1813   3711     1
   1813   1824     1
   1813   1825     1
   1815   3682     1
   1815   1821     1
   1815   1822     1
   1816   3682     1
   1816   1821     1
   1816   1822     1
   1820   3674     1
   1820   3675     1
   1821   3673     1
   1822   3673     1
   1823   3703     1
   1823   3704     1
   1824   3702     1
   1825   3702     1
   1827   1841     1
   1827   1842     1
   1827   1844     1
   1827   1845     1
   1827   1838     1
   1827   1839     1
   1828   1832     1
   1828   1833     1
   1828   1835     1
   1828   1836     1
   1828   1853     1
   1828   1854     1
   1829   1831     1
   1829   1834     1
   1829   1852     1
   1829   1841     1
   1829   1842     1
   1830   1831     1
   1830   1834     1
   1830   1852     1
   1830   1841     1
   1830   1842     1
   1831   1835     1
   1831   1836     1
   1831   1850     1
   1831   1851     1
   1832   1834     1
   1832   1849     1
   1832   1844     1
   1832   1845     1
   1833   1834     1
   1833   1849     1
   1833   1844     1
   1833   1845     1
   1834   1847     1
   1834   1848     1
   1835   1846     1
   1835   1838     1
   1835   1839     1
   1836   1846     1
   1836   1838     1
   1836   1839     1
   1838   1855     1
   1838   1847     1
   1838   1848     1
   1839   1855     1
   1839   1847     1
   1839   1848     1
   1841   3769     1
   1841   1853     1
   1841   1854     1
   1842   3769     1
   1842   1853     1
   1842   1854     1
   1844   3740     1
   1844   1850     1
   1844   1851     1
   1845   3740     1
   1845   1850     1
   1845   1851     1
   1849   3732     1
   1849   3733     1
   1850   3731     1
   1851   3731     1
   1852   3761     1
   1852   3762     1
   1853   3760     1
   1854   3760     1
   1856   1870     1
   1856   1871     1
   1856   1873     1
   1856   1874     1
   1856   1867     1
   1856   1868     1
   1857   1861     1
   1857   1862     1
   1857   1864     1
   1857   1865     1
   1857   1882     1
   1857   1883     1
   1858   1860     1
   1858   1863     1
   1858   1881     1
   1858   1870     1
   1858   1871     1
   1859   1860     1
   1859   1863     1
   1859   1881     1
   1859   1870     1
   1859   1871     1
   1860   1864     1
   1860   1865     1
   1860   1879     1
   1860   1880     1
   1861   1863     1
   1861   1878     1
   1861   1873     1
   1861   1874     1
   1862   1863     1
   1862   1878     1
   1862   1873     1
   1862   1874     1
   1863   1876     1
   1863   1877     1
   1864   1875     1
   1864   1867     1
   1864   1868     1
   1865   1875     1
   1865   1867     1
   1865   1868     1
   1867   1884     1
   1867   1876     1
   1867   1877     1
   1868   1884     1
   1868   1876     1
   1868   1877     1
   1870   3827     1
   1870   1882     1
   1870   1883     1
   1871   3827     1
   1871   1882     1
   1871   1883     1
   1873   3798     1
   1873   1879     1
   1873   1880     1
   1874   3798     1
   1874   1879     1
   1874   1880     1
   1878   3790     1
   1878   3791     1
   1879   3789     1
   1880   3789     1
   1881   3819     1
   1881   3820     1
   1882   3818     1
   1883   3818     1
   1885   1899     1
   1885   1900     1
   1885   1902     1
   1885   1903     1
   1885   1896     1
   1885   1897     1
   1886   1890     1
   1886   1891     1
   1886   1893     1
   1886   1894     1
   1886   1911     1
   1886   1912     1
   1887   1889     1
   1887   1892     1
   1887   1910     1
   1887   1899     1
   1887   1900     1
   1888   1889     1
   1888   1892     1
   1888   1910     1
   1888   1899     1
   1888   1900     1
   1889   1893     1
   1889   1894     1
   1889   1908     1
   1889   1909     1
   1890   1892     1
   1890   1907     1
   1890   1902     1
   1890   1903     1
   1891   1892     1
   1891   1907     1
   1891   1902     1
   1891   1903     1
   1892   1905     1
   1892   1906     1
   1893   1904     1
   1893   1896     1
   1893   1897     1
   1894   1904     1
   1894   1896     1
   1894   1897     1
   1896   1913     1
   1896   1905     1
   1896   1906     1
   1897   1913     1
   1897   1905     1
   1897   1906     1
   1899   3885     1
   1899   1911     1
   1899   1912     1
   1900   3885     1
   1900   1911     1
   1900   1912     1
   1902   3856     1
   1902   1908     1
   1902   1909     1
   1903   3856     1
   1903   1908     1
   1903   1909     1
   1907   3848     1
   1907   3849     1
   1908   3847     1
   1909   3847     1
   1910   3877     1
   1910   3878     1
   1911   3876     1
   1912   3876     1
   1914   1928     1
   1914   1929     1
   1914   1931     1
   1914   1932     1
   1914   1925     1
   1914   1926     1
   1915   1919     1
   1915   1920     1
   1915   1922     1
   1915   1923     1
   1915   1940     1
   1915   1941     1
   1916   1918     1
   1916   1921     1
   1916   1939     1
   1916   1928     1
   1916   1929     1
   1917   1918     1
   1917   1921     1
   1917   1939     1
   1917   1928     1
   1917   1929     1
   1918   1922     1
   1918   1923     1
   1918   1937     1
   1918   1938     1
   1919   1921     1
   1919   1936     1
   1919   1931     1
   1919   1932     1
   1920   1921     1
   1920   1936     1
   1920   1931     1
   1920   1932     1
   1921   1934     1
   1921   1935     1
   1922   1933     1
   1922   1925     1
   1922   1926     1
   1923   1933     1
   1923   1925     1
   1923   1926     1
   1925   1942     1
   1925   1934     1
   1925   1935     1
   1926   1942     1
   1926   1934     1
   1926   1935     1
   1928   3943     1
   1928   1940     1
   1928   1941     1
   1929   3943     1
   1929   1940     1
   1929   1941     1
   1931   3914     1
   1931   1937     1
   1931   1938     1
   1932   3914     1
   1932   1937     1
   1932   1938     1
   1936   3906     1
   1936   3907     1
   1937   3905     1
   1938   3905     1
   1939   3935     1
   1939   3936     1
   1940   3934     1
   1941   3934     1
   1943   1957     1
   1943   1958     1
   1943   1960     1
   1943   1961     1
   1943   1954     1
   1943   1955     1
   1944   1948     1
   1944   1949     1
   1944   1951     1
   1944   1952     1
   1944   1969     1
   1944   1970     1
   1945   1947     1
   1945   1950     1
   1945   1968     1
   1945   1957     1
   1945   1958     1
   1946   1947     1
   1946   1950     1
   1946   1968     1
   1946   1957     1
   1946   1958     1
   1947   1951     1
   1947   1952     1
   1947   1966     1
   1947   1967     1
   1948   1950     1
   1948   1965     1
   1948   1960     1
   1948   1961     1
   1949   1950     1
   1949   1965     1
   1949   1960     1
   1949   1961     1
   1950   1963     1
   1950   1964     1
   1951   1962     1
   1951   1954     1
   1951   1955     1
   1952   1962     1
   1952   1954     1
   1952   1955     1
   1954   1971     1
   1954   1963     1
   1954   1964     1
   1955   1971     1
   1955   1963     1
   1955   1964     1
   1957   4001     1
   1957   1969     1
   1957   1970     1
   1958   4001     1
   1958   1969     1
   1958   1970     1
   1960   3972     1
   1960   1966     1
   1960   1967     1
   1961   3972     1
   1961   1966     1
   1961   1967     1
   1965   3964     1
   1965   3965     1
   1966   3963     1
   1967   3963     1
   1968   3993     1
   1968   3994     1
   1969   3992     1
   1970   3992     1
   1972   1986     1
   1972   1987     1
   1972   1989     1
   1972   1990     1
   1972   1983     1
   1972   1984     1
   1973   1977     1
   1973   1978     1
   1973   1980     1
   1973   1981     1
   1973   1998     1
   1973   1999     1
   1974   1976     1
   1974   1979     1
   1974   1997     1
   1974   1986     1
   1974   1987     1
   1975   1976     1
   1975   1979     1
   1975   1997     1
   1975   1986     1
   1975   1987     1
   1976   1980     1
   1976   1981     1
   1976   1995     1
   1976   1996     1
   1977   1979     1
   1977   1994     1
   1977   1989     1
   1977   1990     1
   1978   1979     1
   1978   1994     1
   1978   1989     1
   1978   1990     1
   1979   1992     1
   1979   1993     1
   1980   1991     1
   1980   1983     1
   1980   1984     1
   1981   1991     1
   1981   1983     1
   1981   1984     1
   1983   2000     1
   1983   1992     1
   1983   1993     1
   1984   2000     1
   1984   1992     1
   1984   1993     1
   1986   4059     1
   1986   1998     1
   1986   1999     1
   1987   4059     1
   1987   1998     1
   1987   1999     1
   1989   4030     1
   1989   1995     1
   1989   1996     1
   1990   4030     1
   1990   1995     1
   1990   1996     1
   1994   4022     1
   1994   4023     1
   1995   4021     1
   1996   4021     1
   1997   4051     1
   1997   4052     1
   1998   4050     1
   1999   4050     1
   2001   2015     1
   2001   2016     1
   2001   2018     1
   2001   2019     1
   2001   2012     1
   2001   2013     1
   2002   2006     1
   2002   2007     1
   2002   2009     1
   2002   2010     1
   2002   2027     1
   2002   2028     1
   2003   2005     1
   2003   2008     1
   2003   2026     1
   2003   2015     1
   2003   2016     1
   2004   2005     1
   2004   2008     1
   2004   2026     1
   2004   2015     1
   2004   2016     1
   2005   2009     1
   2005   2010     1
   2005   2024     1
   2005   2025     1
   2006   2008     1
   2006   2023     1
   2006   2018     1
   2006   2019     1
   2007   2008     1
   2007   2023     1
   2007   2018     1
   2007   2019     1
   2008   2021     1
   2008   2022     1
   2009   2020     1
   2009   2012     1
   2009   2013     1
   2010   2020     1
   2010   2012     1
   2010   2013     1
   2012   2029     1
   2012   2021     1
   2012   2022     1
   2013   2029     1
   2013   2021     1
   2013   2022     1
   2015   4117     1
   2015   2027     1
   2015   2028     1
   2016   4117     1
   2016   2027     1
   2016   2028     1
   2018   4088     1
   2018   2024     1
   2018   2025     1
   2019   4088     1
   2019   2024     1
   2019   2025     1
   2023   4080     1
   2023   4081     1
   2024   4079     1
   2025   4079     1
   2026   4109     1
   2026   4110     1
   2027   4108     1
   2028   4108     1
   2030   2044     1
   2030   2045     1
   2030   2047     1
   2030   2048     1
   2030   2041     1
   2030   2042     1
   2031   2035     1
   2031   2036     1
   2031   2038     1
   2031   2039     1
   2031   2056     1
   2031   2057     1
   2032   2034     1
   2032   2037     1
   2032   2055     1
   2032   2044     1
   2032   2045     1
   2033   2034     1
   2033   2037     1
   2033   2055     1
   2033   2044     1
   2033   2045     1
   2034   2038     1
   2034   2039     1
   2034   2053     1
   2034   2054     1
   2035   2037     1
   2035   2052     1
   2035   2047     1
   2035   2048     1
   2036   2037     1
   2036   2052     1
   2036   2047     1
   2036   2048     1
   2037   2050     1
   2037   2051     1
   2038   2049     1
   2038   2041     1
   2038   2042     1
   2039   2049     1
   2039   2041     1
   2039   2042     1
   2041   2058     1
   2041   2050     1
   2041   2051     1
   2042   2058     1
   2042   2050     1
   2042   2051     1
   2044   4175     1
   2044   2056     1
   2044   2057     1
   2045   4175     1
   2045   2056     1
   2045   2057     1
   2047   4146     1
   2047   2053     1
   2047   2054     1
   2048   4146     1
   2048   2053     1
   2048   2054     1
   2052   4138     1
   2052   4139     1
   2053   4137     1
   2054   4137     1
   2055   4167     1
   2055   4168     1
   2056   4166     1
   2057   4166     1
   2059   2073     1
   2059   2074     1
   2059   2076     1
   2059   2077     1
   2059   2070     1
   2059   2071     1
   2060   2064     1
   2060   2065     1
   2060   2067     1
   2060   2068     1
   2060   2085     1
   2060   2086     1
   2061   2063     1
   2061   2066     1
   2061   2084     1
   2061   2073     1
   2061   2074     1
   2062   2063     1
   2062   2066     1
   2062   2084     1
   2062   2073     1
   2062   2074     1
   2063   2067     1
   2063   2068     1
   2063   2082     1
   2063   2083     1
   2064   2066     1
   2064   2081     1
   2064   2076     1
   2064   2077     1
   2065   2066     1
   2065   2081     1
   2065   2076     1
   2065   2077     1
   2066   2079     1
   2066   2080     1
   2067   2078     1
   2067   2070     1
   2067   2071     1
   2068   2078     1
   2068   2070     1
   2068   2071     1
   2070   2087     1
   2070   2079     1
   2070   2080     1
   2071   2087     1
   2071   2079     1
   2071   2080     1
   2073   4233     1
   2073   2085     1
   2073   2086     1
   2074   4233     1
   2074   2085     1
   2074   2086     1
   2076   4204     1
   2076   2082     1
   2076   2083     1
   2077   4204     1
   2077   2082     1
   2077   2083     1
   2081   4196     1
   2081   4197     1
   2082   4195     1
   2083   4195     1
   2084   4225     1
   2084   4226     1
   2085   4224     1
   2086   4224     1
   2088   2102     1
   2088   2103     1
   2088   2105     1
   2088   2106     1
   2088   2099     1
   2088   2100     1
   2089   2093     1
   2089   2094     1
   2089   2096     1
   2089   2097     1
   2089   2114     1
   2089   2115     1
   2090   2092     1
   2090   2095     1
   2090   2113     1
   2090   2102     1
   2090   2103     1
   2091   2092     1
   2091   2095     1
   2091   2113     1
   2091   2102     1
   2091   2103     1
   2092   2096     1
   2092   2097     1
   2092   2111     1
   2092   2112     1
   2093   2095     1
   2093   2110     1
   2093   2105     1
   2093   2106     1
   2094   2095     1
   2094   2110     1
   2094   2105     1
   2094   2106     1
   2095   2108     1
   2095   2109     1
   2096   2107     1
   2096   2099     1
   2096   2100     1
   2097   2107     1
   2097   2099     1
   2097   2100     1
   2099   2116     1
   2099   2108     1
   2099   2109     1
   2100   2116     1
   2100   2108     1
   2100   2109     1
   2102   4291     1
   2102   2114     1
   2102   2115     1
   2103   4291     1
   2103   2114     1
   2103   2115     1
   2105   4262     1
   2105   2111     1
   2105   2112     1
   2106   4262     1
   2106   2111     1
   2106   2112     1
   2110   4254     1
   2110   4255     1
   2111   4253     1
   2112   4253     1
   2113   4283     1
   2113   4284     1
   2114   4282     1
   2115   4282     1
   2117   2131     1
   2117   2132     1
   2117   2134     1
   2117   2135     1
   2117   2128     1
   2117   2129     1
   2118   2122     1
   2118   2123     1
   2118   2125     1
   2118   2126     1
   2118   2143     1
   2118   2144     1
   2119   2121     1
   2119   2124     1
   2119   2142     1
   2119   2131     1
   2119   2132     1
   2120   2121     1
   2120   2124     1
   2120   2142     1
   2120   2131     1
   2120   2132     1
   2121   2125     1
   2121   2126     1
   2121   2140     1
   2121   2141     1
   2122   2124     1
   2122   2139     1
   2122   2134     1
   2122   2135     1
   2123   2124     1
   2123   2139     1
   2123   2134     1
   2123   2135     1
   2124   2137     1
   2124   2138     1
   2125   2136     1
   2125   2128     1
   2125   2129     1
   2126   2136     1
   2126   2128     1
   2126   2129     1
   2128   2145     1
   2128   2137     1
   2128   2138     1
   2129   2145     1
   2129   2137     1
   2129   2138     1
   2131   4349     1
   2131   2143     1
   2131   2144     1
   2132   4349     1
   2132   2143     1
   2132   2144     1
   2134   4320     1
   2134   2140     1
   2134   2141     1
   2135   4320     1
   2135   2140     1
   2135   2141     1
   2139   4312     1
   2139   4313     1
   2140   4311     1
   2141   4311     1
   2142   4341     1
   2142   4342     1
   2143   4340     1
   2144   4340     1
   2146   2160     1
   2146   2161     1
   2146   2163     1
   2146   2164     1
   2146   2157     1
   2146   2158     1
   2147   2151     1
   2147   2152     1
   2147   2154     1
   2147   2155     1
   2147   2172     1
   2147   2173     1
   2148   2150     1
   2148   2153     1
   2148   2171     1
   2148   2160     1
   2148   2161     1
   2149   2150     1
   2149   2153     1
   2149   2171     1
   2149   2160     1
   2149   2161     1
   2150   2154     1
   2150   2155     1
   2150   2169     1
   2150   2170     1
   2151   2153     1
   2151   2168     1
   2151   2163     1
   2151   2164     1
   2152   2153     1
   2152   2168     1
   2152   2163     1
   2152   2164     1
   2153   2166     1
   2153   2167     1
   2154   2165     1
   2154   2157     1
   2154   2158     1
   2155   2165     1
   2155   2157     1
   2155   2158     1
   2157   2174     1
   2157   2166     1
   2157   2167     1
   2158   2174     1
   2158   2166     1
   2158   2167     1
   2160   4407     1
   2160   2172     1
   2160   2173     1
   2161   4407     1
   2161   2172     1
   2161   2173     1
   2163   4378     1
   2163   2169     1
   2163   2170     1
   2164   4378     1
   2164   2169     1
   2164   2170     1
   2168   4370     1
   2168   4371     1
   2169   4369     1
   2170   4369     1
   2171   4399     1
   2171   4400     1
   2172   4398     1
   2173   4398     1
   2175   2189     1
   2175   2190     1
   2175   2192     1
   2175   2193     1
   2175   2186     1
   2175   2187     1
   2176   2180     1
   2176   2181     1
   2176   2183     1
   2176   2184     1
   2176   2201     1
   2176   2202     1
   2177   2179     1
   2177   2182     1
   2177   2200     1
   2177   2189     1
   2177   2190     1
   2178   2179     1
   2178   2182     1
   2178   2200     1
   2178   2189     1
   2178   2190     1
   2179   2183     1
   2179   2184     1
   2179   2198     1
   2179   2199     1
   2180   2182     1
   2180   2197     1
   2180   2192     1
   2180   2193     1
   2181   2182     1
   2181   2197     1
   2181   2192     1
   2181   2193     1
   2182   2195     1
   2182   2196     1
   2183   2194     1
   2183   2186     1
   2183   2187     1
   2184   2194     1
   2184   2186     1
   2184   2187     1
   2186   2203     1
   2186   2195     1
   2186   2196     1
   2187   2203     1
   2187   2195     1
   2187   2196     1
   2189   4465     1
   2189   2201     1
   2189   2202     1
   2190   4465     1
   2190   2201     1
   2190   2202     1
   2192   4436     1
   2192   2198     1
   2192   2199     1
   2193   4436     1
   2193   2198     1
   2193   2199     1
   2197   4428     1
   2197   4429     1
   2198   4427     1
   2199   4427     1
   2200   4457     1
   2200   4458     1
   2201   4456     1
   2202   4456     1
   2204   2218     1
   2204   2219     1
   2204   2221     1
   2204   2222     1
   2204   2215     1
   2204   2216     1
   2205   2209     1
   2205   2210     1
   2205   2212     1
   2205   2213     1
   2205   2230     1
   2205   2231     1
   2206   2208     1
   2206   2211     1
   2206   2229     1
   2206   2218     1
   2206   2219     1
   2207   2208     1
   2207   2211     1
   2207   2229     1
   2207   2218     1
   2207   2219     1
   2208   2212     1
   2208   2213     1
   2208   2227     1
   2208   2228     1
   2209   2211     1
   2209   2226     1
   2209   2221     1
   2209   2222     1
   2210   2211     1
   2210   2226     1
   2210   2221     1
   2210   2222     1
   2211   2224     1
   2211   2225     1
   2212   2223     1
   2212   2215     1
   2212   2216     1
   2213   2223     1
   2213   2215     1
   2213   2216     1
   2215   2232     1
   2215   2224     1
   2215   2225     1
   2216   2232     1
   2216   2224     1
   2216   2225     1
   2218   4523     1
   2218   2230     1
   2218   2231     1
   2219   4523     1
   2219   2230     1
   2219   2231     1
   2221   4494     1
   2221   2227     1
   2221   2228     1
   2222   4494     1
   2222   2227     1
   2222   2228     1
   2226   4486     1
   2226   4487     1
   2227   4485     1
   2228   4485     1
   2229   4515     1
   2229   4516     1
   2230   4514     1
   2231   4514     1
   2233   2247     1
   2233   2248     1
   2233   2250     1
   2233   2251     1
   2233   2244     1
   2233   2245     1
   2234   2238     1
   2234   2239     1
   2234   2241     1
   2234   2242     1
   2234   2259     1
   2234   2260     1
   2235   2237     1
   2235   2240     1
   2235   2258     1
   2235   2247     1
   2235   2248     1
   2236   2237     1
   2236   2240     1
   2236   2258     1
   2236   2247     1
   2236   2248     1
   2237   2241     1
   2237   2242     1
   2237   2256     1
   2237   2257     1
   2238   2240     1
   2238   2255     1
   2238   2250     1
   2238   2251     1
   2239   2240     1
   2239   2255     1
   2239   2250     1
   2239   2251     1
   2240   2253     1
   2240   2254     1
   2241   2252     1
   2241   2244     1
   2241   2245     1
   2242   2252     1
   2242   2244     1
   2242   2245     1
   2244   2261     1
   2244   2253     1
   2244   2254     1
   2245   2261     1
   2245   2253     1
   2245   2254     1
   2247   4581     1
   2247   2259     1
   2247   2260     1
   2248   4581     1
   2248   2259     1
   2248   2260     1
   2250   4552     1
   2250   2256     1
   2250   2257     1
   2251   4552     1
   2251   2256     1
   2251   2257     1
   2255   4544     1
   2255   4545     1
   2256   4543     1
   2257   4543     1
   2258   4573     1
   2258   4574     1
   2259   4572     1
   2260   4572     1
   2262   2276     1
   2262   2277     1
   2262   2279     1
   2262   2280     1
   2262   2273     1
   2262   2274     1
   2263   2267     1
   2263   2268     1
   2263   2270     1
   2263   2271     1
   2263   2288     1
   2263   2289     1
   2264   2266     1
   2264   2269     1
   2264   2287     1
   2264   2276     1
   2264   2277     1
   2265   2266     1
   2265   2269     1
   2265   2287     1
   2265   2276     1
   2265   2277     1
   2266   2270     1
   2266   2271     1
   2266   2285     1
   2266   2286     1
   2267   2269     1
   2267   2284     1
   2267   2279     1
   2267   2280     1
   2268   2269     1
   2268   2284     1
   2268   2279     1
   2268   2280     1
   2269   2282     1
   2269   2283     1
   2270   2281     1
   2270   2273     1
   2270   2274     1
   2271   2281     1
   2271   2273     1
   2271   2274     1
   2273   2290     1
   2273   2282     1
   2273   2283     1
   2274   2290     1
   2274   2282     1
   2274   2283     1
   2276   4639     1
   2276   2288     1
   2276   2289     1
   2277   4639     1
   2277   2288     1
   2277   2289     1
   2279   4610     1
   2279   2285     1
   2279   2286     1
   2280   4610     1
   2280   2285     1
   2280   2286     1
   2284   4602     1
   2284   4603     1
   2285   4601     1
   2286   4601     1
   2287   4631     1
   2287   4632     1
   2288   4630     1
   2289   4630     1
   2291   2305     1
   2291   2306     1
   2291   2308     1
   2291   2309     1
   2291   2302     1
   2291   2303     1
   2292   2296     1
   2292   2297     1
   2292   2299     1
   2292   2300     1
   2292   2317     1
   2292   2318     1
   2293   2295     1
   2293   2298     1
   2293   2316     1
   2293   2305     1
   2293   2306     1
   2294   2295     1
   2294   2298     1
   2294   2316     1
   2294   2305     1
   2294   2306     1
   2295   2299     1
   2295   2300     1
   2295   2314     1
   2295   2315     1
   2296   2298     1
   2296   2313     1
   2296   2308     1
   2296   2309     1
   2297   2298     1
   2297   2313     1
   2297   2308     1
   2297   2309     1
   2298   2311     1
   2298   2312     1
   2299   2310     1
   2299   2302     1
   2299   2303     1
   2300   2310     1
   2300   2302     1
   2300   2303     1
   2302   2319     1
   2302   2311     1
   2302   2312     1
   2303   2319     1
   2303   2311     1
   2303   2312     1
   2305   4697     1
   2305   2317     1
   2305   2318     1
   2306   4697     1
   2306   2317     1
   2306   2318     1
   2308   4668     1
   2308   2314     1
   2308   2315     1
   2309   4668     1
   2309   2314     1
   2309   2315     1
   2313   4660     1
   2313   4661     1
   2314   4659     1
   2315   4659     1
   2316   4689     1
   2316   4690     1
   2317   4688     1
   2318   4688     1
   2320   2334     1
   2320   2335     1
   2320   2337     1
   2320   2338     1
   2320   2331     1
   2320   2332     1
   2321   2325     1
   2321   2326     1
   2321   2328     1
   2321   2329     1
   2321   2346     1
   2321   2347     1
   2322   2324     1
   2322   2327     1
   2322   2345     1
   2322   2334     1
   2322   2335     1
   2323   2324     1
   2323   2327     1
   2323   2345     1
   2323   2334     1
   2323   2335     1
   2324   2328     1
   2324   2329     1
   2324   2343     1
   2324   2344     1
   2325   2327     1
   2325   2342     1
   2325   2337     1
   2325   2338     1
   2326   2327     1
   2326   2342     1
   2326   2337     1
   2326   2338     1
   2327   2340     1
   2327   2341     1
   2328   2339     1
   2328   2331     1
   2328   2332     1
   2329   2339     1
   2329   2331     1
   2329   2332     1
   2331   2348     1
   2331   2340     1
   2331   2341     1
   2332   2348     1
   2332   2340     1
   2332   2341     1
   2334   4755     1
   2334   2346     1
   2334   2347     1
   2335   4755     1
   2335   2346     1
   2335   2347     1
   2337   4726     1
   2337   2343     1
   2337   2344     1
   2338   4726     1
   2338   2343     1
   2338   2344     1
   2342   4718     1
   2342   4719     1
   2343   4717     1
   2344   4717     1
   2345   4747     1
   2345   4748     1
   2346   4746     1
   2347   4746     1
   2349   2363     1
   2349   2364     1
   2349   2366     1
   2349   2367     1
   2349   2360     1
   2349   2361     1
   2350   2354     1
   2350   2355     1
   2350   2357     1
   2350   2358     1
   2350   2375     1
   2350   2376     1
   2351   2353     1
   2351   2356     1
   2351   2374     1
   2351   2363     1
   2351   2364     1
   2352   2353     1
   2352   2356     1
   2352   2374     1
   2352   2363     1
   2352   2364     1
   2353   2357     1
   2353   2358     1
   2353   2372     1
   2353   2373     1
   2354   2356     1
   2354   2371     1
   2354   2366     1
   2354   2367     1
   2355   2356     1
   2355   2371     1
   2355   2366     1
   2355   2367     1
   2356   2369     1
   2356   2370     1
   2357   2368     1
   2357   2360     1
   2357   2361     1
   2358   2368     1
   2358   2360     1
   2358   2361     1
   2360   2377     1
   2360   2369     1
   2360   2370     1
   2361   2377     1
   2361   2369     1
   2361   2370     1
   2363   4813     1
   2363   2375     1
   2363   2376     1
   2364   4813     1
   2364   2375     1
   2364   2376     1
   2366   4784     1
   2366   2372     1
   2366   2373     1
   2367   4784     1
   2367   2372     1
   2367   2373     1
   2371   4776     1
   2371   4777     1
   2372   4775     1
   2373   4775     1
   2374   4805     1
   2374   4806     1
   2375   4804     1
   2376   4804     1
   2378   2392     1
   2378   2393     1
   2378   2395     1
   2378   2396     1
   2378   2389     1
   2378   2390     1
   2379   2383     1
   2379   2384     1
   2379   2386     1
   2379   2387     1
   2379   2404     1
   2379   2405     1
   2380   2382     1
   2380   2385     1
   2380   2403     1
   2380   2392     1
   2380   2393     1
   2381   2382     1
   2381   2385     1
   2381   2403     1
   2381   2392     1
   2381   2393     1
   2382   2386     1
   2382   2387     1
   2382   2401     1
   2382   2402     1
   2383   2385     1
   2383   2400     1
   2383   2395     1
   2383   2396     1
   2384   2385     1
   2384   2400     1
   2384   2395     1
   2384   2396     1
   2385   2398     1
   2385   2399     1
   2386   2397     1
   2386   2389     1
   2386   2390     1
   2387   2397     1
   2387   2389     1
   2387   2390     1
   2389   2406     1
   2389   2398     1
   2389   2399     1
   2390   2406     1
   2390   2398     1
   2390   2399     1
   2392   4871     1
   2392   2404     1
   2392   2405     1
   2393   4871     1
   2393   2404     1
   2393   2405     1
   2395   4842     1
   2395   2401     1
   2395   2402     1
   2396   4842     1
   2396   2401     1
   2396   2402     1
   2400   4834     1
   2400   4835     1
   2401   4833     1
   2402   4833     1
   2403   4863     1
   2403   4864     1
   2404   4862     1
   2405   4862     1
   2407   2421     1
   2407   2422     1
   2407   2424     1
   2407   2425     1
   2407   2418     1
   2407   2419     1
   2408   2412     1
   2408   2413     1
   2408   2415     1
   2408   2416     1
   2408   2433     1
   2408   2434     1
   2409   2411     1
   2409   2414     1
   2409   2432     1
   2409   2421     1
   2409   2422     1
   2410   2411     1
   2410   2414     1
   2410   2432     1
   2410   2421     1
   2410   2422     1
   2411   2415     1
   2411   2416     1
   2411   2430     1
   2411   2431     1
   2412   2414     1
   2412   2429     1
   2412   2424     1
   2412   2425     1
   2413   2414     1
   2413   2429     1
   2413   2424     1
   2413   2425     1
   2414   2427     1
   2414   2428     1
   2415   2426     1
   2415   2418     1
   2415   2419     1
   2416   2426     1
   2416   2418     1
   2416   2419     1
   2418   2435     1
   2418   2427     1
   2418   2428     1
   2419   2435     1
   2419   2427     1
   2419   2428     1
   2421   4929     1
   2421   2433     1
   2421   2434     1
   2422   4929     1
   2422   2433     1
   2422   2434     1
   2424   4900     1
   2424   2430     1
   2424   2431     1
   2425   4900     1
   2425   2430     1
   2425   2431     1
   2429   4892     1
   2429   4893     1
   2430   4891     1
   2431   4891     1
   2432   4921     1
   2432   4922     1
   2433   4920     1
   2434   4920     1
   2436   2450     1
   2436   2451     1
   2436   2453     1
   2436   2454     1
   2436   2447     1
   2436   2448     1
   2437   2441     1
   2437   2442     1
   2437   2444     1
   2437   2445     1
   2437   2462     1
   2437   2463     1
   2438   2440     1
   2438   2443     1
   2438   2461     1
   2438   2450     1
   2438   2451     1
   2439   2440     1
   2439   2443     1
   2439   2461     1
   2439   2450     1
   2439   2451     1
   2440   2444     1
   2440   2445     1
   2440   2459     1
   2440   2460     1
   2441   2443     1
   2441   2458     1
   2441   2453     1
   2441   2454     1
   2442   2443     1
   2442   2458     1
   2442   2453     1
   2442   2454     1
   2443   2456     1
   2443   2457     1
   2444   2455     1
   2444   2447     1
   2444   2448     1
   2445   2455     1
   2445   2447     1
   2445   2448     1
   2447   2464     1
   2447   2456     1
   2447   2457     1
   2448   2464     1
   2448   2456     1
   2448   2457     1
   2450   4987     1
   2450   2462     1
   2450   2463     1
   2451   4987     1
   2451   2462     1
   2451   2463     1
   2453   4958     1
   2453   2459     1
   2453   2460     1
   2454   4958     1
   2454   2459     1
   2454   2460     1
   2458   4950     1
   2458   4951     1
   2459   4949     1
   2460   4949     1
   2461   4979     1
   2461   4980     1
   2462   4978     1
   2463   4978     1
   2465   2479     1
   2465   2480     1
   2465   2482     1
   2465   2483     1
   2465   2476     1
   2465   2477     1
   2466   2470     1
   2466   2471     1
   2466   2473     1
   2466   2474     1
   2466   2491     1
   2466   2492     1
   2467   2469     1
   2467   2472     1
   2467   2490     1
   2467   2479     1
   2467   2480     1
   2468   2469     1
   2468   2472     1
   2468   2490     1
   2468   2479     1
   2468   2480     1
   2469   2473     1
   2469   2474     1
   2469   2488     1
   2469   2489     1
   2470   2472     1
   2470   2487     1
   2470   2482     1
   2470   2483     1
   2471   2472     1
   2471   2487     1
   2471   2482     1
   2471   2483     1
   2472   2485     1
   2472   2486     1
   2473   2484     1
   2473   2476     1
   2473   2477     1
   2474   2484     1
   2474   2476     1
   2474   2477     1
   2476   2493     1
   2476   2485     1
   2476   2486     1
   2477   2493     1
   2477   2485     1
   2477   2486     1
   2479   5045     1
   2479   2491     1
   2479   2492     1
   2480   5045     1
   2480   2491     1
   2480   2492     1
   2482   5016     1
   2482   2488     1
   2482   2489     1
   2483   5016     1
   2483   2488     1
   2483   2489     1
   2487   5008     1
   2487   5009     1
   2488   5007     1
   2489   5007     1
   2490   5037     1
   2490   5038     1
   2491   5036     1
   2492   5036     1
   2494   2508     1
   2494   2509     1
   2494   2511     1
   2494   2512     1
   2494   2505     1
   2494   2506     1
   2495   2499     1
   2495   2500     1
   2495   2502     1
   2495   2503     1
   2495   2520     1
   2495   2521     1
   2496   2498     1
   2496   2501     1
   2496   2519     1
   2496   2508     1
   2496   2509     1
   2497   2498     1
   2497   2501     1
   2497   2519     1
   2497   2508     1
   2497   2509     1
   2498   2502     1
   2498   2503     1
   2498   2517     1
   2498   2518     1
   2499   2501     1
   2499   2516     1
   2499   2511     1
   2499   2512     1
   2500   2501     1
   2500   2516     1
   2500   2511     1
   2500   2512     1
   2501   2514     1
   2501   2515     1
   2502   2513     1
   2502   2505     1
   2502   2506     1
   2503   2513     1
   2503   2505     1
   2503   2506     1
   2505   2522     1
   2505   2514     1
   2505   2515     1
   2506   2522     1
   2506   2514     1
   2506   2515     1
   2508   5103     1
   2508   2520     1
   2508   2521     1
   2509   5103     1
   2509   2520     1
   2509   2521     1
   2511   5074     1
   2511   2517     1
   2511   2518     1
   2512   5074     1
   2512   2517     1
   2512   2518     1
   2516   5066     1
   2516   5067     1
   2517   5065     1
   2518   5065     1
   2519   5095     1
   2519   5096     1
   2520   5094     1
   2521   5094     1
   2523   2537     1
   2523   2538     1
   2523   2540     1
   2523   2541     1
   2523   2534     1
   2523   2535     1
   2524   2528     1
   2524   2529     1
   2524   2531     1
   2524   2532     1
   2524   2549     1
   2524   2550     1
   2525   2527     1
   2525   2530     1
   2525   2548     1
   2525   2537     1
   2525   2538     1
   2526   2527     1
   2526   2530     1
   2526   2548     1
   2526   2537     1
   2526   2538     1
   2527   2531     1
   2527   2532     1
   2527   2546     1
   2527   2547     1
   2528   2530     1
   2528   2545     1
   2528   2540     1
   2528   2541     1
   2529   2530     1
   2529   2545     1
   2529   2540     1
   2529   2541     1
   2530   2543     1
   2530   2544     1
   2531   2542     1
   2531   2534     1
   2531   2535     1
   2532   2542     1
   2532   2534     1
   2532   2535     1
   2534   2551     1
   2534   2543     1
   2534   2544     1
   2535   2551     1
   2535   2543     1
   2535   2544     1
   2537   5161     1
   2537   2549     1
   2537   2550     1
   2538   5161     1
   2538   2549     1
   2538   2550     1
   2540   5132     1
   2540   2546     1
   2540   2547     1
   2541   5132     1
   2541   2546     1
   2541   2547     1
   2545   5124     1
   2545   5125     1
   2546   5123     1
   2547   5123     1
   2548   5153     1
   2548   5154     1
   2549   5152     1
   2550   5152     1
   2552   2566     1
   2552   2567     1
   2552   2569     1
   2552   2570     1
   2552   2563     1
   2552   2564     1
   2553   2557     1
   2553   2558     1
   2553   2560     1
   2553   2561     1
   2553   2578     1
   2553   2579     1
   2554   2556     1
   2554   2559     1
   2554   2577     1
   2554   2566     1
   2554   2567     1
   2555   2556     1
   2555   2559     1
   2555   2577     1
   2555   2566     1
   2555   2567     1
   2556   2560     1
   2556   2561     1
   2556   2575     1
   2556   2576     1
   2557   2559     1
   2557   2574     1
   2557   2569     1
   2557   2570     1
   2558   2559     1
   2558   2574     1
   2558   2569     1
   2558   2570     1
   2559   2572     1
   2559   2573     1
   2560   2571     1
   2560   2563     1
   2560   2564     1
   2561   2571     1
   2561   2563     1
   2561   2564     1
   2563   2580     1
   2563   2572     1
   2563   2573     1
   2564   2580     1
   2564   2572     1
   2564   2573     1
   2566   5219     1
   2566   2578     1
   2566   2579     1
   2567   5219     1
   2567   2578     1
   2567   2579     1
   2569   5190     1
   2569   2575     1
   2569   2576     1
   2570   5190     1
   2570   2575     1
   2570   2576     1
   2574   5182     1
   2574   5183     1
   2575   5181     1
   2576   5181     1
   2577   5211     1
   2577   5212     1
   2578   5210     1
   2579   5210     1
   2581   2595     1
   2581   2596     1
   2581   2598     1
   2581   2599     1
   2581   2592     1
   2581   2593     1
   2582   2586     1
   2582   2587     1
   2582   2589     1
   2582   2590     1
   2582   2607     1
   2582   2608     1
   2583   2585     1
   2583   2588     1
   2583   2606     1
   2583   2595     1
   2583   2596     1
   2584   2585     1
   2584   2588     1
   2584   2606     1
   2584   2595     1
   2584   2596     1
   2585   2589     1
   2585   2590     1
   2585   2604     1
   2585   2605     1
   2586   2588     1
   2586   2603     1
   2586   2598     1
   2586   2599     1
   2587   2588     1
   2587   2603     1
   2587   2598     1
   2587   2599     1
   2588   2601     1
   2588   2602     1
   2589   2600     1
   2589   2592     1
   2589   2593     1
   2590   2600     1
   2590   2592     1
   2590   2593     1
   2592   2609     1
   2592   2601     1
   2592   2602     1
   2593   2609     1
   2593   2601     1
   2593   2602     1
   2595   5277     1
   2595   2607     1
   2595   2608     1
   2596   5277     1
   2596   2607     1
   2596   2608     1
   2598   5248     1
   2598   2604     1
   2598   2605     1
   2599   5248     1
   2599   2604     1
   2599   2605     1
   2603   5240     1
   2603   5241     1
   2604   5239     1
   2605   5239     1
   2606   5269     1
   2606   5270     1
   2607   5268     1
   2608   5268     1
   2610   2624     1
   2610   2625     1
   2610   2627     1
   2610   2628     1
   2610   2621     1
   2610   2622     1
   2611   2615     1
   2611   2616     1
   2611   2618     1
   2611   2619     1
   2611   2636     1
   2611   2637     1
   2612   2614     1
   2612   2617     1
   2612   2635     1
   2612   2624     1
   2612   2625     1
   2613   2614     1
   2613   2617     1
   2613   2635     1
   2613   2624     1
   2613   2625     1
   2614   2618     1
   2614   2619     1
   2614   2633     1
   2614   2634     1
   2615   2617     1
   2615   2632     1
   2615   2627     1
   2615   2628     1
   2616   2617     1
   2616   2632     1
   2616   2627     1
   2616   2628     1
   2617   2630     1
   2617   2631     1
   2618   2629     1
   2618   2621     1
   2618   2622     1
   2619   2629     1
   2619   2621     1
   2619   2622     1
   2621   2638     1
   2621   2630     1
   2621   2631     1
   2622   2638     1
   2622   2630     1
   2622   2631     1
   2624   5335     1
   2624   2636     1
   2624   2637     1
   2625   5335     1
   2625   2636     1
   2625   2637     1
   2627   5306     1
   2627   2633     1
   2627   2634     1
   2628   5306     1
   2628   2633     1
   2628   2634     1
   2632   5298     1
   2632   5299     1
   2633   5297     1
   2634   5297     1
   2635   5327     1
   2635   5328     1
   2636   5326     1
   2637   5326     1
   2639   2653     1
   2639   2654     1
   2639   2656     1
   2639   2657     1
   2639   2650     1
   2639   2651     1
   2640   2644     1
   2640   2645     1
   2640   2647     1
   2640   2648     1
   2640   2665     1
   2640   2666     1
   2641   2643     1
   2641   2646     1
   2641   2664     1
   2641   2653     1
   2641   2654     1
   2642   2643     1
   2642   2646     1
   2642   2664     1
   2642   2653     1
   2642   2654     1
   2643   2647     1
   2643   2648     1
   2643   2662     1
   2643   2663     1
   2644   2646     1
   2644   2661     1
   2644   2656     1
   2644   2657     1
   2645   2646     1
   2645   2661     1
   2645   2656     1
   2645   2657     1
   2646   2659     1
   2646   2660     1
   2647   2658     1
   2647   2650     1
   2647   2651     1
   2648   2658     1
   2648   2650     1
   2648   2651     1
   2650   2667     1
   2650   2659     1
   2650   2660     1
   2651   2667     1
   2651   2659     1
   2651   2660     1
   2653   5393     1
   2653   2665     1
   2653   2666     1
   2654   5393     1
   2654   2665     1
   2654   2666     1
   2656   5364     1
   2656   2662     1
   2656   2663     1
   2657   5364     1
   2657   2662     1
   2657   2663     1
   2661   5356     1
   2661   5357     1
   2662   5355     1
   2663   5355     1
   2664   5385     1
   2664   5386     1
   2665   5384     1
   2666   5384     1
   2668   2682     1
   2668   2683     1
   2668   2685     1
   2668   2686     1
   2668   2679     1
   2668   2680     1
   2669   2673     1
   2669   2674     1
   2669   2676     1
   2669   2677     1
   2669   2694     1
   2669   2695     1
   2670   2672     1
   2670   2675     1
   2670   2693     1
   2670   2682     1
   2670   2683     1
   2671   2672     1
   2671   2675     1
   2671   2693     1
   2671   2682     1
   2671   2683     1
   2672   2676     1
   2672   2677     1
   2672   2691     1
   2672   2692     1
   2673   2675     1
   2673   2690     1
   2673   2685     1
   2673   2686     1
   2674   2675     1
   2674   2690     1
   2674   2685     1
   2674   2686     1
   2675   2688     1
   2675   2689     1
   2676   2687     1
   2676   2679     1
   2676   2680     1
   2677   2687     1
   2677   2679     1
   2677   2680     1
   2679   2696     1
   2679   2688     1
   2679   2689     1
   2680   2696     1
   2680   2688     1
   2680   2689     1
   2682   5451     1
   2682   2694     1
   2682   2695     1
   2683   5451     1
   2683   2694     1
   2683   2695     1
   2685   5422     1
   2685   2691     1
   2685   2692     1
   2686   5422     1
   2686   2691     1
   2686   2692     1
   2690   5414     1
   2690   5415     1
   2691   5413     1
   2692   5413     1
   2693   5443     1
   2693   5444     1
   2694   5442     1
   2695   5442     1
   2697   2711     1
   2697   2712     1
   2697   2714     1
   2697   2715     1
   2697   2708     1
   2697   2709     1
   2698   2702     1
   2698   2703     1
   2698   2705     1
   2698   2706     1
   2698   2723     1
   2698   2724     1
   2699   2701     1
   2699   2704     1
   2699   2722     1
   2699   2711     1
   2699   2712     1
   2700   2701     1
   2700   2704     1
   2700   2722     1
   2700   2711     1
   2700   2712     1
   2701   2705     1
   2701   2706     1
   2701   2720     1
   2701   2721     1
   2702   2704     1
   2702   2719     1
   2702   2714     1
   2702   2715     1
   2703   2704     1
   2703   2719     1
   2703   2714     1
   2703   2715     1
   2704   2717     1
   2704   2718     1
   2705   2716     1
   2705   2708     1
   2705   2709     1
   2706   2716     1
   2706   2708     1
   2706   2709     1
   2708   2725     1
   2708   2717     1
   2708   2718     1
   2709   2725     1
   2709   2717     1
   2709   2718     1
   2711   5509     1
   2711   2723     1
   2711   2724     1
   2712   5509     1
   2712   2723     1
   2712   2724     1
   2714   5480     1
   2714   2720     1
   2714   2721     1
   2715   5480     1
   2715   2720     1
   2715   2721     1
   2719   5472     1
   2719   5473     1
   2720   5471     1
   2721   5471     1
   2722   5501     1
   2722   5502     1
   2723   5500     1
   2724   5500     1
   2726   2740     1
   2726   2741     1
   2726   2743     1
   2726   2744     1
   2726   2737     1
   2726   2738     1
   2727   2731     1
   2727   2732     1
   2727   2734     1
   2727   2735     1
   2727   2752     1
   2727   2753     1
   2728   2730     1
   2728   2733     1
   2728   2751     1
   2728   2740     1
   2728   2741     1
   2729   2730     1
   2729   2733     1
   2729   2751     1
   2729   2740     1
   2729   2741     1
   2730   2734     1
   2730   2735     1
   2730   2749     1
   2730   2750     1
   2731   2733     1
   2731   2748     1
   2731   2743     1
   2731   2744     1
   2732   2733     1
   2732   2748     1
   2732   2743     1
   2732   2744     1
   2733   2746     1
   2733   2747     1
   2734   2745     1
   2734   2737     1
   2734   2738     1
   2735   2745     1
   2735   2737     1
   2735   2738     1
   2737   2754     1
   2737   2746     1
   2737   2747     1
   2738   2754     1
   2738   2746     1
   2738   2747     1
   2740   5567     1
   2740   2752     1
   2740   2753     1
   2741   5567     1
   2741   2752     1
   2741   2753     1
   2743   5538     1
   2743   2749     1
   2743   2750     1
   2744   5538     1
   2744   2749     1
   2744   2750     1
   2748   5511     1
   2748   5512     1
   2749   5510     1
   2750   5510     1
   2751   5540     1
   2751   5541     1
   2752   5539     1
   2753   5539     1
   2755   2769     1
   2755   2770     1
   2755   2772     1
   2755   2773     1
   2755   2766     1
   2755   2767     1
   2756   2760     1
   2756   2761     1
   2756   2763     1
   2756   2764     1
   2756   2781     1
   2756   2782     1
   2757   2759     1
   2757   2762     1
   2757   2780     1
   2757   2769     1
   2757   2770     1
   2758   2759     1
   2758   2762     1
   2758   2780     1
   2758   2769     1
   2758   2770     1
   2759   2763     1
   2759   2764     1
   2759   2778     1
   2759   2779     1
   2760   2762     1
   2760   2777     1
   2760   2772     1
   2760   2773     1
   2761   2762     1
   2761   2777     1
   2761   2772     1
   2761   2773     1
   2762   2775     1
   2762   2776     1
   2763   2774     1
   2763   2766     1
   2763   2767     1
   2764   2774     1
   2764   2766     1
   2764   2767     1
   2766   2783     1
   2766   2775     1
   2766   2776     1
   2767   2783     1
   2767   2775     1
   2767   2776     1
   2769   5625     1
   2769   2781     1
   2769   2782     1
   2770   5625     1
   2770   2781     1
   2770   2782     1
   2772   5596     1
   2772   2778     1
   2772   2779     1
   2773   5596     1
   2773   2778     1
   2773   2779     1
   2777   5569     1
   2777   5570     1
   2778   5568     1
   2779   5568     1
   2780   5598     1
   2780   5599     1
   2781   5597     1
   2782   5597     1
   2784   2798     1
   2784   2799     1
   2784   2801     1
   2784   2802     1
   2784   2795     1
   2784   2796     1
   2785   2789     1
   2785   2790     1
   2785   2792     1
   2785   2793     1
   2785   2810     1
   2785   2811     1
   2786   2788     1
   2786   2791     1
   2786   2809     1
   2786   2798     1
   2786   2799     1
   2787   2788     1
   2787   2791     1
   2787   2809     1
   2787   2798     1
   2787   2799     1
   2788   2792     1
   2788   2793     1
   2788   2807     1
   2788   2808     1
   2789   2791     1
   2789   2806     1
   2789   2801     1
   2789   2802     1
   2790   2791     1
   2790   2806     1
   2790   2801     1
   2790   2802     1
   2791   2804     1
   2791   2805     1
   2792   2803     1
   2792   2795     1
   2792   2796     1
   2793   2803     1
   2793   2795     1
   2793   2796     1
   2795   2812     1
   2795   2804     1
   2795   2805     1
   2796   2812     1
   2796   2804     1
   2796   2805     1
   2798   5683     1
   2798   2810     1
   2798   2811     1
   2799   5683     1
   2799   2810     1
   2799   2811     1
   2801   5654     1
   2801   2807     1
   2801   2808     1
   2802   5654     1
   2802   2807     1
   2802   2808     1
   2806   5627     1
   2806   5628     1
   2807   5626     1
   2808   5626     1
   2809   5656     1
   2809   5657     1
   2810   5655     1
   2811   5655     1
   2813   2827     1
   2813   2828     1
   2813   2830     1
   2813   2831     1
   2813   2824     1
   2813   2825     1
   2814   2818     1
   2814   2819     1
   2814   2821     1
   2814   2822     1
   2814   2839     1
   2814   2840     1
   2815   2817     1
   2815   2820     1
   2815   2838     1
   2815   2827     1
   2815   2828     1
   2816   2817     1
   2816   2820     1
   2816   2838     1
   2816   2827     1
   2816   2828     1
   2817   2821     1
   2817   2822     1
   2817   2836     1
   2817   2837     1
   2818   2820     1
   2818   2835     1
   2818   2830     1
   2818   2831     1
   2819   2820     1
   2819   2835     1
   2819   2830     1
   2819   2831     1
   2820   2833     1
   2820   2834     1
   2821   2832     1
   2821   2824     1
   2821   2825     1
   2822   2832     1
   2822   2824     1
   2822   2825     1
   2824   2841     1
   2824   2833     1
   2824   2834     1
   2825   2841     1
   2825   2833     1
   2825   2834     1
   2827   5741     1
   2827   2839     1
   2827   2840     1
   2828   5741     1
   2828   2839     1
   2828   2840     1
   2830   5712     1
   2830   2836     1
   2830   2837     1
   2831   5712     1
   2831   2836     1
   2831   2837     1
   2835   5685     1
   2835   5686     1
   2836   5684     1
   2837   5684     1
   2838   5714     1
   2838   5715     1
   2839   5713     1
   2840   5713     1
   2842   2856     1
   2842   2857     1
   2842   2859     1
   2842   2860     1
   2842   2853     1
   2842   2854     1
   2843   2847     1
   2843   2848     1
   2843   2850     1
   2843   2851     1
   2843   2868     1
   2843   2869     1
   2844   2846     1
   2844   2849     1
   2844   2867     1
   2844   2856     1
   2844   2857     1
   2845   2846     1
   2845   2849     1
   2845   2867     1
   2845   2856     1
   2845   2857     1
   2846   2850     1
   2846   2851     1
   2846   2865     1
   2846   2866     1
   2847   2849     1
   2847   2864     1
   2847   2859     1
   2847   2860     1
   2848   2849     1
   2848   2864     1
   2848   2859     1
   2848   2860     1
   2849   2862     1
   2849   2863     1
   2850   2861     1
   2850   2853     1
   2850   2854     1
   2851   2861     1
   2851   2853     1
   2851   2854     1
   2853   2870     1
   2853   2862     1
   2853   2863     1
   2854   2870     1
   2854   2862     1
   2854   2863     1
   2856   5799     1
   2856   2868     1
   2856   2869     1
   2857   5799     1
   2857   2868     1
   2857   2869     1
   2859   5770     1
   2859   2865     1
   2859   2866     1
   2860   5770     1
   2860   2865     1
   2860   2866     1
   2864   5743     1
   2864   5744     1
   2865   5742     1
   2866   5742     1
   2867   5772     1
   2867   5773     1
   2868   5771     1
   2869   5771     1
   2871   2885     1
   2871   2886     1
   2871   2888     1
   2871   2889     1
   2871   2882     1
   2871   2883     1
   2872   2876     1
   2872   2877     1
   2872   2879     1
   2872   2880     1
   2872   2897     1
   2872   2898     1
   2873   2875     1
   2873   2878     1
   2873   2896     1
   2873   2885     1
   2873   2886     1
   2874   2875     1
   2874   2878     1
   2874   2896     1
   2874   2885     1
   2874   2886     1
   2875   2879     1
   2875   2880     1
   2875   2894     1
   2875   2895     1
   2876   2878     1
   2876   2893     1
   2876   2888     1
   2876   2889     1
   2877   2878     1
   2877   2893     1
   2877   2888     1
   2877   2889     1
   2878   2891     1
   2878   2892     1
   2879   2890     1
   2879   2882     1
   2879   2883     1
   2880   2890     1
   2880   2882     1
   2880   2883     1
   2882   2899     1
   2882   2891     1
   2882   2892     1
   2883   2899     1
   2883   2891     1
   2883   2892     1
   2885   5857     1
   2885   2897     1
   2885   2898     1
   2886   5857     1
   2886   2897     1
   2886   2898     1
   2888   5828     1
   2888   2894     1
   2888   2895     1
   2889   5828     1
   2889   2894     1
   2889   2895     1
   2893   5801     1
   2893   5802     1
   2894   5800     1
   2895   5800     1
   2896   5830     1
   2896   5831     1
   2897   5829     1
   2898   5829     1
   2900   2914     1
   2900   2915     1
   2900   2917     1
   2900   2918     1
   2900   2911     1
   2900   2912     1
   2901   2905     1
   2901   2906     1
   2901   2908     1
   2901   2909     1
   2901   2926     1
   2901   2927     1
   2902   2904     1
   2902   2907     1
   2902   2925     1
   2902   2914     1
   2902   2915     1
   2903   2904     1
   2903   2907     1
   2903   2925     1
   2903   2914     1
   2903   2915     1
   2904   2908     1
   2904   2909     1
   2904   2923     1
   2904   2924     1
   2905   2907     1
   2905   2922     1
   2905   2917     1
   2905   2918     1
   2906   2907     1
   2906   2922     1
   2906   2917     1
   2906   2918     1
   2907   2920     1
   2907   2921     1
   2908   2919     1
   2908   2911     1
   2908   2912     1
   2909   2919     1
   2909   2911     1
   2909   2912     1
   2911   2928     1
   2911   2920     1
   2911   2921     1
   2912   2928     1
   2912   2920     1
   2912   2921     1
   2914   5915     1
   2914   2926     1
   2914   2927     1
   2915   5915     1
   2915   2926     1
   2915   2927     1
   2917   5886     1
   2917   2923     1
   2917   2924     1
   2918   5886     1
   2918   2923     1
   2918   2924     1
   2922   5859     1
   2922   5860     1
   2923   5858     1
   2924   5858     1
   2925   5888     1
   2925   5889     1
   2926   5887     1
   2927   5887     1
   2929   2943     1
   2929   2944     1
   2929   2946     1
   2929   2947     1
   2929   2940     1
   2929   2941     1
   2930   2934     1
   2930   2935     1
   2930   2937     1
   2930   2938     1
   2930   2955     1
   2930   2956     1
   2931   2933     1
   2931   2936     1
   2931   2954     1
   2931   2943     1
   2931   2944     1
   2932   2933     1
   2932   2936     1
   2932   2954     1
   2932   2943     1
   2932   2944     1
   2933   2937     1
   2933   2938     1
   2933   2952     1
   2933   2953     1
   2934   2936     1
   2934   2951     1
   2934   2946     1
   2934   2947     1
   2935   2936     1
   2935   2951     1
   2935   2946     1
   2935   2947     1
   2936   2949     1
   2936   2950     1
   2937   2948     1
   2937   2940     1
   2937   2941     1
   2938   2948     1
   2938   2940     1
   2938   2941     1
   2940   2957     1
   2940   2949     1
   2940   2950     1
   2941   2957     1
   2941   2949     1
   2941   2950     1
   2943   5973     1
   2943   2955     1
   2943   2956     1
   2944   5973     1
   2944   2955     1
   2944   2956     1
   2946   5944     1
   2946   2952     1
   2946   2953     1
   2947   5944     1
   2947   2952     1
   2947   2953     1
   2951   5917     1
   2951   5918     1
   2952   5916     1
   2953   5916     1
   2954   5946     1
   2954   5947     1
   2955   5945     1
   2956   5945     1
   2958   2972     1
   2958   2973     1
   2958   2975     1
   2958   2976     1
   2958   2969     1
   2958   2970     1
   2959   2963     1
   2959   2964     1
   2959   2966     1
   2959   2967     1
   2959   2984     1
   2959   2985     1
   2960   2962     1
   2960   2965     1
   2960   2983     1
   2960   2972     1
   2960   2973     1
   2961   2962     1
   2961   2965     1
   2961   2983     1
   2961   2972     1
   2961   2973     1
   2962   2966     1
   2962   2967     1
   2962   2981     1
   2962   2982     1
   2963   2965     1
   2963   2980     1
   2963   2975     1
   2963   2976     1
   2964   2965     1
   2964   2980     1
   2964   2975     1
   2964   2976     1
   2965   2978     1
   2965   2979     1
   2966   2977     1
   2966   2969     1
   2966   2970     1
   2967   2977     1
   2967   2969     1
   2967   2970     1
   2969   2986     1
   2969   2978     1
   2969   2979     1
   2970   2986     1
   2970   2978     1
   2970   2979     1
   2972   6031     1
   2972   2984     1
   2972   2985     1
   2973   6031     1
   2973   2984     1
   2973   2985     1
   2975   6002     1
   2975   2981     1
   2975   2982     1
   2976   6002     1
   2976   2981     1
   2976   2982     1
   2980   5975     1
   2980   5976     1
   2981   5974     1
   2982   5974     1
   2983   6004     1
   2983   6005     1
   2984   6003     1
   2985   6003     1
   2987   3001     1
   2987   3002     1
   2987   3004     1
   2987   3005     1
   2987   2998     1
   2987   2999     1
   2988   2992     1
   2988   2993     1
   2988   2995     1
   2988   2996     1
   2988   3013     1
   2988   3014     1
   2989   2991     1
   2989   2994     1
   2989   3012     1
   2989   3001     1
   2989   3002     1
   2990   2991     1
   2990   2994     1
   2990   3012     1
   2990   3001     1
   2990   3002     1
   2991   2995     1
   2991   2996     1
   2991   3010     1
   2991   3011     1
   2992   2994     1
   2992   3009     1
   2992   3004     1
   2992   3005     1
   2993   2994     1
   2993   3009     1
   2993   3004     1
   2993   3005     1
   2994   3007     1
   2994   3008     1
   2995   3006     1
   2995   2998     1
   2995   2999     1
   2996   3006     1
   2996   2998     1
   2996   2999     1
   2998   3015     1
   2998   3007     1
   2998   3008     1
   2999   3015     1
   2999   3007     1
   2999   3008     1
   3001   6089     1
   3001   3013     1
   3001   3014     1
   3002   6089     1
   3002   3013     1
   3002   3014     1
   3004   6060     1
   3004   3010     1
   3004   3011     1
   3005   6060     1
   3005   3010     1
   3005   3011     1
   3009   6033     1
   3009   6034     1
   3010   6032     1
   3011   6032     1
   3012   6062     1
   3012   6063     1
   3013   6061     1
   3014   6061     1
   3016   3030     1
   3016   3031     1
   3016   3033     1
   3016   3034     1
   3016   3027     1
   3016   3028     1
   3017   3021     1
   3017   3022     1
   3017   3024     1
   3017   3025     1
   3017   3042     1
   3017   3043     1
   3018   3020     1
   3018   3023     1
   3018   3041     1
   3018   3030     1
   3018   3031     1
   3019   3020     1
   3019   3023     1
   3019   3041     1
   3019   3030     1
   3019   3031     1
   3020   3024     1
   3020   3025     1
   3020   3039     1
   3020   3040     1
   3021   3023     1
   3021   3038     1
   3021   3033     1
   3021   3034     1
   3022   3023     1
   3022   3038     1
   3022   3033     1
   3022   3034     1
   3023   3036     1
   3023   3037     1
   3024   3035     1
   3024   3027     1
   3024   3028     1
   3025   3035     1
   3025   3027     1
   3025   3028     1
   3027   3044     1
   3027   3036     1
   3027   3037     1
   3028   3044     1
   3028   3036     1
   3028   3037     1
   3030   6147     1
   3030   3042     1
   3030   3043     1
   3031   6147     1
   3031   3042     1
   3031   3043     1
   3033   6118     1
   3033   3039     1
   3033   3040     1
   3034   6118     1
   3034   3039     1
   3034   3040     1
   3038   6091     1
   3038   6092     1
   3039   6090     1
   3040   6090     1
   3041   6120     1
   3041   6121     1
   3042   6119     1
   3043   6119     1
   3045   3059     1
   3045   3060     1
   3045   3062     1
   3045   3063     1
   3045   3056     1
   3045   3057     1
   3046   3050     1
   3046   3051     1
   3046   3053     1
   3046   3054     1
   3046   3071     1
   3046   3072     1
   3047   3049     1
   3047   3052     1
   3047   3070     1
   3047   3059     1
   3047   3060     1
   3048   3049     1
   3048   3052     1
   3048   3070     1
   3048   3059     1
   3048   3060     1
   3049   3053     1
   3049   3054     1
   3049   3068     1
   3049   3069     1
   3050   3052     1
   3050   3067     1
   3050   3062     1
   3050   3063     1
   3051   3052     1
   3051   3067     1
   3051   3062     1
   3051   3063     1
   3052   3065     1
   3052   3066     1
   3053   3064     1
   3053   3056     1
   3053   3057     1
   3054   3064     1
   3054   3056     1
   3054   3057     1
   3056   3073     1
   3056   3065     1
   3056   3066     1
   3057   3073     1
   3057   3065     1
   3057   3066     1
   3059   6205     1
   3059   3071     1
   3059   3072     1
   3060   6205     1
   3060   3071     1
   3060   3072     1
   3062   6176     1
   3062   3068     1
   3062   3069     1
   3063   6176     1
   3063   3068     1
   3063   3069     1
   3067   6149     1
   3067   6150     1
   3068   6148     1
   3069   6148     1
   3070   6178     1
   3070   6179     1
   3071   6177     1
   3072   6177     1
   3074   3088     1
   3074   3089     1
   3074   3091     1
   3074   3092     1
   3074   3085     1
   3074   3086     1
   3075   3079     1
   3075   3080     1
   3075   3082     1
   3075   3083     1
   3075   3100     1
   3075   3101     1
   3076   3078     1
   3076   3081     1
   3076   3099     1
   3076   3088     1
   3076   3089     1
   3077   3078     1
   3077   3081     1
   3077   3099     1
   3077   3088     1
   3077   3089     1
   3078   3082     1
   3078   3083     1
   3078   3097     1
   3078   3098     1
   3079   3081     1
   3079   3096     1
   3079   3091     1
   3079   3092     1
   3080   3081     1
   3080   3096     1
   3080   3091     1
   3080   3092     1
   3081   3094     1
   3081   3095     1
   3082   3093     1
   3082   3085     1
   3082   3086     1
   3083   3093     1
   3083   3085     1
   3083   3086     1
   3085   3102     1
   3085   3094     1
   3085   3095     1
   3086   3102     1
   3086   3094     1
   3086   3095     1
   3088   6263     1
   3088   3100     1
   3088   3101     1
   3089   6263     1
   3089   3100     1
   3089   3101     1
   3091   6234     1
   3091   3097     1
   3091   3098     1
   3092   6234     1
   3092   3097     1
   3092   3098     1
   3096   6207     1
   3096   6208     1
   3097   6206     1
   3098   6206     1
   3099   6236     1
   3099   6237     1
   3100   6235     1
   3101   6235     1
   3103   3117     1
   3103   3118     1
   3103   3120     1
   3103   3121     1
   3103   3114     1
   3103   3115     1
   3104   3108     1
   3104   3109     1
   3104   3111     1
   3104   3112     1
   3104   3129     1
   3104   3130     1
   3105   3107     1
   3105   3110     1
   3105   3128     1
   3105   3117     1
   3105   3118     1
   3106   3107     1
   3106   3110     1
   3106   3128     1
   3106   3117     1
   3106   3118     1
   3107   3111     1
   3107   3112     1
   3107   3126     1
   3107   3127     1
   3108   3110     1
   3108   3125     1
   3108   3120     1
   3108   3121     1
   3109   3110     1
   3109   3125     1
   3109   3120     1
   3109   3121     1
   3110   3123     1
   3110   3124     1
   3111   3122     1
   3111   3114     1
   3111   3115     1
   3112   3122     1
   3112   3114     1
   3112   3115     1
   3114   3131     1
   3114   3123     1
   3114   3124     1
   3115   3131     1
   3115   3123     1
   3115   3124     1
   3117   6321     1
   3117   3129     1
   3117   3130     1
   3118   6321     1
   3118   3129     1
   3118   3130     1
   3120   6292     1
   3120   3126     1
   3120   3127     1
   3121   6292     1
   3121   3126     1
   3121   3127     1
   3125   6265     1
   3125   6266     1
   3126   6264     1
   3127   6264     1
   3128   6294     1
   3128   6295     1
   3129   6293     1
   3130   6293     1
   3132   3146     1
   3132   3147     1
   3132   3149     1
   3132   3150     1
   3132   3143     1
   3132   3144     1
   3133   3137     1
   3133   3138     1
   3133   3140     1
   3133   3141     1
   3133   3158     1
   3133   3159     1
   3134   3136     1
   3134   3139     1
   3134   3157     1
   3134   3146     1
   3134   3147     1
   3135   3136     1
   3135   3139     1
   3135   3157     1
   3135   3146     1
   3135   3147     1
   3136   3140     1
   3136   3141     1
   3136   3155     1
   3136   3156     1
   3137   3139     1
   3137   3154     1
   3137   3149     1
   3137   3150     1
   3138   3139     1
   3138   3154     1
   3138   3149     1
   3138   3150     1
   3139   3152     1
   3139   3153     1
   3140   3151     1
   3140   3143     1
   3140   3144     1
   3141   3151     1
   3141   3143     1
   3141   3144     1
   3143   3160     1
   3143   3152     1
   3143   3153     1
   3144   3160     1
   3144   3152     1
   3144   3153     1
   3146   6379     1
   3146   3158     1
   3146   3159     1
   3147   6379     1
   3147   3158     1
   3147   3159     1
   3149   6350     1
   3149   3155     1
   3149   3156     1
   3150   6350     1
   3150   3155     1
   3150   3156     1
   3154   6323     1
   3154   6324     1
   3155   6322     1
   3156   6322     1
   3157   6352     1
   3157   6353     1
   3158   6351     1
   3159   6351     1
   3161   3175     1
   3161   3176     1
   3161   3178     1
   3161   3179     1
   3161   3172     1
   3161   3173     1
   3162   3166     1
   3162   3167     1
   3162   3169     1
   3162   3170     1
   3162   3187     1
   3162   3188     1
   3163   3165     1
   3163   3168     1
   3163   3186     1
   3163   3175     1
   3163   3176     1
   3164   3165     1
   3164   3168     1
   3164   3186     1
   3164   3175     1
   3164   3176     1
   3165   3169     1
   3165   3170     1
   3165   3184     1
   3165   3185     1
   3166   3168     1
   3166   3183     1
   3166   3178     1
   3166   3179     1
   3167   3168     1
   3167   3183     1
   3167   3178     1
   3167   3179     1
   3168   3181     1
   3168   3182     1
   3169   3180     1
   3169   3172     1
   3169   3173     1
   3170   3180     1
   3170   3172     1
   3170   3173     1
   3172   3189     1
   3172   3181     1
   3172   3182     1
   3173   3189     1
   3173   3181     1
   3173   3182     1
   3175   6437     1
   3175   3187     1
   3175   3188     1
   3176   6437     1
   3176   3187     1
   3176   3188     1
   3178   6408     1
   3178   3184     1
   3178   3185     1
   3179   6408     1
   3179   3184     1
   3179   3185     1
   3183   6381     1
   3183   6382     1
   3184   6380     1
   3185   6380     1
   3186   6410     1
   3186   6411     1
   3187   6409     1
   3188   6409     1
   3190   3204     1
   3190   3205     1
   3190   3207     1
   3190   3208     1
   3190   3201     1
   3190   3202     1
   3191   3195     1
   3191   3196     1
   3191   3198     1
   3191   3199     1
   3191   3216     1
   3191   3217     1
   3192   3194     1
   3192   3197     1
   3192   3215     1
   3192   3204     1
   3192   3205     1
   3193   3194     1
   3193   3197     1
   3193   3215     1
   3193   3204     1
   3193   3205     1
   3194   3198     1
   3194   3199     1
   3194   3213     1
   3194   3214     1
   3195   3197     1
   3195   3212     1
   3195   3207     1
   3195   3208     1
   3196   3197     1
   3196   3212     1
   3196   3207     1
   3196   3208     1
   3197   3210     1
   3197   3211     1
   3198   3209     1
   3198   3201     1
   3198   3202     1
   3199   3209     1
   3199   3201     1
   3199   3202     1
   3201   3218     1
   3201   3210     1
   3201   3211     1
   3202   3218     1
   3202   3210     1
   3202   3211     1
   3204   6495     1
   3204   3216     1
   3204   3217     1
   3205   6495     1
   3205   3216     1
   3205   3217     1
   3207   6466     1
   3207   3213     1
   3207   3214     1
   3208   6466     1
   3208   3213     1
   3208   3214     1
   3212   6439     1
   3212   6440     1
   3213   6438     1
   3214   6438     1
   3215   6468     1
   3215   6469     1
   3216   6467     1
   3217   6467     1
   3219   3233     1
   3219   3234     1
   3219   3236     1
   3219   3237     1
   3219   3230     1
   3219   3231     1
   3220   3224     1
   3220   3225     1
   3220   3227     1
   3220   3228     1
   3220   3245     1
   3220   3246     1
   3221   3223     1
   3221   3226     1
   3221   3244     1
   3221   3233     1
   3221   3234     1
   3222   3223     1
   3222   3226     1
   3222   3244     1
   3222   3233     1
   3222   3234     1
   3223   3227     1
   3223   3228     1
   3223   3242     1
   3223   3243     1
   3224   3226     1
   3224   3241     1
   3224   3236     1
   3224   3237     1
   3225   3226     1
   3225   3241     1
   3225   3236     1
   3225   3237     1
   3226   3239     1
   3226   3240     1
   3227   3238     1
   3227   3230     1
   3227   3231     1
   3228   3238     1
   3228   3230     1
   3228   3231     1
   3230   3247     1
   3230   3239     1
   3230   3240     1
   3231   3247     1
   3231   3239     1
   3231   3240     1
   3233   6553     1
   3233   3245     1
   3233   3246     1
   3234   6553     1
   3234   3245     1
   3234   3246     1
   3236   6524     1
   3236   3242     1
   3236   3243     1
   3237   6524     1
   3237   3242     1
   3237   3243     1
   3241   6497     1
   3241   6498     1
   3242   6496     1
   3243   6496     1
   3244   6526     1
   3244   6527     1
   3245   6525     1
   3246   6525     1
   3248   3262     1
   3248   3263     1
   3248   3265     1
   3248   3266     1
   3248   3259     1
   3248   3260     1
   3249   3253     1
   3249   3254     1
   3249   3256     1
   3249   3257     1
   3249   3274     1
   3249   3275     1
   3250   3252     1
   3250   3255     1
   3250   3273     1
   3250   3262     1
   3250   3263     1
   3251   3252     1
   3251   3255     1
   3251   3273     1
   3251   3262     1
   3251   3263     1
   3252   3256     1
   3252   3257     1
   3252   3271     1
   3252   3272     1
   3253   3255     1
   3253   3270     1
   3253   3265     1
   3253   3266     1
   3254   3255     1
   3254   3270     1
   3254   3265     1
   3254   3266     1
   3255   3268     1
   3255   3269     1
   3256   3267     1
   3256   3259     1
   3256   3260     1
   3257   3267     1
   3257   3259     1
   3257   3260     1
   3259   3276     1
   3259   3268     1
   3259   3269     1
   3260   3276     1
   3260   3268     1
   3260   3269     1
   3262   6611     1
   3262   3274     1
   3262   3275     1
   3263   6611     1
   3263   3274     1
   3263   3275     1
   3265   6582     1
   3265   3271     1
   3265   3272     1
   3266   6582     1
   3266   3271     1
   3266   3272     1
   3270   6555     1
   3270   6556     1
   3271   6554     1
   3272   6554     1
   3273   6584     1
   3273   6585     1
   3274   6583     1
   3275   6583     1
   3277   3291     1
   3277   3292     1
   3277   3294     1
   3277   3295     1
   3277   3288     1
   3277   3289     1
   3278   3282     1
   3278   3283     1
   3278   3285     1
   3278   3286     1
   3278   3303     1
   3278   3304     1
   3279   3281     1
   3279   3284     1
   3279   3302     1
   3279   3291     1
   3279   3292     1
   3280   3281     1
   3280   3284     1
   3280   3302     1
   3280   3291     1
   3280   3292     1
   3281   3285     1
   3281   3286     1
   3281   3300     1
   3281   3301     1
   3282   3284     1
   3282   3299     1
   3282   3294     1
   3282   3295     1
   3283   3284     1
   3283   3299     1
   3283   3294     1
   3283   3295     1
   3284   3297     1
   3284   3298     1
   3285   3296     1
   3285   3288     1
   3285   3289     1
   3286   3296     1
   3286   3288     1
   3286   3289     1
   3288   3305     1
   3288   3297     1
   3288   3298     1
   3289   3305     1
   3289   3297     1
   3289   3298     1
   3291   6669     1
   3291   3303     1
   3291   3304     1
   3292   6669     1
   3292   3303     1
   3292   3304     1
   3294   6640     1
   3294   3300     1
   3294   3301     1
   3295   6640     1
   3295   3300     1
   3295   3301     1
   3299   6613     1
   3299   6614     1
   3300   6612     1
   3301   6612     1
   3302   6642     1
   3302   6643     1
   3303   6641     1
   3304   6641     1
   3306   3320     1
   3306   3321     1
   3306   3323     1
   3306   3324     1
   3306   3317     1
   3306   3318     1
   3307   3311     1
   3307   3312     1
   3307   3314     1
   3307   3315     1
   3307   3332     1
   3307   3333     1
   3308   3310     1
   3308   3313     1
   3308   3331     1
   3308   3320     1
   3308   3321     1
   3309   3310     1
   3309   3313     1
   3309   3331     1
   3309   3320     1
   3309   3321     1
   3310   3314     1
   3310   3315     1
   3310   3329     1
   3310   3330     1
   3311   3313     1
   3311   3328     1
   3311   3323     1
   3311   3324     1
   3312   3313     1
   3312   3328     1
   3312   3323     1
   3312   3324     1
   3313   3326     1
   3313   3327     1
   3314   3325     1
   3314   3317     1
   3314   3318     1
   3315   3325     1
   3315   3317     1
   3315   3318     1
   3317   3334     1
   3317   3326     1
   3317   3327     1
   3318   3334     1
   3318   3326     1
   3318   3327     1
   3320   6727     1
   3320   3332     1
   3320   3333     1
   3321   6727     1
   3321   3332     1
   3321   3333     1
   3323   6698     1
   3323   3329     1
   3323   3330     1
   3324   6698     1
   3324   3329     1
   3324   3330     1
   3328   6671     1
   3328   6672     1
   3329   6670     1
   3330   6670     1
   3331   6700     1
   3331   6701     1
   3332   6699     1
   3333   6699     1
   3335   3349     1
   3335   3350     1
   3335   3352     1
   3335   3353     1
   3335   3346     1
   3335   3347     1
   3336   3340     1
   3336   3341     1
   3336   3343     1
   3336   3344     1
   3336   3361     1
   3336   3362     1
   3337   3339     1
   3337   3342     1
   3337   3360     1
   3337   3349     1
   3337   3350     1
   3338   3339     1
   3338   3342     1
   3338   3360     1
   3338   3349     1
   3338   3350     1
   3339   3343     1
   3339   3344     1
   3339   3358     1
   3339   3359     1
   3340   3342     1
   3340   3357     1
   3340   3352     1
   3340   3353     1
   3341   3342     1
   3341   3357     1
   3341   3352     1
   3341   3353     1
   3342   3355     1
   3342   3356     1
   3343   3354     1
   3343   3346     1
   3343   3347     1
   3344   3354     1
   3344   3346     1
   3344   3347     1
   3346   3363     1
   3346   3355     1
   3346   3356     1
   3347   3363     1
   3347   3355     1
   3347   3356     1
   3349   6785     1
   3349   3361     1
   3349   3362     1
   3350   6785     1
   3350   3361     1
   3350   3362     1
   3352   6756     1
   3352   3358     1
   3352   3359     1
   3353   6756     1
   3353   3358     1
   3353   3359     1
   3357   6729     1
   3357   6730     1
   3358   6728     1
   3359   6728     1
   3360   6758     1
   3360   6759     1
   3361   6757     1
   3362   6757     1
   3364   3378     1
   3364   3379     1
   3364   3381     1
   3364   3382     1
   3364   3375     1
   3364   3376     1
   3365   3369     1
   3365   3370     1
   3365   3372     1
   3365   3373     1
   3365   3390     1
   3365   3391     1
   3366   3368     1
   3366   3371     1
   3366   3389     1
   3366   3378     1
   3366   3379     1
   3367   3368     1
   3367   3371     1
   3367   3389     1
   3367   3378     1
   3367   3379     1
   3368   3372     1
   3368   3373     1
   3368   3387     1
   3368   3388     1
   3369   3371     1
   3369   3386     1
   3369   3381     1
   3369   3382     1
   3370   3371     1
   3370   3386     1
   3370   3381     1
   3370   3382     1
   3371   3384     1
   3371   3385     1
   3372   3383     1
   3372   3375     1
   3372   3376     1
   3373   3383     1
   3373   3375     1
   3373   3376     1
   3375   3392     1
   3375   3384     1
   3375   3385     1
   3376   3392     1
   3376   3384     1
   3376   3385     1
   3378   6843     1
   3378   3390     1
   3378   3391     1
   3379   6843     1
   3379   3390     1
   3379   3391     1
   3381   6814     1
   3381   3387     1
   3381   3388     1
   3382   6814     1
   3382   3387     1
   3382   3388     1
   3386   6787     1
   3386   6788     1
   3387   6786     1
   3388   6786     1
   3389   6816     1
   3389   6817     1
   3390   6815     1
   3391   6815     1
   3393   3407     1
   3393   3408     1
   3393   3410     1
   3393   3411     1
   3393   3404     1
   3393   3405     1
   3394   3398     1
   3394   3399     1
   3394   3401     1
   3394   3402     1
   3394   3419     1
   3394   3420     1
   3395   3397     1
   3395   3400     1
   3395   3418     1
   3395   3407     1
   3395   3408     1
   3396   3397     1
   3396   3400     1
   3396   3418     1
   3396   3407     1
   3396   3408     1
   3397   3401     1
   3397   3402     1
   3397   3416     1
   3397   3417     1
   3398   3400     1
   3398   3415     1
   3398   3410     1
   3398   3411     1
   3399   3400     1
   3399   3415     1
   3399   3410     1
   3399   3411     1
   3400   3413     1
   3400   3414     1
   3401   3412     1
   3401   3404     1
   3401   3405     1
   3402   3412     1
   3402   3404     1
   3402   3405     1
   3404   3421     1
   3404   3413     1
   3404   3414     1
   3405   3421     1
   3405   3413     1
   3405   3414     1
   3407   6901     1
   3407   3419     1
   3407   3420     1
   3408   6901     1
   3408   3419     1
   3408   3420     1
   3410   6872     1
   3410   3416     1
   3410   3417     1
   3411   6872     1
   3411   3416     1
   3411   3417     1
   3415   6845     1
   3415   6846     1
   3416   6844     1
   3417   6844     1
   3418   6874     1
   3418   6875     1
   3419   6873     1
   3420   6873     1
   3422   3436     1
   3422   3437     1
   3422   3439     1
   3422   3440     1
   3422   3433     1
   3422   3434     1
   3423   3427     1
   3423   3428     1
   3423   3430     1
   3423   3431     1
   3423   3448     1
   3423   3449     1
   3424   3426     1
   3424   3429     1
   3424   3447     1
   3424   3436     1
   3424   3437     1
   3425   3426     1
   3425   3429     1
   3425   3447     1
   3425   3436     1
   3425   3437     1
   3426   3430     1
   3426   3431     1
   3426   3445     1
   3426   3446     1
   3427   3429     1
   3427   3444     1
   3427   3439     1
   3427   3440     1
   3428   3429     1
   3428   3444     1
   3428   3439     1
   3428   3440     1
   3429   3442     1
   3429   3443     1
   3430   3441     1
   3430   3433     1
   3430   3434     1
   3431   3441     1
   3431   3433     1
   3431   3434     1
   3433   3450     1
   3433   3442     1
   3433   3443     1
   3434   3450     1
   3434   3442     1
   3434   3443     1
   3436   6959     1
   3436   3448     1
   3436   3449     1
   3437   6959     1
   3437   3448     1
   3437   3449     1
   3439   6930     1
   3439   3445     1
   3439   3446     1
   3440   6930     1
   3440   3445     1
   3440   3446     1
   3444   6903     1
   3444   6904     1
   3445   6902     1
   3446   6902     1
   3447   6932     1
   3447   6933     1
   3448   6931     1
   3449   6931     1
   3451   3465     1
   3451   3466     1
   3451   3468     1
   3451   3469     1
   3451   3462     1
   3451   3463     1
   3452   3456     1
   3452   3457     1
   3452   3459     1
   3452   3460     1
   3452   3477     1
   3452   3478     1
   3453   3455     1
   3453   3458     1
   3453   3476     1
   3453   3465     1
   3453   3466     1
   3454   3455     1
   3454   3458     1
   3454   3476     1
   3454   3465     1
   3454   3466     1
   3455   3459     1
   3455   3460     1
   3455   3474     1
   3455   3475     1
   3456   3458     1
   3456   3473     1
   3456   3468     1
   3456   3469     1
   3457   3458     1
   3457   3473     1
   3457   3468     1
   3457   3469     1
   3458   3471     1
   3458   3472     1
   3459   3470     1
   3459   3462     1
   3459   3463     1
   3460   3470     1
   3460   3462     1
   3460   3463     1
   3462   3479     1
   3462   3471     1
   3462   3472     1
   3463   3479     1
   3463   3471     1
   3463   3472     1
   3465   7017     1
   3465   3477     1
   3465   3478     1
   3466   7017     1
   3466   3477     1
   3466   3478     1
   3468   6988     1
   3468   3474     1
   3468   3475     1
   3469   6988     1
   3469   3474     1
   3469   3475     1
   3473   6961     1
   3473   6962     1
   3474   6960     1
   3475   6960     1
   3476   6990     1
   3476   6991     1
   3477   6989     1
   3478   6989     1
   3480   3494     1
   3480   3495     1
   3480   3497     1
   3480   3498     1
   3480   3491     1
   3480   3492     1
   3481   3485     1
   3481   3486     1
   3481   3488     1
   3481   3489     1
   3481   3506     1
   3481   3507     1
   3482   3484     1
   3482   3487     1
   3482   3505     1
   3482   3494     1
   3482   3495     1
   3483   3484     1
   3483   3487     1
   3483   3505     1
   3483   3494     1
   3483   3495     1
   3484   3488     1
   3484   3489     1
   3484   3503     1
   3484   3504     1
   3485   3487     1
   3485   3502     1
   3485   3497     1
   3485   3498     1
   3486   3487     1
   3486   3502     1
   3486   3497     1
   3486   3498     1
   3487   3500     1
   3487   3501     1
   3488   3499     1
   3488   3491     1
   3488   3492     1
   3489   3499     1
   3489   3491     1
   3489   3492     1
   3491   3508     1
   3491   3500     1
   3491   3501     1
   3492   3508     1
   3492   3500     1
   3492   3501     1
   3494   7075     1
   3494   3506     1
   3494   3507     1
   3495   7075     1
   3495   3506     1
   3495   3507     1
   3497   7046     1
   3497   3503     1
   3497   3504     1
   3498   7046     1
   3498   3503     1
   3498   3504     1
   3502   7019     1
   3502   7020     1
   3503   7018     1
   3504   7018     1
   3505   7048     1
   3505   7049     1
   3506   7047     1
   3507   7047     1
   3509   3523     1
   3509   3524     1
   3509   3526     1
   3509   3527     1
   3509   3520     1
   3509   3521     1
   3510   3514     1
   3510   3515     1
   3510   3517     1
   3510   3518     1
   3510   3535     1
   3510   3536     1
   3511   3513     1
   3511   3516     1
   3511   3534     1
   3511   3523     1
   3511   3524     1
   3512   3513     1
   3512   3516     1
   3512   3534     1
   3512   3523     1
   3512   3524     1
   3513   3517     1
   3513   3518     1
   3513   3532     1
   3513   3533     1
   3514   3516     1
   3514   3531     1
   3514   3526     1
   3514   3527     1
   3515   3516     1
   3515   3531     1
   3515   3526     1
   3515   3527     1
   3516   3529     1
   3516   3530     1
   3517   3528     1
   3517   3520     1
   3517   3521     1
   3518   3528     1
   3518   3520     1
   3518   3521     1
   3520   3537     1
   3520   3529     1
   3520   3530     1
   3521   3537     1
   3521   3529     1
   3521   3530     1
   3523   7133     1
   3523   3535     1
   3523   3536     1
   3524   7133     1
   3524   3535     1
   3524   3536     1
   3526   7104     1
   3526   3532     1
   3526   3533     1
   3527   7104     1
   3527   3532     1
   3527   3533     1
   3531   7077     1
   3531   7078     1
   3532   7076     1
   3533   7076     1
   3534   7106     1
   3534   7107     1
   3535   7105     1
   3536   7105     1
   3538   3552     1
   3538   3553     1
   3538   3555     1
   3538   3556     1
   3538   3549     1
   3538   3550     1
   3539   3543     1
   3539   3544     1
   3539   3546     1
   3539   3547     1
   3539   3564     1
   3539   3565     1
   3540   3542     1
   3540   3545     1
   3540   3563     1
   3540   3552     1
   3540   3553     1
   3541   3542     1
   3541   3545     1
   3541   3563     1
   3541   3552     1
   3541   3553     1
   3542   3546     1
   3542   3547     1
   3542   3561     1
   3542   3562     1
   3543   3545     1
   3543   3560     1
   3543   3555     1
   3543   3556     1
   3544   3545     1
   3544   3560     1
   3544   3555     1
   3544   3556     1
   3545   3558     1
   3545   3559     1
   3546   3557     1
   3546   3549     1
   3546   3550     1
   3547   3557     1
   3547   3549     1
   3547   3550     1
   3549   3566     1
   3549   3558     1
   3549   3559     1
   3550   3566     1
   3550   3558     1
   3550   3559     1
   3552   7191     1
   3552   3564     1
   3552   3565     1
   3553   7191     1
   3553   3564     1
   3553   3565     1
   3555   7162     1
   3555   3561     1
   3555   3562     1
   3556   7162     1
   3556   3561     1
   3556   3562     1
   3560   7135     1
   3560   7136     1
   3561   7134     1
   3562   7134     1
   3563   7164     1
   3563   7165     1
   3564   7163     1
   3565   7163     1
   3567   3581     1
   3567   3582     1
   3567   3584     1
   3567   3585     1
   3567   3578     1
   3567   3579     1
   3568   3572     1
   3568   3573     1
   3568   3575     1
   3568   3576     1
   3568   3593     1
   3568   3594     1
   3569   3571     1
   3569   3574     1
   3569   3592     1
   3569   3581     1
   3569   3582     1
   3570   3571     1
   3570   3574     1
   3570   3592     1
   3570   3581     1
   3570   3582     1
   3571   3575     1
   3571   3576     1
   3571   3590     1
   3571   3591     1
   3572   3574     1
   3572   3589     1
   3572   3584     1
   3572   3585     1
   3573   3574     1
   3573   3589     1
   3573   3584     1
   3573   3585     1
   3574   3587     1
   3574   3588     1
   3575   3586     1
   3575   3578     1
   3575   3579     1
   3576   3586     1
   3576   3578     1
   3576   3579     1
   3578   3595     1
   3578   3587     1
   3578   3588     1
   3579   3595     1
   3579   3587     1
   3579   3588     1
   3581   7249     1
   3581   3593     1
   3581   3594     1
   3582   7249     1
   3582   3593     1
   3582   3594     1
   3584   7220     1
   3584   3590     1
   3584   3591     1
   3585   7220     1
   3585   3590     1
   3585   3591     1
   3589   7193     1
   3589   7194     1
   3590   7192     1
   3591   7192     1
   3592   7222     1
   3592   7223     1
   3593   7221     1
   3594   7221     1
   3596   3610     1
   3596   3611     1
   3596   3613     1
   3596   3614     1
   3596   3607     1
   3596   3608     1
   3597   3601     1
   3597   3602     1
   3597   3604     1
   3597   3605     1
   3597   3622     1
   3597   3623     1
   3598   3600     1
   3598   3603     1
   3598   3621     1
   3598   3610     1
   3598   3611     1
   3599   3600     1
   3599   3603     1
   3599   3621     1
   3599   3610     1
   3599   3611     1
   3600   3604     1
   3600   3605     1
   3600   3619     1
   3600   3620     1
   3601   3603     1
   3601   3618     1
   3601   3613     1
   3601   3614     1
   3602   3603     1
   3602   3618     1
   3602   3613     1
   3602   3614     1
   3603   3616     1
   3603   3617     1
   3604   3615     1
   3604   3607     1
   3604   3608     1
   3605   3615     1
   3605   3607     1
   3605   3608     1
   3607   3624     1
   3607   3616     1
   3607   3617     1
   3608   3624     1
   3608   3616     1
   3608   3617     1
   3610   7307     1
   3610   3622     1
   3610   3623     1
   3611   7307     1
   3611   3622     1
   3611   3623     1
   3613   7278     1
   3613   3619     1
   3613   3620     1
   3614   7278     1
   3614   3619     1
   3614   3620     1
   3618   7251     1
   3618   7252     1
   3619   7250     1
   3620   7250     1
   3621   7280     1
   3621   7281     1
   3622   7279     1
   3623   7279     1
   3625   3639     1
   3625   3640     1
   3625   3642     1
   3625   3643     1
   3625   3636     1
   3625   3637     1
   3626   3630     1
   3626   3631     1
   3626   3633     1
   3626   3634     1
   3626   3651     1
   3626   3652     1
   3627   3629     1
   3627   3632     1
   3627   3650     1
   3627   3639     1
   3627   3640     1
   3628   3629     1
   3628   3632     1
   3628   3650     1
   3628   3639     1
   3628   3640     1
   3629   3633     1
   3629   3634     1
   3629   3648     1
   3629   3649     1
   3630   3632     1
   3630   3647     1
   3630   3642     1
   3630   3643     1
   3631   3632     1
   3631   3647     1
   3631   3642     1
   3631   3643     1
   3632   3645     1
   3632   3646     1
   3633   3644     1
   3633   3636     1
   3633   3637     1
   3634   3644     1
   3634   3636     1
   3634   3637     1
   3636   3653     1
   3636   3645     1
   3636   3646     1
   3637   3653     1
   3637   3645     1
   3637   3646     1
   3639   7365     1
   3639   3651     1
   3639   3652     1
   3640   7365     1
   3640   3651     1
   3640   3652     1
   3642   7336     1
   3642   3648     1
   3642   3649     1
   3643   7336     1
   3643   3648     1
   3643   3649     1
   3647   7309     1
   3647   7310     1
   3648   7308     1
   3649   7308     1
   3650   7338     1
   3650   7339     1
   3651   7337     1
   3652   7337     1
   3654   3668     1
   3654   3669     1
   3654   3671     1
   3654   3672     1
   3654   3665     1
   3654   3666     1
   3655   3659     1
   3655   3660     1
   3655   3662     1
   3655   3663     1
   3655   3680     1
   3655   3681     1
   3656   3658     1
   3656   3661     1
   3656   3679     1
   3656   3668     1
   3656   3669     1
   3657   3658     1
   3657   3661     1
   3657   3679     1
   3657   3668     1
   3657   3669     1
   3658   3662     1
   3658   3663     1
   3658   3677     1
   3658   3678     1
   3659   3661     1
   3659   3676     1
   3659   3671     1
   3659   3672     1
   3660   3661     1
   3660   3676     1
   3660   3671     1
   3660   3672     1
   3661   3674     1
   3661   3675     1
   3662   3673     1
   3662   3665     1
   3662   3666     1
   3663   3673     1
   3663   3665     1
   3663   3666     1
   3665   3682     1
   3665   3674     1
   3665   3675     1
   3666   3682     1
   3666   3674     1
   3666   3675     1
   3668   7423     1
   3668   3680     1
   3668   3681     1
   3669   7423     1
   3669   3680     1
   3669   3681     1
   3671   7394     1
   3671   3677     1
   3671   3678     1
   3672   7394     1
   3672   3677     1
   3672   3678     1
   3676   7367     1
   3676   7368     1
   3677   7366     1
   3678   7366     1
   3679   7396     1
   3679   7397     1
   3680   7395     1
   3681   7395     1
   3683   3697     1
   3683   3698     1
   3683   3700     1
   3683   3701     1
   3683   3694     1
   3683   3695     1
   3684   3688     1
   3684   3689     1
   3684   3691     1
   3684   3692     1
   3684   3709     1
   3684   3710     1
   3685   3687     1
   3685   3690     1
   3685   3708     1
   3685   3697     1
   3685   3698     1
   3686   3687     1
   3686   3690     1
   3686   3708     1
   3686   3697     1
   3686   3698     1
   3687   3691     1
   3687   3692     1
   3687   3706     1
   3687   3707     1
   3688   3690     1
   3688   3705     1
   3688   3700     1
   3688   3701     1
   3689   3690     1
   3689   3705     1
   3689   3700     1
   3689   3701     1
   3690   3703     1
   3690   3704     1
   3691   3702     1
   3691   3694     1
   3691   3695     1
   3692   3702     1
   3692   3694     1
   3692   3695     1
   3694   3711     1
   3694   3703     1
   3694   3704     1
   3695   3711     1
   3695   3703     1
   3695   3704     1
   3697   7481     1
   3697   3709     1
   3697   3710     1
   3698   7481     1
   3698   3709     1
   3698   3710     1
   3700   7452     1
   3700   3706     1
   3700   3707     1
   3701   7452     1
   3701   3706     1
   3701   3707     1
   3705   7425     1
   3705   7426     1
   3706   7424     1
   3707   7424     1
   3708   7454     1
   3708   7455     1
   3709   7453     1
   3710   7453     1
   3712   3726     1
   3712   3727     1
   3712   3729     1
   3712   3730     1
   3712   3723     1
   3712   3724     1
   3713   3717     1
   3713   3718     1
   3713   3720     1
   3713   3721     1
   3713   3738     1
   3713   3739     1
   3714   3716     1
   3714   3719     1
   3714   3737     1
   3714   3726     1
   3714   3727     1
   3715   3716     1
   3715   3719     1
   3715   3737     1
   3715   3726     1
   3715   3727     1
   3716   3720     1
   3716   3721     1
   3716   3735     1
   3716   3736     1
   3717   3719     1
   3717   3734     1
   3717   3729     1
   3717   3730     1
   3718   3719     1
   3718   3734     1
   3718   3729     1
   3718   3730     1
   3719   3732     1
   3719   3733     1
   3720   3731     1
   3720   3723     1
   3720   3724     1
   3721   3731     1
   3721   3723     1
   3721   3724     1
   3723   3740     1
   3723   3732     1
   3723   3733     1
   3724   3740     1
   3724   3732     1
   3724   3733     1
   3726   7539     1
   3726   3738     1
   3726   3739     1
   3727   7539     1
   3727   3738     1
   3727   3739     1
   3729   7510     1
   3729   3735     1
   3729   3736     1
   3730   7510     1
   3730   3735     1
   3730   3736     1
   3734   7483     1
   3734   7484     1
   3735   7482     1
   3736   7482     1
   3737   7512     1
   3737   7513     1
   3738   7511     1
   3739   7511     1
   3741   3755     1
   3741   3756     1
   3741   3758     1
   3741   3759     1
   3741   3752     1
   3741   3753     1
   3742   3746     1
   3742   3747     1
   3742   3749     1
   3742   3750     1
   3742   3767     1
   3742   3768     1
   3743   3745     1
   3743   3748     1
   3743   3766     1
   3743   3755     1
   3743   3756     1
   3744   3745     1
   3744   3748     1
   3744   3766     1
   3744   3755     1
   3744   3756     1
   3745   3749     1
   3745   3750     1
   3745   3764     1
   3745   3765     1
   3746   3748     1
   3746   3763     1
   3746   3758     1
   3746   3759     1
   3747   3748     1
   3747   3763     1
   3747   3758     1
   3747   3759     1
   3748   3761     1
   3748   3762     1
   3749   3760     1
   3749   3752     1
   3749   3753     1
   3750   3760     1
   3750   3752     1
   3750   3753     1
   3752   3769     1
   3752   3761     1
   3752   3762     1
   3753   3769     1
   3753   3761     1
   3753   3762     1
   3755   7597     1
   3755   3767     1
   3755   3768     1
   3756   7597     1
   3756   3767     1
   3756   3768     1
   3758   7568     1
   3758   3764     1
   3758   3765     1
   3759   7568     1
   3759   3764     1
   3759   3765     1
   3763   7541     1
   3763   7542     1
   3764   7540     1
   3765   7540     1
   3766   7570     1
   3766   7571     1
   3767   7569     1
   3768   7569     1
   3770   3784     1
   3770   3785     1
   3770   3787     1
   3770   3788     1
   3770   3781     1
   3770   3782     1
   3771   3775     1
   3771   3776     1
   3771   3778     1
   3771   3779     1
   3771   3796     1
   3771   3797     1
   3772   3774     1
   3772   3777     1
   3772   3795     1
   3772   3784     1
   3772   3785     1
   3773   3774     1
   3773   3777     1
   3773   3795     1
   3773   3784     1
   3773   3785     1
   3774   3778     1
   3774   3779     1
   3774   3793     1
   3774   3794     1
   3775   3777     1
   3775   3792     1
   3775   3787     1
   3775   3788     1
   3776   3777     1
   3776   3792     1
   3776   3787     1
   3776   3788     1
   3777   3790     1
   3777   3791     1
   3778   3789     1
   3778   3781     1
   3778   3782     1
   3779   3789     1
   3779   3781     1
   3779   3782     1
   3781   3798     1
   3781   3790     1
   3781   3791     1
   3782   3798     1
   3782   3790     1
   3782   3791     1
   3784   7655     1
   3784   3796     1
   3784   3797     1
   3785   7655     1
   3785   3796     1
   3785   3797     1
   3787   7626     1
   3787   3793     1
   3787   3794     1
   3788   7626     1
   3788   3793     1
   3788   3794     1
   3792   7599     1
   3792   7600     1
   3793   7598     1
   3794   7598     1
   3795   7628     1
   3795   7629     1
   3796   7627     1
   3797   7627     1
   3799   3813     1
   3799   3814     1
   3799   3816     1
   3799   3817     1
   3799   3810     1
   3799   3811     1
   3800   3804     1
   3800   3805     1
   3800   3807     1
   3800   3808     1
   3800   3825     1
   3800   3826     1
   3801   3803     1
   3801   3806     1
   3801   3824     1
   3801   3813     1
   3801   3814     1
   3802   3803     1
   3802   3806     1
   3802   3824     1
   3802   3813     1
   3802   3814     1
   3803   3807     1
   3803   3808     1
   3803   3822     1
   3803   3823     1
   3804   3806     1
   3804   3821     1
   3804   3816     1
   3804   3817     1
   3805   3806     1
   3805   3821     1
   3805   3816     1
   3805   3817     1
   3806   3819     1
   3806   3820     1
   3807   3818     1
   3807   3810     1
   3807   3811     1
   3808   3818     1
   3808   3810     1
   3808   3811     1
   3810   3827     1
   3810   3819     1
   3810   3820     1
   3811   3827     1
   3811   3819     1
   3811   3820     1
   3813   7713     1
   3813   3825     1
   3813   3826     1
   3814   7713     1
   3814   3825     1
   3814   3826     1
   3816   7684     1
   3816   3822     1
   3816   3823     1
   3817   7684     1
   3817   3822     1
   3817   3823     1
   3821   7657     1
   3821   7658     1
   3822   7656     1
   3823   7656     1
   3824   7686     1
   3824   7687     1
   3825   7685     1
   3826   7685     1
   3828   3842     1
   3828   3843     1
   3828   3845     1
   3828   3846     1
   3828   3839     1
   3828   3840     1
   3829   3833     1
   3829   3834     1
   3829   3836     1
   3829   3837     1
   3829   3854     1
   3829   3855     1
   3830   3832     1
   3830   3835     1
   3830   3853     1
   3830   3842     1
   3830   3843     1
   3831   3832     1
   3831   3835     1
   3831   3853     1
   3831   3842     1
   3831   3843     1
   3832   3836     1
   3832   3837     1
   3832   3851     1
   3832   3852     1
   3833   3835     1
   3833   3850     1
   3833   3845     1
   3833   3846     1
   3834   3835     1
   3834   3850     1
   3834   3845     1
   3834   3846     1
   3835   3848     1
   3835   3849     1
   3836   3847     1
   3836   3839     1
   3836   3840     1
   3837   3847     1
   3837   3839     1
   3837   3840     1
   3839   3856     1
   3839   3848     1
   3839   3849     1
   3840   3856     1
   3840   3848     1
   3840   3849     1
   3842   7771     1
   3842   3854     1
   3842   3855     1
   3843   7771     1
   3843   3854     1
   3843   3855     1
   3845   7742     1
   3845   3851     1
   3845   3852     1
   3846   7742     1
   3846   3851     1
   3846   3852     1
   3850   7715     1
   3850   7716     1
   3851   7714     1
   3852   7714     1
   3853   7744     1
   3853   7745     1
   3854   7743     1
   3855   7743     1
   3857   3871     1
   3857   3872     1
   3857   3874     1
   3857   3875     1
   3857   3868     1
   3857   3869     1
   3858   3862     1
   3858   3863     1
   3858   3865     1
   3858   3866     1
   3858   3883     1
   3858   3884     1
   3859   3861     1
   3859   3864     1
   3859   3882     1
   3859   3871     1
   3859   3872     1
   3860   3861     1
   3860   3864     1
   3860   3882     1
   3860   3871     1
   3860   3872     1
   3861   3865     1
   3861   3866     1
   3861   3880     1
   3861   3881     1
   3862   3864     1
   3862   3879     1
   3862   3874     1
   3862   3875     1
   3863   3864     1
   3863   3879     1
   3863   3874     1
   3863   3875     1
   3864   3877     1
   3864   3878     1
   3865   3876     1
   3865   3868     1
   3865   3869     1
   3866   3876     1
   3866   3868     1
   3866   3869     1
   3868   3885     1
   3868   3877     1
   3868   3878     1
   3869   3885     1
   3869   3877     1
   3869   3878     1
   3871   7829     1
   3871   3883     1
   3871   3884     1
   3872   7829     1
   3872   3883     1
   3872   3884     1
   3874   7800     1
   3874   3880     1
   3874   3881     1
   3875   7800     1
   3875   3880     1
   3875   3881     1
   3879   7773     1
   3879   7774     1
   3880   7772     1
   3881   7772     1
   3882   7802     1
   3882   7803     1
   3883   7801     1
   3884   7801     1
   3886   3900     1
   3886   3901     1
   3886   3903     1
   3886   3904     1
   3886   3897     1
   3886   3898     1
   3887   3891     1
   3887   3892     1
   3887   3894     1
   3887   3895     1
   3887   3912     1
   3887   3913     1
   3888   3890     1
   3888   3893     1
   3888   3911     1
   3888   3900     1
   3888   3901     1
   3889   3890     1
   3889   3893     1
   3889   3911     1
   3889   3900     1
   3889   3901     1
   3890   3894     1
   3890   3895     1
   3890   3909     1
   3890   3910     1
   3891   3893     1
   3891   3908     1
   3891   3903     1
   3891   3904     1
   3892   3893     1
   3892   3908     1
   3892   3903     1
   3892   3904     1
   3893   3906     1
   3893   3907     1
   3894   3905     1
   3894   3897     1
   3894   3898     1
   3895   3905     1
   3895   3897     1
   3895   3898     1
   3897   3914     1
   3897   3906     1
   3897   3907     1
   3898   3914     1
   3898   3906     1
   3898   3907     1
   3900   7887     1
   3900   3912     1
   3900   3913     1
   3901   7887     1
   3901   3912     1
   3901   3913     1
   3903   7858     1
   3903   3909     1
   3903   3910     1
   3904   7858     1
   3904   3909     1
   3904   3910     1
   3908   7831     1
   3908   7832     1
   3909   7830     1
   3910   7830     1
   3911   7860     1
   3911   7861     1
   3912   7859     1
   3913   7859     1
   3915   3929     1
   3915   3930     1
   3915   3932     1
   3915   3933     1
   3915   3926     1
   3915   3927     1
   3916   3920     1
   3916   3921     1
   3916   3923     1
   3916   3924     1
   3916   3941     1
   3916   3942     1
   3917   3919     1
   3917   3922     1
   3917   3940     1
   3917   3929     1
   3917   3930     1
   3918   3919     1
   3918   3922     1
   3918   3940     1
   3918   3929     1
   3918   3930     1
   3919   3923     1
   3919   3924     1
   3919   3938     1
   3919   3939     1
   3920   3922     1
   3920   3937     1
   3920   3932     1
   3920   3933     1
   3921   3922     1
   3921   3937     1
   3921   3932     1
   3921   3933     1
   3922   3935     1
   3922   3936     1
   3923   3934     1
   3923   3926     1
   3923   3927     1
   3924   3934     1
   3924   3926     1
   3924   3927     1
   3926   3943     1
   3926   3935     1
   3926   3936     1
   3927   3943     1
   3927   3935     1
   3927   3936     1
   3929   7945     1
   3929   3941     1
   3929   3942     1
   3930   7945     1
   3930   3941     1
   3930   3942     1
   3932   7916     1
   3932   3938     1
   3932   3939     1
   3933   7916     1
   3933   3938     1
   3933   3939     1
   3937   7889     1
   3937   7890     1
   3938   7888     1
   3939   7888     1
   3940   7918     1
   3940   7919     1
   3941   7917     1
   3942   7917     1
   3944   3958     1
   3944   3959     1
   3944   3961     1
   3944   3962     1
   3944   3955     1
   3944   3956     1
   3945   3949     1
   3945   3950     1
   3945   3952     1
   3945   3953     1
   3945   3970     1
   3945   3971     1
   3946   3948     1
   3946   3951     1
   3946   3969     1
   3946   3958     1
   3946   3959     1
   3947   3948     1
   3947   3951     1
   3947   3969     1
   3947   3958     1
   3947   3959     1
   3948   3952     1
   3948   3953     1
   3948   3967     1
   3948   3968     1
   3949   3951     1
   3949   3966     1
   3949   3961     1
   3949   3962     1
   3950   3951     1
   3950   3966     1
   3950   3961     1
   3950   3962     1
   3951   3964     1
   3951   3965     1
   3952   3963     1
   3952   3955     1
   3952   3956     1
   3953   3963     1
   3953   3955     1
   3953   3956     1
   3955   3972     1
   3955   3964     1
   3955   3965     1
   3956   3972     1
   3956   3964     1
   3956   3965     1
   3958   8003     1
   3958   3970     1
   3958   3971     1
   3959   8003     1
   3959   3970     1
   3959   3971     1
   3961   7974     1
   3961   3967     1
   3961   3968     1
   3962   7974     1
   3962   3967     1
   3962   3968     1
   3966   7947     1
   3966   7948     1
   3967   7946     1
   3968   7946     1
   3969   7976     1
   3969   7977     1
   3970   7975     1
   3971   7975     1
   3973   3987     1
   3973   3988     1
   3973   3990     1
   3973   3991     1
   3973   3984     1
   3973   3985     1
   3974   3978     1
   3974   3979     1
   3974   3981     1
   3974   3982     1
   3974   3999     1
   3974   4000     1
   3975   3977     1
   3975   3980     1
   3975   3998     1
   3975   3987     1
   3975   3988     1
   3976   3977     1
   3976   3980     1
   3976   3998     1
   3976   3987     1
   3976   3988     1
   3977   3981     1
   3977   3982     1
   3977   3996     1
   3977   3997     1
   3978   3980     1
   3978   3995     1
   3978   3990     1
   3978   3991     1
   3979   3980     1
   3979   3995     1
   3979   3990     1
   3979   3991     1
   3980   3993     1
   3980   3994     1
   3981   3992     1
   3981   3984     1
   3981   3985     1
   3982   3992     1
   3982   3984     1
   3982   3985     1
   3984   4001     1
   3984   3993     1
   3984   3994     1
   3985   4001     1
   3985   3993     1
   3985   3994     1
   3987   8061     1
   3987   3999     1
   3987   4000     1
   3988   8061     1
   3988   3999     1
   3988   4000     1
   3990   8032     1
   3990   3996     1
   3990   3997     1
   3991   8032     1
   3991   3996     1
   3991   3997     1
   3995   8005     1
   3995   8006     1
   3996   8004     1
   3997   8004     1
   3998   8034     1
   3998   8035     1
   3999   8033     1
   4000   8033     1
   4002   4016     1
   4002   4017     1
   4002   4019     1
   4002   4020     1
   4002   4013     1
   4002   4014     1
   4003   4007     1
   4003   4008     1
   4003   4010     1
   4003   4011     1
   4003   4028     1
   4003   4029     1
   4004   4006     1
   4004   4009     1
   4004   4027     1
   4004   4016     1
   4004   4017     1
   4005   4006     1
   4005   4009     1
   4005   4027     1
   4005   4016     1
   4005   4017     1
   4006   4010     1
   4006   4011     1
   4006   4025     1
   4006   4026     1
   4007   4009     1
   4007   4024     1
   4007   4019     1
   4007   4020     1
   4008   4009     1
   4008   4024     1
   4008   4019     1
   4008   4020     1
   4009   4022     1
   4009   4023     1
   4010   4021     1
   4010   4013     1
   4010   4014     1
   4011   4021     1
   4011   4013     1
   4011   4014     1
   4013   4030     1
   4013   4022     1
   4013   4023     1
   4014   4030     1
   4014   4022     1
   4014   4023     1
   4016   8119     1
   4016   4028     1
   4016   4029     1
   4017   8119     1
   4017   4028     1
   4017   4029     1
   4019   8090     1
   4019   4025     1
   4019   4026     1
   4020   8090     1
   4020   4025     1
   4020   4026     1
   4024   8063     1
   4024   8064     1
   4025   8062     1
   4026   8062     1
   4027   8092     1
   4027   8093     1
   4028   8091     1
   4029   8091     1
   4031   4045     1
   4031   4046     1
   4031   4048     1
   4031   4049     1
   4031   4042     1
   4031   4043     1
   4032   4036     1
   4032   4037     1
   4032   4039     1
   4032   4040     1
   4032   4057     1
   4032   4058     1
   4033   4035     1
   4033   4038     1
   4033   4056     1
   4033   4045     1
   4033   4046     1
   4034   4035     1
   4034   4038     1
   4034   4056     1
   4034   4045     1
   4034   4046     1
   4035   4039     1
   4035   4040     1
   4035   4054     1
   4035   4055     1
   4036   4038     1
   4036   4053     1
   4036   4048     1
   4036   4049     1
   4037   4038     1
   4037   4053     1
   4037   4048     1
   4037   4049     1
   4038   4051     1
   4038   4052     1
   4039   4050     1
   4039   4042     1
   4039   4043     1
   4040   4050     1
   4040   4042     1
   4040   4043     1
   4042   4059     1
   4042   4051     1
   4042   4052     1
   4043   4059     1
   4043   4051     1
   4043   4052     1
   4045   8177     1
   4045   4057     1
   4045   4058     1
   4046   8177     1
   4046   4057     1
   4046   4058     1
   4048   8148     1
   4048   4054     1
   4048   4055     1
   4049   8148     1
   4049   4054     1
   4049   4055     1
   4053   8121     1
   4053   8122     1
   4054   8120     1
   4055   8120     1
   4056   8150     1
   4056   8151     1
   4057   8149     1
   4058   8149     1
   4060   4074     1
   4060   4075     1
   4060   4077     1
   4060   4078     1
   4060   4071     1
   4060   4072     1
   4061   4065     1
   4061   4066     1
   4061   4068     1
   4061   4069     1
   4061   4086     1
   4061   4087     1
   4062   4064     1
   4062   4067     1
   4062   4085     1
   4062   4074     1
   4062   4075     1
   4063   4064     1
   4063   4067     1
   4063   4085     1
   4063   4074     1
   4063   4075     1
   4064   4068     1
   4064   4069     1
   4064   4083     1
   4064   4084     1
   4065   4067     1
   4065   4082     1
   4065   4077     1
   4065   4078     1
   4066   4067     1
   4066   4082     1
   4066   4077     1
   4066   4078     1
   4067   4080     1
   4067   4081     1
   4068   4079     1
   4068   4071     1
   4068   4072     1
   4069   4079     1
   4069   4071     1
   4069   4072     1
   4071   4088     1
   4071   4080     1
   4071   4081     1
   4072   4088     1
   4072   4080     1
   4072   4081     1
   4074   8235     1
   4074   4086     1
   4074   4087     1
   4075   8235     1
   4075   4086     1
   4075   4087     1
   4077   8206     1
   4077   4083     1
   4077   4084     1
   4078   8206     1
   4078   4083     1
   4078   4084     1
   4082   8179     1
   4082   8180     1
   4083   8178     1
   4084   8178     1
   4085   8208     1
   4085   8209     1
   4086   8207     1
   4087   8207     1
   4089   4103     1
   4089   4104     1
   4089   4106     1
   4089   4107     1
   4089   4100     1
   4089   4101     1
   4090   4094     1
   4090   4095     1
   4090   4097     1
   4090   4098     1
   4090   4115     1
   4090   4116     1
   4091   4093     1
   4091   4096     1
   4091   4114     1
   4091   4103     1
   4091   4104     1
   4092   4093     1
   4092   4096     1
   4092   4114     1
   4092   4103     1
   4092   4104     1
   4093   4097     1
   4093   4098     1
   4093   4112     1
   4093   4113     1
   4094   4096     1
   4094   4111     1
   4094   4106     1
   4094   4107     1
   4095   4096     1
   4095   4111     1
   4095   4106     1
   4095   4107     1
   4096   4109     1
   4096   4110     1
   4097   4108     1
   4097   4100     1
   4097   4101     1
   4098   4108     1
   4098   4100     1
   4098   4101     1
   4100   4117     1
   4100   4109     1
   4100   4110     1
   4101   4117     1
   4101   4109     1
   4101   4110     1
   4103   8293     1
   4103   4115     1
   4103   4116     1
   4104   8293     1
   4104   4115     1
   4104   4116     1
   4106   8264     1
   4106   4112     1
   4106   4113     1
   4107   8264     1
   4107   4112     1
   4107   4113     1
   4111   8237     1
   4111   8238     1
   4112   8236     1
   4113   8236     1
   4114   8266     1
   4114   8267     1
   4115   8265     1
   4116   8265     1
   4118   4132     1
   4118   4133     1
   4118   4135     1
   4118   4136     1
   4118   4129     1
   4118   4130     1
   4119   4123     1
   4119   4124     1
   4119   4126     1
   4119   4127     1
   4119   4144     1
   4119   4145     1
   4120   4122     1
   4120   4125     1
   4120   4143     1
   4120   4132     1
   4120   4133     1
   4121   4122     1
   4121   4125     1
   4121   4143     1
   4121   4132     1
   4121   4133     1
   4122   4126     1
   4122   4127     1
   4122   4141     1
   4122   4142     1
   4123   4125     1
   4123   4140     1
   4123   4135     1
   4123   4136     1
   4124   4125     1
   4124   4140     1
   4124   4135     1
   4124   4136     1
   4125   4138     1
   4125   4139     1
   4126   4137     1
   4126   4129     1
   4126   4130     1
   4127   4137     1
   4127   4129     1
   4127   4130     1
   4129   4146     1
   4129   4138     1
   4129   4139     1
   4130   4146     1
   4130   4138     1
   4130   4139     1
   4132   8351     1
   4132   4144     1
   4132   4145     1
   4133   8351     1
   4133   4144     1
   4133   4145     1
   4135   8322     1
   4135   4141     1
   4135   4142     1
   4136   8322     1
   4136   4141     1
   4136   4142     1
   4140   8295     1
   4140   8296     1
   4141   8294     1
   4142   8294     1
   4143   8324     1
   4143   8325     1
   4144   8323     1
   4145   8323     1
   4147   4161     1
   4147   4162     1
   4147   4164     1
   4147   4165     1
   4147   4158     1
   4147   4159     1
   4148   4152     1
   4148   4153     1
   4148   4155     1
   4148   4156     1
   4148   4173     1
   4148   4174     1
   4149   4151     1
   4149   4154     1
   4149   4172     1
   4149   4161     1
   4149   4162     1
   4150   4151     1
   4150   4154     1
   4150   4172     1
   4150   4161     1
   4150   4162     1
   4151   4155     1
   4151   4156     1
   4151   4170     1
   4151   4171     1
   4152   4154     1
   4152   4169     1
   4152   4164     1
   4152   4165     1
   4153   4154     1
   4153   4169     1
   4153   4164     1
   4153   4165     1
   4154   4167     1
   4154   4168     1
   4155   4166     1
   4155   4158     1
   4155   4159     1
   4156   4166     1
   4156   4158     1
   4156   4159     1
   4158   4175     1
   4158   4167     1
   4158   4168     1
   4159   4175     1
   4159   4167     1
   4159   4168     1
   4161   8409     1
   4161   4173     1
   4161   4174     1
   4162   8409     1
   4162   4173     1
   4162   4174     1
   4164   8380     1
   4164   4170     1
   4164   4171     1
   4165   8380     1
   4165   4170     1
   4165   4171     1
   4169   8353     1
   4169   8354     1
   4170   8352     1
   4171   8352     1
   4172   8382     1
   4172   8383     1
   4173   8381     1
   4174   8381     1
   4176   4190     1
   4176   4191     1
   4176   4193     1
   4176   4194     1
   4176   4187     1
   4176   4188     1
   4177   4181     1
   4177   4182     1
   4177   4184     1
   4177   4185     1
   4177   4202     1
   4177   4203     1
   4178   4180     1
   4178   4183     1
   4178   4201     1
   4178   4190     1
   4178   4191     1
   4179   4180     1
   4179   4183     1
   4179   4201     1
   4179   4190     1
   4179   4191     1
   4180   4184     1
   4180   4185     1
   4180   4199     1
   4180   4200     1
   4181   4183     1
   4181   4198     1
   4181   4193     1
   4181   4194     1
   4182   4183     1
   4182   4198     1
   4182   4193     1
   4182   4194     1
   4183   4196     1
   4183   4197     1
   4184   4195     1
   4184   4187     1
   4184   4188     1
   4185   4195     1
   4185   4187     1
   4185   4188     1
   4187   4204     1
   4187   4196     1
   4187   4197     1
   4188   4204     1
   4188   4196     1
   4188   4197     1
   4190   8467     1
   4190   4202     1
   4190   4203     1
   4191   8467     1
   4191   4202     1
   4191   4203     1
   4193   8438     1
   4193   4199     1
   4193   4200     1
   4194   8438     1
   4194   4199     1
   4194   4200     1
   4198   8411     1
   4198   8412     1
   4199   8410     1
   4200   8410     1
   4201   8440     1
   4201   8441     1
   4202   8439     1
   4203   8439     1
   4205   4219     1
   4205   4220     1
   4205   4222     1
   4205   4223     1
   4205   4216     1
   4205   4217     1
   4206   4210     1
   4206   4211     1
   4206   4213     1
   4206   4214     1
   4206   4231     1
   4206   4232     1
   4207   4209     1
   4207   4212     1
   4207   4230     1
   4207   4219     1
   4207   4220     1
   4208   4209     1
   4208   4212     1
   4208   4230     1
   4208   4219     1
   4208   4220     1
   4209   4213     1
   4209   4214     1
   4209   4228     1
   4209   4229     1
   4210   4212     1
   4210   4227     1
   4210   4222     1
   4210   4223     1
   4211   4212     1
   4211   4227     1
   4211   4222     1
   4211   4223     1
   4212   4225     1
   4212   4226     1
   4213   4224     1
   4213   4216     1
   4213   4217     1
   4214   4224     1
   4214   4216     1
   4214   4217     1
   4216   4233     1
   4216   4225     1
   4216   4226     1
   4217   4233     1
   4217   4225     1
   4217   4226     1
   4219   8525     1
   4219   4231     1
   4219   4232     1
   4220   8525     1
   4220   4231     1
   4220   4232     1
   4222   8496     1
   4222   4228     1
   4222   4229     1
   4223   8496     1
   4223   4228     1
   4223   4229     1
   4227   8469     1
   4227   8470     1
   4228   8468     1
   4229   8468     1
   4230   8498     1
   4230   8499     1
   4231   8497     1
   4232   8497     1
   4234   4248     1
   4234   4249     1
   4234   4251     1
   4234   4252     1
   4234   4245     1
   4234   4246     1
   4235   4239     1
   4235   4240     1
   4235   4242     1
   4235   4243     1
   4235   4260     1
   4235   4261     1
   4236   4238     1
   4236   4241     1
   4236   4259     1
   4236   4248     1
   4236   4249     1
   4237   4238     1
   4237   4241     1
   4237   4259     1
   4237   4248     1
   4237   4249     1
   4238   4242     1
   4238   4243     1
   4238   4257     1
   4238   4258     1
   4239   4241     1
   4239   4256     1
   4239   4251     1
   4239   4252     1
   4240   4241     1
   4240   4256     1
   4240   4251     1
   4240   4252     1
   4241   4254     1
   4241   4255     1
   4242   4253     1
   4242   4245     1
   4242   4246     1
   4243   4253     1
   4243   4245     1
   4243   4246     1
   4245   4262     1
   4245   4254     1
   4245   4255     1
   4246   4262     1
   4246   4254     1
   4246   4255     1
   4248   8583     1
   4248   4260     1
   4248   4261     1
   4249   8583     1
   4249   4260     1
   4249   4261     1
   4251   8554     1
   4251   4257     1
   4251   4258     1
   4252   8554     1
   4252   4257     1
   4252   4258     1
   4256   8527     1
   4256   8528     1
   4257   8526     1
   4258   8526     1
   4259   8556     1
   4259   8557     1
   4260   8555     1
   4261   8555     1
   4263   4277     1
   4263   4278     1
   4263   4280     1
   4263   4281     1
   4263   4274     1
   4263   4275     1
   4264   4268     1
   4264   4269     1
   4264   4271     1
   4264   4272     1
   4264   4289     1
   4264   4290     1
   4265   4267     1
   4265   4270     1
   4265   4288     1
   4265   4277     1
   4265   4278     1
   4266   4267     1
   4266   4270     1
   4266   4288     1
   4266   4277     1
   4266   4278     1
   4267   4271     1
   4267   4272     1
   4267   4286     1
   4267   4287     1
   4268   4270     1
   4268   4285     1
   4268   4280     1
   4268   4281     1
   4269   4270     1
   4269   4285     1
   4269   4280     1
   4269   4281     1
   4270   4283     1
   4270   4284     1
   4271   4282     1
   4271   4274     1
   4271   4275     1
   4272   4282     1
   4272   4274     1
   4272   4275     1
   4274   4291     1
   4274   4283     1
   4274   4284     1
   4275   4291     1
   4275   4283     1
   4275   4284     1
   4277   8641     1
   4277   4289     1
   4277   4290     1
   4278   8641     1
   4278   4289     1
   4278   4290     1
   4280   8612     1
   4280   4286     1
   4280   4287     1
   4281   8612     1
   4281   4286     1
   4281   4287     1
   4285   8585     1
   4285   8586     1
   4286   8584     1
   4287   8584     1
   4288   8614     1
   4288   8615     1
   4289   8613     1
   4290   8613     1
   4292   4306     1
   4292   4307     1
   4292   4309     1
   4292   4310     1
   4292   4303     1
   4292   4304     1
   4293   4297     1
   4293   4298     1
   4293   4300     1
   4293   4301     1
   4293   4318     1
   4293   4319     1
   4294   4296     1
   4294   4299     1
   4294   4317     1
   4294   4306     1
   4294   4307     1
   4295   4296     1
   4295   4299     1
   4295   4317     1
   4295   4306     1
   4295   4307     1
   4296   4300     1
   4296   4301     1
   4296   4315     1
   4296   4316     1
   4297   4299     1
   4297   4314     1
   4297   4309     1
   4297   4310     1
   4298   4299     1
   4298   4314     1
   4298   4309     1
   4298   4310     1
   4299   4312     1
   4299   4313     1
   4300   4311     1
   4300   4303     1
   4300   4304     1
   4301   4311     1
   4301   4303     1
   4301   4304     1
   4303   4320     1
   4303   4312     1
   4303   4313     1
   4304   4320     1
   4304   4312     1
   4304   4313     1
   4306   8699     1
   4306   4318     1
   4306   4319     1
   4307   8699     1
   4307   4318     1
   4307   4319     1
   4309   8670     1
   4309   4315     1
   4309   4316     1
   4310   8670     1
   4310   4315     1
   4310   4316     1
   4314   8643     1
   4314   8644     1
   4315   8642     1
   4316   8642     1
   4317   8672     1
   4317   8673     1
   4318   8671     1
   4319   8671     1
   4321   4335     1
   4321   4336     1
   4321   4338     1
   4321   4339     1
   4321   4332     1
   4321   4333     1
   4322   4326     1
   4322   4327     1
   4322   4329     1
   4322   4330     1
   4322   4347     1
   4322   4348     1
   4323   4325     1
   4323   4328     1
   4323   4346     1
   4323   4335     1
   4323   4336     1
   4324   4325     1
   4324   4328     1
   4324   4346     1
   4324   4335     1
   4324   4336     1
   4325   4329     1
   4325   4330     1
   4325   4344     1
   4325   4345     1
   4326   4328     1
   4326   4343     1
   4326   4338     1
   4326   4339     1
   4327   4328     1
   4327   4343     1
   4327   4338     1
   4327   4339     1
   4328   4341     1
   4328   4342     1
   4329   4340     1
   4329   4332     1
   4329   4333     1
   4330   4340     1
   4330   4332     1
   4330   4333     1
   4332   4349     1
   4332   4341     1
   4332   4342     1
   4333   4349     1
   4333   4341     1
   4333   4342     1
   4335   8757     1
   4335   4347     1
   4335   4348     1
   4336   8757     1
   4336   4347     1
   4336   4348     1
   4338   8728     1
   4338   4344     1
   4338   4345     1
   4339   8728     1
   4339   4344     1
   4339   4345     1
   4343   8701     1
   4343   8702     1
   4344   8700     1
   4345   8700     1
   4346   8730     1
   4346   8731     1
   4347   8729     1
   4348   8729     1
   4350   4364     1
   4350   4365     1
   4350   4367     1
   4350   4368     1
   4350   4361     1
   4350   4362     1
   4351   4355     1
   4351   4356     1
   4351   4358     1
   4351   4359     1
   4351   4376     1
   4351   4377     1
   4352   4354     1
   4352   4357     1
   4352   4375     1
   4352   4364     1
   4352   4365     1
   4353   4354     1
   4353   4357     1
   4353   4375     1
   4353   4364     1
   4353   4365     1
   4354   4358     1
   4354   4359     1
   4354   4373     1
   4354   4374     1
   4355   4357     1
   4355   4372     1
   4355   4367     1
   4355   4368     1
   4356   4357     1
   4356   4372     1
   4356   4367     1
   4356   4368     1
   4357   4370     1
   4357   4371     1
   4358   4369     1
   4358   4361     1
   4358   4362     1
   4359   4369     1
   4359   4361     1
   4359   4362     1
   4361   4378     1
   4361   4370     1
   4361   4371     1
   4362   4378     1
   4362   4370     1
   4362   4371     1
   4364   8815     1
   4364   4376     1
   4364   4377     1
   4365   8815     1
   4365   4376     1
   4365   4377     1
   4367   8786     1
   4367   4373     1
   4367   4374     1
   4368   8786     1
   4368   4373     1
   4368   4374     1
   4372   8759     1
   4372   8760     1
   4373   8758     1
   4374   8758     1
   4375   8788     1
   4375   8789     1
   4376   8787     1
   4377   8787     1
   4379   4393     1
   4379   4394     1
   4379   4396     1
   4379   4397     1
   4379   4390     1
   4379   4391     1
   4380   4384     1
   4380   4385     1
   4380   4387     1
   4380   4388     1
   4380   4405     1
   4380   4406     1
   4381   4383     1
   4381   4386     1
   4381   4404     1
   4381   4393     1
   4381   4394     1
   4382   4383     1
   4382   4386     1
   4382   4404     1
   4382   4393     1
   4382   4394     1
   4383   4387     1
   4383   4388     1
   4383   4402     1
   4383   4403     1
   4384   4386     1
   4384   4401     1
   4384   4396     1
   4384   4397     1
   4385   4386     1
   4385   4401     1
   4385   4396     1
   4385   4397     1
   4386   4399     1
   4386   4400     1
   4387   4398     1
   4387   4390     1
   4387   4391     1
   4388   4398     1
   4388   4390     1
   4388   4391     1
   4390   4407     1
   4390   4399     1
   4390   4400     1
   4391   4407     1
   4391   4399     1
   4391   4400     1
   4393   8873     1
   4393   4405     1
   4393   4406     1
   4394   8873     1
   4394   4405     1
   4394   4406     1
   4396   8844     1
   4396   4402     1
   4396   4403     1
   4397   8844     1
   4397   4402     1
   4397   4403     1
   4401   8817     1
   4401   8818     1
   4402   8816     1
   4403   8816     1
   4404   8846     1
   4404   8847     1
   4405   8845     1
   4406   8845     1
   4408   4422     1
   4408   4423     1
   4408   4425     1
   4408   4426     1
   4408   4419     1
   4408   4420     1
   4409   4413     1
   4409   4414     1
   4409   4416     1
   4409   4417     1
   4409   4434     1
   4409   4435     1
   4410   4412     1
   4410   4415     1
   4410   4433     1
   4410   4422     1
   4410   4423     1
   4411   4412     1
   4411   4415     1
   4411   4433     1
   4411   4422     1
   4411   4423     1
   4412   4416     1
   4412   4417     1
   4412   4431     1
   4412   4432     1
   4413   4415     1
   4413   4430     1
   4413   4425     1
   4413   4426     1
   4414   4415     1
   4414   4430     1
   4414   4425     1
   4414   4426     1
   4415   4428     1
   4415   4429     1
   4416   4427     1
   4416   4419     1
   4416   4420     1
   4417   4427     1
   4417   4419     1
   4417   4420     1
   4419   4436     1
   4419   4428     1
   4419   4429     1
   4420   4436     1
   4420   4428     1
   4420   4429     1
   4422   8931     1
   4422   4434     1
   4422   4435     1
   4423   8931     1
   4423   4434     1
   4423   4435     1
   4425   8902     1
   4425   4431     1
   4425   4432     1
   4426   8902     1
   4426   4431     1
   4426   4432     1
   4430   8875     1
   4430   8876     1
   4431   8874     1
   4432   8874     1
   4433   8904     1
   4433   8905     1
   4434   8903     1
   4435   8903     1
   4437   4451     1
   4437   4452     1
   4437   4454     1
   4437   4455     1
   4437   4448     1
   4437   4449     1
   4438   4442     1
   4438   4443     1
   4438   4445     1
   4438   4446     1
   4438   4463     1
   4438   4464     1
   4439   4441     1
   4439   4444     1
   4439   4462     1
   4439   4451     1
   4439   4452     1
   4440   4441     1
   4440   4444     1
   4440   4462     1
   4440   4451     1
   4440   4452     1
   4441   4445     1
   4441   4446     1
   4441   4460     1
   4441   4461     1
   4442   4444     1
   4442   4459     1
   4442   4454     1
   4442   4455     1
   4443   4444     1
   4443   4459     1
   4443   4454     1
   4443   4455     1
   4444   4457     1
   4444   4458     1
   4445   4456     1
   4445   4448     1
   4445   4449     1
   4446   4456     1
   4446   4448     1
   4446   4449     1
   4448   4465     1
   4448   4457     1
   4448   4458     1
   4449   4465     1
   4449   4457     1
   4449   4458     1
   4451   8989     1
   4451   4463     1
   4451   4464     1
   4452   8989     1
   4452   4463     1
   4452   4464     1
   4454   8960     1
   4454   4460     1
   4454   4461     1
   4455   8960     1
   4455   4460     1
   4455   4461     1
   4459   8933     1
   4459   8934     1
   4460   8932     1
   4461   8932     1
   4462   8962     1
   4462   8963     1
   4463   8961     1
   4464   8961     1
   4466   4480     1
   4466   4481     1
   4466   4483     1
   4466   4484     1
   4466   4477     1
   4466   4478     1
   4467   4471     1
   4467   4472     1
   4467   4474     1
   4467   4475     1
   4467   4492     1
   4467   4493     1
   4468   4470     1
   4468   4473     1
   4468   4491     1
   4468   4480     1
   4468   4481     1
   4469   4470     1
   4469   4473     1
   4469   4491     1
   4469   4480     1
   4469   4481     1
   4470   4474     1
   4470   4475     1
   4470   4489     1
   4470   4490     1
   4471   4473     1
   4471   4488     1
   4471   4483     1
   4471   4484     1
   4472   4473     1
   4472   4488     1
   4472   4483     1
   4472   4484     1
   4473   4486     1
   4473   4487     1
   4474   4485     1
   4474   4477     1
   4474   4478     1
   4475   4485     1
   4475   4477     1
   4475   4478     1
   4477   4494     1
   4477   4486     1
   4477   4487     1
   4478   4494     1
   4478   4486     1
   4478   4487     1
   4480   9047     1
   4480   4492     1
   4480   4493     1
   4481   9047     1
   4481   4492     1
   4481   4493     1
   4483   9018     1
   4483   4489     1
   4483   4490     1
   4484   9018     1
   4484   4489     1
   4484   4490     1
   4488   8991     1
   4488   8992     1
   4489   8990     1
   4490   8990     1
   4491   9020     1
   4491   9021     1
   4492   9019     1
   4493   9019     1
   4495   4509     1
   4495   4510     1
   4495   4512     1
   4495   4513     1
   4495   4506     1
   4495   4507     1
   4496   4500     1
   4496   4501     1
   4496   4503     1
   4496   4504     1
   4496   4521     1
   4496   4522     1
   4497   4499     1
   4497   4502     1
   4497   4520     1
   4497   4509     1
   4497   4510     1
   4498   4499     1
   4498   4502     1
   4498   4520     1
   4498   4509     1
   4498   4510     1
   4499   4503     1
   4499   4504     1
   4499   4518     1
   4499   4519     1
   4500   4502     1
   4500   4517     1
   4500   4512     1
   4500   4513     1
   4501   4502     1
   4501   4517     1
   4501   4512     1
   4501   4513     1
   4502   4515     1
   4502   4516     1
   4503   4514     1
   4503   4506     1
   4503   4507     1
   4504   4514     1
   4504   4506     1
   4504   4507     1
   4506   4523     1
   4506   4515     1
   4506   4516     1
   4507   4523     1
   4507   4515     1
   4507   4516     1
   4509   9105     1
   4509   4521     1
   4509   4522     1
   4510   9105     1
   4510   4521     1
   4510   4522     1
   4512   9076     1
   4512   4518     1
   4512   4519     1
   4513   9076     1
   4513   4518     1
   4513   4519     1
   4517   9049     1
   4517   9050     1
   4518   9048     1
   4519   9048     1
   4520   9078     1
   4520   9079     1
   4521   9077     1
   4522   9077     1
   4524   4538     1
   4524   4539     1
   4524   4541     1
   4524   4542     1
   4524   4535     1
   4524   4536     1
   4525   4529     1
   4525   4530     1
   4525   4532     1
   4525   4533     1
   4525   4550     1
   4525   4551     1
   4526   4528     1
   4526   4531     1
   4526   4549     1
   4526   4538     1
   4526   4539     1
   4527   4528     1
   4527   4531     1
   4527   4549     1
   4527   4538     1
   4527   4539     1
   4528   4532     1
   4528   4533     1
   4528   4547     1
   4528   4548     1
   4529   4531     1
   4529   4546     1
   4529   4541     1
   4529   4542     1
   4530   4531     1
   4530   4546     1
   4530   4541     1
   4530   4542     1
   4531   4544     1
   4531   4545     1
   4532   4543     1
   4532   4535     1
   4532   4536     1
   4533   4543     1
   4533   4535     1
   4533   4536     1
   4535   4552     1
   4535   4544     1
   4535   4545     1
   4536   4552     1
   4536   4544     1
   4536   4545     1
   4538   9163     1
   4538   4550     1
   4538   4551     1
   4539   9163     1
   4539   4550     1
   4539   4551     1
   4541   9134     1
   4541   4547     1
   4541   4548     1
   4542   9134     1
   4542   4547     1
   4542   4548     1
   4546   9107     1
   4546   9108     1
   4547   9106     1
   4548   9106     1
   4549   9136     1
   4549   9137     1
   4550   9135     1
   4551   9135     1
   4553   4567     1
   4553   4568     1
   4553   4570     1
   4553   4571     1
   4553   4564     1
   4553   4565     1
   4554   4558     1
   4554   4559     1
   4554   4561     1
   4554   4562     1
   4554   4579     1
   4554   4580     1
   4555   4557     1
   4555   4560     1
   4555   4578     1
   4555   4567     1
   4555   4568     1
   4556   4557     1
   4556   4560     1
   4556   4578     1
   4556   4567     1
   4556   4568     1
   4557   4561     1
   4557   4562     1
   4557   4576     1
   4557   4577     1
   4558   4560     1
   4558   4575     1
   4558   4570     1
   4558   4571     1
   4559   4560     1
   4559   4575     1
   4559   4570     1
   4559   4571     1
   4560   4573     1
   4560   4574     1
   4561   4572     1
   4561   4564     1
   4561   4565     1
   4562   4572     1
   4562   4564     1
   4562   4565     1
   4564   4581     1
   4564   4573     1
   4564   4574     1
   4565   4581     1
   4565   4573     1
   4565   4574     1
   4567   9221     1
   4567   4579     1
   4567   4580     1
   4568   9221     1
   4568   4579     1
   4568   4580     1
   4570   9192     1
   4570   4576     1
   4570   4577     1
   4571   9192     1
   4571   4576     1
   4571   4577     1
   4575   9165     1
   4575   9166     1
   4576   9164     1
   4577   9164     1
   4578   9194     1
   4578   9195     1
   4579   9193     1
   4580   9193     1
   4582   4596     1
   4582   4597     1
   4582   4599     1
   4582   4600     1
   4582   4593     1
   4582   4594     1
   4583   4587     1
   4583   4588     1
   4583   4590     1
   4583   4591     1
   4583   4608     1
   4583   4609     1
   4584   4586     1
   4584   4589     1
   4584   4607     1
   4584   4596     1
   4584   4597     1
   4585   4586     1
   4585   4589     1
   4585   4607     1
   4585   4596     1
   4585   4597     1
   4586   4590     1
   4586   4591     1
   4586   4605     1
   4586   4606     1
   4587   4589     1
   4587   4604     1
   4587   4599     1
   4587   4600     1
   4588   4589     1
   4588   4604     1
   4588   4599     1
   4588   4600     1
   4589   4602     1
   4589   4603     1
   4590   4601     1
   4590   4593     1
   4590   4594     1
   4591   4601     1
   4591   4593     1
   4591   4594     1
   4593   4610     1
   4593   4602     1
   4593   4603     1
   4594   4610     1
   4594   4602     1
   4594   4603     1
   4596   9279     1
   4596   4608     1
   4596   4609     1
   4597   9279     1
   4597   4608     1
   4597   4609     1
   4599   9250     1
   4599   4605     1
   4599   4606     1
   4600   9250     1
   4600   4605     1
   4600   4606     1
   4604   9223     1
   4604   9224     1
   4605   9222     1
   4606   9222     1
   4607   9252     1
   4607   9253     1
   4608   9251     1
   4609   9251     1
   4611   4625     1
   4611   4626     1
   4611   4628     1
   4611   4629     1
   4611   4622     1
   4611   4623     1
   4612   4616     1
   4612   4617     1
   4612   4619     1
   4612   4620     1
   4612   4637     1
   4612   4638     1
   4613   4615     1
   4613   4618     1
   4613   4636     1
   4613   4625     1
   4613   4626     1
   4614   4615     1
   4614   4618     1
   4614   4636     1
   4614   4625     1
   4614   4626     1
   4615   4619     1
   4615   4620     1
   4615   4634     1
   4615   4635     1
   4616   4618     1
   4616   4633     1
   4616   4628     1
   4616   4629     1
   4617   4618     1
   4617   4633     1
   4617   4628     1
   4617   4629     1
   4618   4631     1
   4618   4632     1
   4619   4630     1
   4619   4622     1
   4619   4623     1
   4620   4630     1
   4620   4622     1
   4620   4623     1
   4622   4639     1
   4622   4631     1
   4622   4632     1
   4623   4639     1
   4623   4631     1
   4623   4632     1
   4625   9337     1
   4625   4637     1
   4625   4638     1
   4626   9337     1
   4626   4637     1
   4626   4638     1
   4628   9308     1
   4628   4634     1
   4628   4635     1
   4629   9308     1
   4629   4634     1
   4629   4635     1
   4633   9281     1
   4633   9282     1
   4634   9280     1
   4635   9280     1
   4636   9310     1
   4636   9311     1
   4637   9309     1
   4638   9309     1
   4640   4654     1
   4640   4655     1
   4640   4657     1
   4640   4658     1
   4640   4651     1
   4640   4652     1
   4641   4645     1
   4641   4646     1
   4641   4648     1
   4641   4649     1
   4641   4666     1
   4641   4667     1
   4642   4644     1
   4642   4647     1
   4642   4665     1
   4642   4654     1
   4642   4655     1
   4643   4644     1
   4643   4647     1
   4643   4665     1
   4643   4654     1
   4643   4655     1
   4644   4648     1
   4644   4649     1
   4644   4663     1
   4644   4664     1
   4645   4647     1
   4645   4662     1
   4645   4657     1
   4645   4658     1
   4646   4647     1
   4646   4662     1
   4646   4657     1
   4646   4658     1
   4647   4660     1
   4647   4661     1
   4648   4659     1
   4648   4651     1
   4648   4652     1
   4649   4659     1
   4649   4651     1
   4649   4652     1
   4651   4668     1
   4651   4660     1
   4651   4661     1
   4652   4668     1
   4652   4660     1
   4652   4661     1
   4654   9395     1
   4654   4666     1
   4654   4667     1
   4655   9395     1
   4655   4666     1
   4655   4667     1
   4657   9366     1
   4657   4663     1
   4657   4664     1
   4658   9366     1
   4658   4663     1
   4658   4664     1
   4662   9339     1
   4662   9340     1
   4663   9338     1
   4664   9338     1
   4665   9368     1
   4665   9369     1
   4666   9367     1
   4667   9367     1
   4669   4683     1
   4669   4684     1
   4669   4686     1
   4669   4687     1
   4669   4680     1
   4669   4681     1
   4670   4674     1
   4670   4675     1
   4670   4677     1
   4670   4678     1
   4670   4695     1
   4670   4696     1
   4671   4673     1
   4671   4676     1
   4671   4694     1
   4671   4683     1
   4671   4684     1
   4672   4673     1
   4672   4676     1
   4672   4694     1
   4672   4683     1
   4672   4684     1
   4673   4677     1
   4673   4678     1
   4673   4692     1
   4673   4693     1
   4674   4676     1
   4674   4691     1
   4674   4686     1
   4674   4687     1
   4675   4676     1
   4675   4691     1
   4675   4686     1
   4675   4687     1
   4676   4689     1
   4676   4690     1
   4677   4688     1
   4677   4680     1
   4677   4681     1
   4678   4688     1
   4678   4680     1
   4678   4681     1
   4680   4697     1
   4680   4689     1
   4680   4690     1
   4681   4697     1
   4681   4689     1
   4681   4690     1
   4683   9453     1
   4683   4695     1
   4683   4696     1
   4684   9453     1
   4684   4695     1
   4684   4696     1
   4686   9424     1
   4686   4692     1
   4686   4693     1
   4687   9424     1
   4687   4692     1
   4687   4693     1
   4691   9397     1
   4691   9398     1
   4692   9396     1
   4693   9396     1
   4694   9426     1
   4694   9427     1
   4695   9425     1
   4696   9425     1
   4698   4712     1
   4698   4713     1
   4698   4715     1
   4698   4716     1
   4698   4709     1
   4698   4710     1
   4699   4703     1
   4699   4704     1
   4699   4706     1
   4699   4707     1
   4699   4724     1
   4699   4725     1
   4700   4702     1
   4700   4705     1
   4700   4723     1
   4700   4712     1
   4700   4713     1
   4701   4702     1
   4701   4705     1
   4701   4723     1
   4701   4712     1
   4701   4713     1
   4702   4706     1
   4702   4707     1
   4702   4721     1
   4702   4722     1
   4703   4705     1
   4703   4720     1
   4703   4715     1
   4703   4716     1
   4704   4705     1
   4704   4720     1
   4704   4715     1
   4704   4716     1
   4705   4718     1
   4705   4719     1
   4706   4717     1
   4706   4709     1
   4706   4710     1
   4707   4717     1
   4707   4709     1
   4707   4710     1
   4709   4726     1
   4709   4718     1
   4709   4719     1
   4710   4726     1
   4710   4718     1
   4710   4719     1
   4712   9511     1
   4712   4724     1
   4712   4725     1
   4713   9511     1
   4713   4724     1
   4713   4725     1
   4715   9482     1
   4715   4721     1
   4715   4722     1
   4716   9482     1
   4716   4721     1
   4716   4722     1
   4720   9455     1
   4720   9456     1
   4721   9454     1
   4722   9454     1
   4723   9484     1
   4723   9485     1
   4724   9483     1
   4725   9483     1
   4727   4741     1
   4727   4742     1
   4727   4744     1
   4727   4745     1
   4727   4738     1
   4727   4739     1
   4728   4732     1
   4728   4733     1
   4728   4735     1
   4728   4736     1
   4728   4753     1
   4728   4754     1
   4729   4731     1
   4729   4734     1
   4729   4752     1
   4729   4741     1
   4729   4742     1
   4730   4731     1
   4730   4734     1
   4730   4752     1
   4730   4741     1
   4730   4742     1
   4731   4735     1
   4731   4736     1
   4731   4750     1
   4731   4751     1
   4732   4734     1
   4732   4749     1
   4732   4744     1
   4732   4745     1
   4733   4734     1
   4733   4749     1
   4733   4744     1
   4733   4745     1
   4734   4747     1
   4734   4748     1
   4735   4746     1
   4735   4738     1
   4735   4739     1
   4736   4746     1
   4736   4738     1
   4736   4739     1
   4738   4755     1
   4738   4747     1
   4738   4748     1
   4739   4755     1
   4739   4747     1
   4739   4748     1
   4741   9569     1
   4741   4753     1
   4741   4754     1
   4742   9569     1
   4742   4753     1
   4742   4754     1
   4744   9540     1
   4744   4750     1
   4744   4751     1
   4745   9540     1
   4745   4750     1
   4745   4751     1
   4749   9513     1
   4749   9514     1
   4750   9512     1
   4751   9512     1
   4752   9542     1
   4752   9543     1
   4753   9541     1
   4754   9541     1
   4756   4770     1
   4756   4771     1
   4756   4773     1
   4756   4774     1
   4756   4767     1
   4756   4768     1
   4757   4761     1
   4757   4762     1
   4757   4764     1
   4757   4765     1
   4757   4782     1
   4757   4783     1
   4758   4760     1
   4758   4763     1
   4758   4781     1
   4758   4770     1
   4758   4771     1
   4759   4760     1
   4759   4763     1
   4759   4781     1
   4759   4770     1
   4759   4771     1
   4760   4764     1
   4760   4765     1
   4760   4779     1
   4760   4780     1
   4761   4763     1
   4761   4778     1
   4761   4773     1
   4761   4774     1
   4762   4763     1
   4762   4778     1
   4762   4773     1
   4762   4774     1
   4763   4776     1
   4763   4777     1
   4764   4775     1
   4764   4767     1
   4764   4768     1
   4765   4775     1
   4765   4767     1
   4765   4768     1
   4767   4784     1
   4767   4776     1
   4767   4777     1
   4768   4784     1
   4768   4776     1
   4768   4777     1
   4770   9627     1
   4770   4782     1
   4770   4783     1
   4771   9627     1
   4771   4782     1
   4771   4783     1
   4773   9598     1
   4773   4779     1
   4773   4780     1
   4774   9598     1
   4774   4779     1
   4774   4780     1
   4778   9571     1
   4778   9572     1
   4779   9570     1
   4780   9570     1
   4781   9600     1
   4781   9601     1
   4782   9599     1
   4783   9599     1
   4785   4799     1
   4785   4800     1
   4785   4802     1
   4785   4803     1
   4785   4796     1
   4785   4797     1
   4786   4790     1
   4786   4791     1
   4786   4793     1
   4786   4794     1
   4786   4811     1
   4786   4812     1
   4787   4789     1
   4787   4792     1
   4787   4810     1
   4787   4799     1
   4787   4800     1
   4788   4789     1
   4788   4792     1
   4788   4810     1
   4788   4799     1
   4788   4800     1
   4789   4793     1
   4789   4794     1
   4789   4808     1
   4789   4809     1
   4790   4792     1
   4790   4807     1
   4790   4802     1
   4790   4803     1
   4791   4792     1
   4791   4807     1
   4791   4802     1
   4791   4803     1
   4792   4805     1
   4792   4806     1
   4793   4804     1
   4793   4796     1
   4793   4797     1
   4794   4804     1
   4794   4796     1
   4794   4797     1
   4796   4813     1
   4796   4805     1
   4796   4806     1
   4797   4813     1
   4797   4805     1
   4797   4806     1
   4799   9685     1
   4799   4811     1
   4799   4812     1
   4800   9685     1
   4800   4811     1
   4800   4812     1
   4802   9656     1
   4802   4808     1
   4802   4809     1
   4803   9656     1
   4803   4808     1
   4803   4809     1
   4807   9629     1
   4807   9630     1
   4808   9628     1
   4809   9628     1
   4810   9658     1
   4810   9659     1
   4811   9657     1
   4812   9657     1
   4814   4828     1
   4814   4829     1
   4814   4831     1
   4814   4832     1
   4814   4825     1
   4814   4826     1
   4815   4819     1
   4815   4820     1
   4815   4822     1
   4815   4823     1
   4815   4840     1
   4815   4841     1
   4816   4818     1
   4816   4821     1
   4816   4839     1
   4816   4828     1
   4816   4829     1
   4817   4818     1
   4817   4821     1
   4817   4839     1
   4817   4828     1
   4817   4829     1
   4818   4822     1
   4818   4823     1
   4818   4837     1
   4818   4838     1
   4819   4821     1
   4819   4836     1
   4819   4831     1
   4819   4832     1
   4820   4821     1
   4820   4836     1
   4820   4831     1
   4820   4832     1
   4821   4834     1
   4821   4835     1
   4822   4833     1
   4822   4825     1
   4822   4826     1
   4823   4833     1
   4823   4825     1
   4823   4826     1
   4825   4842     1
   4825   4834     1
   4825   4835     1
   4826   4842     1
   4826   4834     1
   4826   4835     1
   4828   9743     1
   4828   4840     1
   4828   4841     1
   4829   9743     1
   4829   4840     1
   4829   4841     1
   4831   9714     1
   4831   4837     1
   4831   4838     1
   4832   9714     1
   4832   4837     1
   4832   4838     1
   4836   9687     1
   4836   9688     1
   4837   9686     1
   4838   9686     1
   4839   9716     1
   4839   9717     1
   4840   9715     1
   4841   9715     1
   4843   4857     1
   4843   4858     1
   4843   4860     1
   4843   4861     1
   4843   4854     1
   4843   4855     1
   4844   4848     1
   4844   4849     1
   4844   4851     1
   4844   4852     1
   4844   4869     1
   4844   4870     1
   4845   4847     1
   4845   4850     1
   4845   4868     1
   4845   4857     1
   4845   4858     1
   4846   4847     1
   4846   4850     1
   4846   4868     1
   4846   4857     1
   4846   4858     1
   4847   4851     1
   4847   4852     1
   4847   4866     1
   4847   4867     1
   4848   4850     1
   4848   4865     1
   4848   4860     1
   4848   4861     1
   4849   4850     1
   4849   4865     1
   4849   4860     1
   4849   4861     1
   4850   4863     1
   4850   4864     1
   4851   4862     1
   4851   4854     1
   4851   4855     1
   4852   4862     1
   4852   4854     1
   4852   4855     1
   4854   4871     1
   4854   4863     1
   4854   4864     1
   4855   4871     1
   4855   4863     1
   4855   4864     1
   4857   9801     1
   4857   4869     1
   4857   4870     1
   4858   9801     1
   4858   4869     1
   4858   4870     1
   4860   9772     1
   4860   4866     1
   4860   4867     1
   4861   9772     1
   4861   4866     1
   4861   4867     1
   4865   9745     1
   4865   9746     1
   4866   9744     1
   4867   9744     1
   4868   9774     1
   4868   9775     1
   4869   9773     1
   4870   9773     1
   4872   4886     1
   4872   4887     1
   4872   4889     1
   4872   4890     1
   4872   4883     1
   4872   4884     1
   4873   4877     1
   4873   4878     1
   4873   4880     1
   4873   4881     1
   4873   4898     1
   4873   4899     1
   4874   4876     1
   4874   4879     1
   4874   4897     1
   4874   4886     1
   4874   4887     1
   4875   4876     1
   4875   4879     1
   4875   4897     1
   4875   4886     1
   4875   4887     1
   4876   4880     1
   4876   4881     1
   4876   4895     1
   4876   4896     1
   4877   4879     1
   4877   4894     1
   4877   4889     1
   4877   4890     1
   4878   4879     1
   4878   4894     1
   4878   4889     1
   4878   4890     1
   4879   4892     1
   4879   4893     1
   4880   4891     1
   4880   4883     1
   4880   4884     1
   4881   4891     1
   4881   4883     1
   4881   4884     1
   4883   4900     1
   4883   4892     1
   4883   4893     1
   4884   4900     1
   4884   4892     1
   4884   4893     1
   4886   9859     1
   4886   4898     1
   4886   4899     1
   4887   9859     1
   4887   4898     1
   4887   4899     1
   4889   9830     1
   4889   4895     1
   4889   4896     1
   4890   9830     1
   4890   4895     1
   4890   4896     1
   4894   9803     1
   4894   9804     1
   4895   9802     1
   4896   9802     1
   4897   9832     1
   4897   9833     1
   4898   9831     1
   4899   9831     1
   4901   4915     1
   4901   4916     1
   4901   4918     1
   4901   4919     1
   4901   4912     1
   4901   4913     1
   4902   4906     1
   4902   4907     1
   4902   4909     1
   4902   4910     1
   4902   4927     1
   4902   4928     1
   4903   4905     1
   4903   4908     1
   4903   4926     1
   4903   4915     1
   4903   4916     1
   4904   4905     1
   4904   4908     1
   4904   4926     1
   4904   4915     1
   4904   4916     1
   4905   4909     1
   4905   4910     1
   4905   4924     1
   4905   4925     1
   4906   4908     1
   4906   4923     1
   4906   4918     1
   4906   4919     1
   4907   4908     1
   4907   4923     1
   4907   4918     1
   4907   4919     1
   4908   4921     1
   4908   4922     1
   4909   4920     1
   4909   4912     1
   4909   4913     1
   4910   4920     1
   4910   4912     1
   4910   4913     1
   4912   4929     1
   4912   4921     1
   4912   4922     1
   4913   4929     1
   4913   4921     1
   4913   4922     1
   4915   9917     1
   4915   4927     1
   4915   4928     1
   4916   9917     1
   4916   4927     1
   4916   4928     1
   4918   9888     1
   4918   4924     1
   4918   4925     1
   4919   9888     1
   4919   4924     1
   4919   4925     1
   4923   9861     1
   4923   9862     1
   4924   9860     1
   4925   9860     1
   4926   9890     1
   4926   9891     1
   4927   9889     1
   4928   9889     1
   4930   4944     1
   4930   4945     1
   4930   4947     1
   4930   4948     1
   4930   4941     1
   4930   4942     1
   4931   4935     1
   4931   4936     1
   4931   4938     1
   4931   4939     1
   4931   4956     1
   4931   4957     1
   4932   4934     1
   4932   4937     1
   4932   4955     1
   4932   4944     1
   4932   4945     1
   4933   4934     1
   4933   4937     1
   4933   4955     1
   4933   4944     1
   4933   4945     1
   4934   4938     1
   4934   4939     1
   4934   4953     1
   4934   4954     1
   4935   4937     1
   4935   4952     1
   4935   4947     1
   4935   4948     1
   4936   4937     1
   4936   4952     1
   4936   4947     1
   4936   4948     1
   4937   4950     1
   4937   4951     1
   4938   4949     1
   4938   4941     1
   4938   4942     1
   4939   4949     1
   4939   4941     1
   4939   4942     1
   4941   4958     1
   4941   4950     1
   4941   4951     1
   4942   4958     1
   4942   4950     1
   4942   4951     1
   4944   9975     1
   4944   4956     1
   4944   4957     1
   4945   9975     1
   4945   4956     1
   4945   4957     1
   4947   9946     1
   4947   4953     1
   4947   4954     1
   4948   9946     1
   4948   4953     1
   4948   4954     1
   4952   9919     1
   4952   9920     1
   4953   9918     1
   4954   9918     1
   4955   9948     1
   4955   9949     1
   4956   9947     1
   4957   9947     1
   4959   4973     1
   4959   4974     1
   4959   4976     1
   4959   4977     1
   4959   4970     1
   4959   4971     1
   4960   4964     1
   4960   4965     1
   4960   4967     1
   4960   4968     1
   4960   4985     1
   4960   4986     1
   4961   4963     1
   4961   4966     1
   4961   4984     1
   4961   4973     1
   4961   4974     1
   4962   4963     1
   4962   4966     1
   4962   4984     1
   4962   4973     1
   4962   4974     1
   4963   4967     1
   4963   4968     1
   4963   4982     1
   4963   4983     1
   4964   4966     1
   4964   4981     1
   4964   4976     1
   4964   4977     1
   4965   4966     1
   4965   4981     1
   4965   4976     1
   4965   4977     1
   4966   4979     1
   4966   4980     1
   4967   4978     1
   4967   4970     1
   4967   4971     1
   4968   4978     1
   4968   4970     1
   4968   4971     1
   4970   4987     1
   4970   4979     1
   4970   4980     1
   4971   4987     1
   4971   4979     1
   4971   4980     1
   4973  10033     1
   4973   4985     1
   4973   4986     1
   4974  10033     1
   4974   4985     1
   4974   4986     1
   4976  10004     1
   4976   4982     1
   4976   4983     1
   4977  10004     1
   4977   4982     1
   4977   4983     1
   4981   9977     1
   4981   9978     1
   4982   9976     1
   4983   9976     1
   4984  10006     1
   4984  10007     1
   4985  10005     1
   4986  10005     1
   4988   5002     1
   4988   5003     1
   4988   5005     1
   4988   5006     1
   4988   4999     1
   4988   5000     1
   4989   4993     1
   4989   4994     1
   4989   4996     1
   4989   4997     1
   4989   5014     1
   4989   5015     1
   4990   4992     1
   4990   4995     1
   4990   5013     1
   4990   5002     1
   4990   5003     1
   4991   4992     1
   4991   4995     1
   4991   5013     1
   4991   5002     1
   4991   5003     1
   4992   4996     1
   4992   4997     1
   4992   5011     1
   4992   5012     1
   4993   4995     1
   4993   5010     1
   4993   5005     1
   4993   5006     1
   4994   4995     1
   4994   5010     1
   4994   5005     1
   4994   5006     1
   4995   5008     1
   4995   5009     1
   4996   5007     1
   4996   4999     1
   4996   5000     1
   4997   5007     1
   4997   4999     1
   4997   5000     1
   4999   5016     1
   4999   5008     1
   4999   5009     1
   5000   5016     1
   5000   5008     1
   5000   5009     1
   5002  10091     1
   5002   5014     1
   5002   5015     1
   5003  10091     1
   5003   5014     1
   5003   5015     1
   5005  10062     1
   5005   5011     1
   5005   5012     1
   5006  10062     1
   5006   5011     1
   5006   5012     1
   5010  10035     1
   5010  10036     1
   5011  10034     1
   5012  10034     1
   5013  10064     1
   5013  10065     1
   5014  10063     1
   5015  10063     1
   5017   5031     1
   5017   5032     1
   5017   5034     1
   5017   5035     1
   5017   5028     1
   5017   5029     1
   5018   5022     1
   5018   5023     1
   5018   5025     1
   5018   5026     1
   5018   5043     1
   5018   5044     1
   5019   5021     1
   5019   5024     1
   5019   5042     1
   5019   5031     1
   5019   5032     1
   5020   5021     1
   5020   5024     1
   5020   5042     1
   5020   5031     1
   5020   5032     1
   5021   5025     1
   5021   5026     1
   5021   5040     1
   5021   5041     1
   5022   5024     1
   5022   5039     1
   5022   5034     1
   5022   5035     1
   5023   5024     1
   5023   5039     1
   5023   5034     1
   5023   5035     1
   5024   5037     1
   5024   5038     1
   5025   5036     1
   5025   5028     1
   5025   5029     1
   5026   5036     1
   5026   5028     1
   5026   5029     1
   5028   5045     1
   5028   5037     1
   5028   5038     1
   5029   5045     1
   5029   5037     1
   5029   5038     1
   5031  10149     1
   5031   5043     1
   5031   5044     1
   5032  10149     1
   5032   5043     1
   5032   5044     1
   5034  10120     1
   5034   5040     1
   5034   5041     1
   5035  10120     1
   5035   5040     1
   5035   5041     1
   5039  10093     1
   5039  10094     1
   5040  10092     1
   5041  10092     1
   5042  10122     1
   5042  10123     1
   5043  10121     1
   5044  10121     1
   5046   5060     1
   5046   5061     1
   5046   5063     1
   5046   5064     1
   5046   5057     1
   5046   5058     1
   5047   5051     1
   5047   5052     1
   5047   5054     1
   5047   5055     1
   5047   5072     1
   5047   5073     1
   5048   5050     1
   5048   5053     1
   5048   5071     1
   5048   5060     1
   5048   5061     1
   5049   5050     1
   5049   5053     1
   5049   5071     1
   5049   5060     1
   5049   5061     1
   5050   5054     1
   5050   5055     1
   5050   5069     1
   5050   5070     1
   5051   5053     1
   5051   5068     1
   5051   5063     1
   5051   5064     1
   5052   5053     1
   5052   5068     1
   5052   5063     1
   5052   5064     1
   5053   5066     1
   5053   5067     1
   5054   5065     1
   5054   5057     1
   5054   5058     1
   5055   5065     1
   5055   5057     1
   5055   5058     1
   5057   5074     1
   5057   5066     1
   5057   5067     1
   5058   5074     1
   5058   5066     1
   5058   5067     1
   5060  10207     1
   5060   5072     1
   5060   5073     1
   5061  10207     1
   5061   5072     1
   5061   5073     1
   5063  10178     1
   5063   5069     1
   5063   5070     1
   5064  10178     1
   5064   5069     1
   5064   5070     1
   5068  10151     1
   5068  10152     1
   5069  10150     1
   5070  10150     1
   5071  10180     1
   5071  10181     1
   5072  10179     1
   5073  10179     1
   5075   5089     1
   5075   5090     1
   5075   5092     1
   5075   5093     1
   5075   5086     1
   5075   5087     1
   5076   5080     1
   5076   5081     1
   5076   5083     1
   5076   5084     1
   5076   5101     1
   5076   5102     1
   5077   5079     1
   5077   5082     1
   5077   5100     1
   5077   5089     1
   5077   5090     1
   5078   5079     1
   5078   5082     1
   5078   5100     1
   5078   5089     1
   5078   5090     1
   5079   5083     1
   5079   5084     1
   5079   5098     1
   5079   5099     1
   5080   5082     1
   5080   5097     1
   5080   5092     1
   5080   5093     1
   5081   5082     1
   5081   5097     1
   5081   5092     1
   5081   5093     1
   5082   5095     1
   5082   5096     1
   5083   5094     1
   5083   5086     1
   5083   5087     1
   5084   5094     1
   5084   5086     1
   5084   5087     1
   5086   5103     1
   5086   5095     1
   5086   5096     1
   5087   5103     1
   5087   5095     1
   5087   5096     1
   5089  10265     1
   5089   5101     1
   5089   5102     1
   5090  10265     1
   5090   5101     1
   5090   5102     1
   5092  10236     1
   5092   5098     1
   5092   5099     1
   5093  10236     1
   5093   5098     1
   5093   5099     1
   5097  10209     1
   5097  10210     1
   5098  10208     1
   5099  10208     1
   5100  10238     1
   5100  10239     1
   5101  10237     1
   5102  10237     1
   5104   5118     1
   5104   5119     1
   5104   5121     1
   5104   5122     1
   5104   5115     1
   5104   5116     1
   5105   5109     1
   5105   5110     1
   5105   5112     1
   5105   5113     1
   5105   5130     1
   5105   5131     1
   5106   5108     1
   5106   5111     1
   5106   5129     1
   5106   5118     1
   5106   5119     1
   5107   5108     1
   5107   5111     1
   5107   5129     1
   5107   5118     1
   5107   5119     1
   5108   5112     1
   5108   5113     1
   5108   5127     1
   5108   5128     1
   5109   5111     1
   5109   5126     1
   5109   5121     1
   5109   5122     1
   5110   5111     1
   5110   5126     1
   5110   5121     1
   5110   5122     1
   5111   5124     1
   5111   5125     1
   5112   5123     1
   5112   5115     1
   5112   5116     1
   5113   5123     1
   5113   5115     1
   5113   5116     1
   5115   5132     1
   5115   5124     1
   5115   5125     1
   5116   5132     1
   5116   5124     1
   5116   5125     1
   5118  10323     1
   5118   5130     1
   5118   5131     1
   5119  10323     1
   5119   5130     1
   5119   5131     1
   5121  10294     1
   5121   5127     1
   5121   5128     1
   5122  10294     1
   5122   5127     1
   5122   5128     1
   5126  10267     1
   5126  10268     1
   5127  10266     1
   5128  10266     1
   5129  10296     1
   5129  10297     1
   5130  10295     1
   5131  10295     1
   5133   5147     1
   5133   5148     1
   5133   5150     1
   5133   5151     1
   5133   5144     1
   5133   5145     1
   5134   5138     1
   5134   5139     1
   5134   5141     1
   5134   5142     1
   5134   5159     1
   5134   5160     1
   5135   5137     1
   5135   5140     1
   5135   5158     1
   5135   5147     1
   5135   5148     1
   5136   5137     1
   5136   5140     1
   5136   5158     1
   5136   5147     1
   5136   5148     1
   5137   5141     1
   5137   5142     1
   5137   5156     1
   5137   5157     1
   5138   5140     1
   5138   5155     1
   5138   5150     1
   5138   5151     1
   5139   5140     1
   5139   5155     1
   5139   5150     1
   5139   5151     1
   5140   5153     1
   5140   5154     1
   5141   5152     1
   5141   5144     1
   5141   5145     1
   5142   5152     1
   5142   5144     1
   5142   5145     1
   5144   5161     1
   5144   5153     1
   5144   5154     1
   5145   5161     1
   5145   5153     1
   5145   5154     1
   5147  10381     1
   5147   5159     1
   5147   5160     1
   5148  10381     1
   5148   5159     1
   5148   5160     1
   5150  10352     1
   5150   5156     1
   5150   5157     1
   5151  10352     1
   5151   5156     1
   5151   5157     1
   5155  10325     1
   5155  10326     1
   5156  10324     1
   5157  10324     1
   5158  10354     1
   5158  10355     1
   5159  10353     1
   5160  10353     1
   5162   5176     1
   5162   5177     1
   5162   5179     1
   5162   5180     1
   5162   5173     1
   5162   5174     1
   5163   5167     1
   5163   5168     1
   5163   5170     1
   5163   5171     1
   5163   5188     1
   5163   5189     1
   5164   5166     1
   5164   5169     1
   5164   5187     1
   5164   5176     1
   5164   5177     1
   5165   5166     1
   5165   5169     1
   5165   5187     1
   5165   5176     1
   5165   5177     1
   5166   5170     1
   5166   5171     1
   5166   5185     1
   5166   5186     1
   5167   5169     1
   5167   5184     1
   5167   5179     1
   5167   5180     1
   5168   5169     1
   5168   5184     1
   5168   5179     1
   5168   5180     1
   5169   5182     1
   5169   5183     1
   5170   5181     1
   5170   5173     1
   5170   5174     1
   5171   5181     1
   5171   5173     1
   5171   5174     1
   5173   5190     1
   5173   5182     1
   5173   5183     1
   5174   5190     1
   5174   5182     1
   5174   5183     1
   5176  10439     1
   5176   5188     1
   5176   5189     1
   5177  10439     1
   5177   5188     1
   5177   5189     1
   5179  10410     1
   5179   5185     1
   5179   5186     1
   5180  10410     1
   5180   5185     1
   5180   5186     1
   5184  10383     1
   5184  10384     1
   5185  10382     1
   5186  10382     1
   5187  10412     1
   5187  10413     1
   5188  10411     1
   5189  10411     1
   5191   5205     1
   5191   5206     1
   5191   5208     1
   5191   5209     1
   5191   5202     1
   5191   5203     1
   5192   5196     1
   5192   5197     1
   5192   5199     1
   5192   5200     1
   5192   5217     1
   5192   5218     1
   5193   5195     1
   5193   5198     1
   5193   5216     1
   5193   5205     1
   5193   5206     1
   5194   5195     1
   5194   5198     1
   5194   5216     1
   5194   5205     1
   5194   5206     1
   5195   5199     1
   5195   5200     1
   5195   5214     1
   5195   5215     1
   5196   5198     1
   5196   5213     1
   5196   5208     1
   5196   5209     1
   5197   5198     1
   5197   5213     1
   5197   5208     1
   5197   5209     1
   5198   5211     1
   5198   5212     1
   5199   5210     1
   5199   5202     1
   5199   5203     1
   5200   5210     1
   5200   5202     1
   5200   5203     1
   5202   5219     1
   5202   5211     1
   5202   5212     1
   5203   5219     1
   5203   5211     1
   5203   5212     1
   5205  10497     1
   5205   5217     1
   5205   5218     1
   5206  10497     1
   5206   5217     1
   5206   5218     1
   5208  10468     1
   5208   5214     1
   5208   5215     1
   5209  10468     1
   5209   5214     1
   5209   5215     1
   5213  10441     1
   5213  10442     1
   5214  10440     1
   5215  10440     1
   5216  10470     1
   5216  10471     1
   5217  10469     1
   5218  10469     1
   5220   5234     1
   5220   5235     1
   5220   5237     1
   5220   5238     1
   5220   5231     1
   5220   5232     1
   5221   5225     1
   5221   5226     1
   5221   5228     1
   5221   5229     1
   5221   5246     1
   5221   5247     1
   5222   5224     1
   5222   5227     1
   5222   5245     1
   5222   5234     1
   5222   5235     1
   5223   5224     1
   5223   5227     1
   5223   5245     1
   5223   5234     1
   5223   5235     1
   5224   5228     1
   5224   5229     1
   5224   5243     1
   5224   5244     1
   5225   5227     1
   5225   5242     1
   5225   5237     1
   5225   5238     1
   5226   5227     1
   5226   5242     1
   5226   5237     1
   5226   5238     1
   5227   5240     1
   5227   5241     1
   5228   5239     1
   5228   5231     1
   5228   5232     1
   5229   5239     1
   5229   5231     1
   5229   5232     1
   5231   5248     1
   5231   5240     1
   5231   5241     1
   5232   5248     1
   5232   5240     1
   5232   5241     1
   5234  10555     1
   5234   5246     1
   5234   5247     1
   5235  10555     1
   5235   5246     1
   5235   5247     1
   5237  10526     1
   5237   5243     1
   5237   5244     1
   5238  10526     1
   5238   5243     1
   5238   5244     1
   5242  10499     1
   5242  10500     1
   5243  10498     1
   5244  10498     1
   5245  10528     1
   5245  10529     1
   5246  10527     1
   5247  10527     1
   5249   5263     1
   5249   5264     1
   5249   5266     1
   5249   5267     1
   5249   5260     1
   5249   5261     1
   5250   5254     1
   5250   5255     1
   5250   5257     1
   5250   5258     1
   5250   5275     1
   5250   5276     1
   5251   5253     1
   5251   5256     1
   5251   5274     1
   5251   5263     1
   5251   5264     1
   5252   5253     1
   5252   5256     1
   5252   5274     1
   5252   5263     1
   5252   5264     1
   5253   5257     1
   5253   5258     1
   5253   5272     1
   5253   5273     1
   5254   5256     1
   5254   5271     1
   5254   5266     1
   5254   5267     1
   5255   5256     1
   5255   5271     1
   5255   5266     1
   5255   5267     1
   5256   5269     1
   5256   5270     1
   5257   5268     1
   5257   5260     1
   5257   5261     1
   5258   5268     1
   5258   5260     1
   5258   5261     1
   5260   5277     1
   5260   5269     1
   5260   5270     1
   5261   5277     1
   5261   5269     1
   5261   5270     1
   5263  10613     1
   5263   5275     1
   5263   5276     1
   5264  10613     1
   5264   5275     1
   5264   5276     1
   5266  10584     1
   5266   5272     1
   5266   5273     1
   5267  10584     1
   5267   5272     1
   5267   5273     1
   5271  10557     1
   5271  10558     1
   5272  10556     1
   5273  10556     1
   5274  10586     1
   5274  10587     1
   5275  10585     1
   5276  10585     1
   5278   5292     1
   5278   5293     1
   5278   5295     1
   5278   5296     1
   5278   5289     1
   5278   5290     1
   5279   5283     1
   5279   5284     1
   5279   5286     1
   5279   5287     1
   5279   5304     1
   5279   5305     1
   5280   5282     1
   5280   5285     1
   5280   5303     1
   5280   5292     1
   5280   5293     1
   5281   5282     1
   5281   5285     1
   5281   5303     1
   5281   5292     1
   5281   5293     1
   5282   5286     1
   5282   5287     1
   5282   5301     1
   5282   5302     1
   5283   5285     1
   5283   5300     1
   5283   5295     1
   5283   5296     1
   5284   5285     1
   5284   5300     1
   5284   5295     1
   5284   5296     1
   5285   5298     1
   5285   5299     1
   5286   5297     1
   5286   5289     1
   5286   5290     1
   5287   5297     1
   5287   5289     1
   5287   5290     1
   5289   5306     1
   5289   5298     1
   5289   5299     1
   5290   5306     1
   5290   5298     1
   5290   5299     1
   5292  10671     1
   5292   5304     1
   5292   5305     1
   5293  10671     1
   5293   5304     1
   5293   5305     1
   5295  10642     1
   5295   5301     1
   5295   5302     1
   5296  10642     1
   5296   5301     1
   5296   5302     1
   5300  10615     1
   5300  10616     1
   5301  10614     1
   5302  10614     1
   5303  10644     1
   5303  10645     1
   5304  10643     1
   5305  10643     1
   5307   5321     1
   5307   5322     1
   5307   5324     1
   5307   5325     1
   5307   5318     1
   5307   5319     1
   5308   5312     1
   5308   5313     1
   5308   5315     1
   5308   5316     1
   5308   5333     1
   5308   5334     1
   5309   5311     1
   5309   5314     1
   5309   5332     1
   5309   5321     1
   5309   5322     1
   5310   5311     1
   5310   5314     1
   5310   5332     1
   5310   5321     1
   5310   5322     1
   5311   5315     1
   5311   5316     1
   5311   5330     1
   5311   5331     1
   5312   5314     1
   5312   5329     1
   5312   5324     1
   5312   5325     1
   5313   5314     1
   5313   5329     1
   5313   5324     1
   5313   5325     1
   5314   5327     1
   5314   5328     1
   5315   5326     1
   5315   5318     1
   5315   5319     1
   5316   5326     1
   5316   5318     1
   5316   5319     1
   5318   5335     1
   5318   5327     1
   5318   5328     1
   5319   5335     1
   5319   5327     1
   5319   5328     1
   5321  10729     1
   5321   5333     1
   5321   5334     1
   5322  10729     1
   5322   5333     1
   5322   5334     1
   5324  10700     1
   5324   5330     1
   5324   5331     1
   5325  10700     1
   5325   5330     1
   5325   5331     1
   5329  10673     1
   5329  10674     1
   5330  10672     1
   5331  10672     1
   5332  10702     1
   5332  10703     1
   5333  10701     1
   5334  10701     1
   5336   5350     1
   5336   5351     1
   5336   5353     1
   5336   5354     1
   5336   5347     1
   5336   5348     1
   5337   5341     1
   5337   5342     1
   5337   5344     1
   5337   5345     1
   5337   5362     1
   5337   5363     1
   5338   5340     1
   5338   5343     1
   5338   5361     1
   5338   5350     1
   5338   5351     1
   5339   5340     1
   5339   5343     1
   5339   5361     1
   5339   5350     1
   5339   5351     1
   5340   5344     1
   5340   5345     1
   5340   5359     1
   5340   5360     1
   5341   5343     1
   5341   5358     1
   5341   5353     1
   5341   5354     1
   5342   5343     1
   5342   5358     1
   5342   5353     1
   5342   5354     1
   5343   5356     1
   5343   5357     1
   5344   5355     1
   5344   5347     1
   5344   5348     1
   5345   5355     1
   5345   5347     1
   5345   5348     1
   5347   5364     1
   5347   5356     1
   5347   5357     1
   5348   5364     1
   5348   5356     1
   5348   5357     1
   5350  10787     1
   5350   5362     1
   5350   5363     1
   5351  10787     1
   5351   5362     1
   5351   5363     1
   5353  10758     1
   5353   5359     1
   5353   5360     1
   5354  10758     1
   5354   5359     1
   5354   5360     1
   5358  10731     1
   5358  10732     1
   5359  10730     1
   5360  10730     1
   5361  10760     1
   5361  10761     1
   5362  10759     1
   5363  10759     1
   5365   5379     1
   5365   5380     1
   5365   5382     1
   5365   5383     1
   5365   5376     1
   5365   5377     1
   5366   5370     1
   5366   5371     1
   5366   5373     1
   5366   5374     1
   5366   5391     1
   5366   5392     1
   5367   5369     1
   5367   5372     1
   5367   5390     1
   5367   5379     1
   5367   5380     1
   5368   5369     1
   5368   5372     1
   5368   5390     1
   5368   5379     1
   5368   5380     1
   5369   5373     1
   5369   5374     1
   5369   5388     1
   5369   5389     1
   5370   5372     1
   5370   5387     1
   5370   5382     1
   5370   5383     1
   5371   5372     1
   5371   5387     1
   5371   5382     1
   5371   5383     1
   5372   5385     1
   5372   5386     1
   5373   5384     1
   5373   5376     1
   5373   5377     1
   5374   5384     1
   5374   5376     1
   5374   5377     1
   5376   5393     1
   5376   5385     1
   5376   5386     1
   5377   5393     1
   5377   5385     1
   5377   5386     1
   5379  10845     1
   5379   5391     1
   5379   5392     1
   5380  10845     1
   5380   5391     1
   5380   5392     1
   5382  10816     1
   5382   5388     1
   5382   5389     1
   5383  10816     1
   5383   5388     1
   5383   5389     1
   5387  10789     1
   5387  10790     1
   5388  10788     1
   5389  10788     1
   5390  10818     1
   5390  10819     1
   5391  10817     1
   5392  10817     1
   5394   5408     1
   5394   5409     1
   5394   5411     1
   5394   5412     1
   5394   5405     1
   5394   5406     1
   5395   5399     1
   5395   5400     1
   5395   5402     1
   5395   5403     1
   5395   5420     1
   5395   5421     1
   5396   5398     1
   5396   5401     1
   5396   5419     1
   5396   5408     1
   5396   5409     1
   5397   5398     1
   5397   5401     1
   5397   5419     1
   5397   5408     1
   5397   5409     1
   5398   5402     1
   5398   5403     1
   5398   5417     1
   5398   5418     1
   5399   5401     1
   5399   5416     1
   5399   5411     1
   5399   5412     1
   5400   5401     1
   5400   5416     1
   5400   5411     1
   5400   5412     1
   5401   5414     1
   5401   5415     1
   5402   5413     1
   5402   5405     1
   5402   5406     1
   5403   5413     1
   5403   5405     1
   5403   5406     1
   5405   5422     1
   5405   5414     1
   5405   5415     1
   5406   5422     1
   5406   5414     1
   5406   5415     1
   5408  10903     1
   5408   5420     1
   5408   5421     1
   5409  10903     1
   5409   5420     1
   5409   5421     1
   5411  10874     1
   5411   5417     1
   5411   5418     1
   5412  10874     1
   5412   5417     1
   5412   5418     1
   5416  10847     1
   5416  10848     1
   5417  10846     1
   5418  10846     1
   5419  10876     1
   5419  10877     1
   5420  10875     1
   5421  10875     1
   5423   5437     1
   5423   5438     1
   5423   5440     1
   5423   5441     1
   5423   5434     1
   5423   5435     1
   5424   5428     1
   5424   5429     1
   5424   5431     1
   5424   5432     1
   5424   5449     1
   5424   5450     1
   5425   5427     1
   5425   5430     1
   5425   5448     1
   5425   5437     1
   5425   5438     1
   5426   5427     1
   5426   5430     1
   5426   5448     1
   5426   5437     1
   5426   5438     1
   5427   5431     1
   5427   5432     1
   5427   5446     1
   5427   5447     1
   5428   5430     1
   5428   5445     1
   5428   5440     1
   5428   5441     1
   5429   5430     1
   5429   5445     1
   5429   5440     1
   5429   5441     1
   5430   5443     1
   5430   5444     1
   5431   5442     1
   5431   5434     1
   5431   5435     1
   5432   5442     1
   5432   5434     1
   5432   5435     1
   5434   5451     1
   5434   5443     1
   5434   5444     1
   5435   5451     1
   5435   5443     1
   5435   5444     1
   5437  10961     1
   5437   5449     1
   5437   5450     1
   5438  10961     1
   5438   5449     1
   5438   5450     1
   5440  10932     1
   5440   5446     1
   5440   5447     1
   5441  10932     1
   5441   5446     1
   5441   5447     1
   5445  10905     1
   5445  10906     1
   5446  10904     1
   5447  10904     1
   5448  10934     1
   5448  10935     1
   5449  10933     1
   5450  10933     1
   5452   5466     1
   5452   5467     1
   5452   5469     1
   5452   5470     1
   5452   5463     1
   5452   5464     1
   5453   5457     1
   5453   5458     1
   5453   5460     1
   5453   5461     1
   5453   5478     1
   5453   5479     1
   5454   5456     1
   5454   5459     1
   5454   5477     1
   5454   5466     1
   5454   5467     1
   5455   5456     1
   5455   5459     1
   5455   5477     1
   5455   5466     1
   5455   5467     1
   5456   5460     1
   5456   5461     1
   5456   5475     1
   5456   5476     1
   5457   5459     1
   5457   5474     1
   5457   5469     1
   5457   5470     1
   5458   5459     1
   5458   5474     1
   5458   5469     1
   5458   5470     1
   5459   5472     1
   5459   5473     1
   5460   5471     1
   5460   5463     1
   5460   5464     1
   5461   5471     1
   5461   5463     1
   5461   5464     1
   5463   5480     1
   5463   5472     1
   5463   5473     1
   5464   5480     1
   5464   5472     1
   5464   5473     1
   5466  11019     1
   5466   5478     1
   5466   5479     1
   5467  11019     1
   5467   5478     1
   5467   5479     1
   5469  10990     1
   5469   5475     1
   5469   5476     1
   5470  10990     1
   5470   5475     1
   5470   5476     1
   5474  10963     1
   5474  10964     1
   5475  10962     1
   5476  10962     1
   5477  10992     1
   5477  10993     1
   5478  10991     1
   5479  10991     1
   5481   5495     1
   5481   5496     1
   5481   5498     1
   5481   5499     1
   5481   5492     1
   5481   5493     1
   5482   5486     1
   5482   5487     1
   5482   5489     1
   5482   5490     1
   5482   5507     1
   5482   5508     1
   5483   5485     1
   5483   5488     1
   5483   5506     1
   5483   5495     1
   5483   5496     1
   5484   5485     1
   5484   5488     1
   5484   5506     1
   5484   5495     1
   5484   5496     1
   5485   5489     1
   5485   5490     1
   5485   5504     1
   5485   5505     1
   5486   5488     1
   5486   5503     1
   5486   5498     1
   5486   5499     1
   5487   5488     1
   5487   5503     1
   5487   5498     1
   5487   5499     1
   5488   5501     1
   5488   5502     1
   5489   5500     1
   5489   5492     1
   5489   5493     1
   5490   5500     1
   5490   5492     1
   5490   5493     1
   5492   5509     1
   5492   5501     1
   5492   5502     1
   5493   5509     1
   5493   5501     1
   5493   5502     1
   5495  11077     1
   5495   5507     1
   5495   5508     1
   5496  11077     1
   5496   5507     1
   5496   5508     1
   5498  11048     1
   5498   5504     1
   5498   5505     1
   5499  11048     1
   5499   5504     1
   5499   5505     1
   5503  11021     1
   5503  11022     1
   5504  11020     1
   5505  11020     1
   5506  11050     1
   5506  11051     1
   5507  11049     1
   5508  11049     1
   5510   5517     1
   5510   5518     1
   5511   5516     1
   5511   5514     1
   5511   5515     1
   5512   5516     1
   5512   5514     1
   5512   5515     1
   5514   5538     1
   5514   5519     1
   5514   5517     1
   5514   5518     1
   5515   5538     1
   5515   5519     1
   5515   5517     1
   5515   5518     1
   5516   5521     1
   5516   5522     1
   5516   5530     1
   5516   5531     1
   5517   5520     1
   5517   5529     1
   5518   5520     1
   5518   5529     1
   5519   5524     1
   5519   5525     1
   5519   5533     1
   5519   5534     1
   5520   5530     1
   5520   5531     1
   5521   5529     1
   5521   5526     1
   5521   5524     1
   5521   5525     1
   5522   5529     1
   5522   5526     1
   5522   5524     1
   5522   5525     1
   5524   5527     1
   5524   5528     1
   5525   5527     1
   5525   5528     1
   5530   5535     1
   5530   5533     1
   5530   5534     1
   5531   5535     1
   5531   5533     1
   5531   5534     1
   5533   5536     1
   5533   5537     1
   5534   5536     1
   5534   5537     1
   5539   5546     1
   5539   5547     1
   5540   5545     1
   5540   5543     1
   5540   5544     1
   5541   5545     1
   5541   5543     1
   5541   5544     1
   5543   5548     1
   5543   5546     1
   5543   5547     1
   5543   5567     1
   5544   5548     1
   5544   5546     1
   5544   5547     1
   5544   5567     1
   5545   5550     1
   5545   5551     1
   5545   5559     1
   5545   5560     1
   5546   5549     1
   5546   5558     1
   5547   5549     1
   5547   5558     1
   5548   5553     1
   5548   5554     1
   5548   5562     1
   5548   5563     1
   5549   5559     1
   5549   5560     1
   5550   5555     1
   5550   5553     1
   5550   5554     1
   5550   5558     1
   5551   5555     1
   5551   5553     1
   5551   5554     1
   5551   5558     1
   5553   5556     1
   5553   5557     1
   5554   5556     1
   5554   5557     1
   5559   5564     1
   5559   5562     1
   5559   5563     1
   5560   5564     1
   5560   5562     1
   5560   5563     1
   5562   5565     1
   5562   5566     1
   5563   5565     1
   5563   5566     1
   5568   5575     1
   5568   5576     1
   5569   5574     1
   5569   5572     1
   5569   5573     1
   5570   5574     1
   5570   5572     1
   5570   5573     1
   5572   5596     1
   5572   5577     1
   5572   5575     1
   5572   5576     1
   5573   5596     1
   5573   5577     1
   5573   5575     1
   5573   5576     1
   5574   5579     1
   5574   5580     1
   5574   5588     1
   5574   5589     1
   5575   5578     1
   5575   5587     1
   5576   5578     1
   5576   5587     1
   5577   5582     1
   5577   5583     1
   5577   5591     1
   5577   5592     1
   5578   5588     1
   5578   5589     1
   5579   5587     1
   5579   5584     1
   5579   5582     1
   5579   5583     1
   5580   5587     1
   5580   5584     1
   5580   5582     1
   5580   5583     1
   5582   5585     1
   5582   5586     1
   5583   5585     1
   5583   5586     1
   5588   5593     1
   5588   5591     1
   5588   5592     1
   5589   5593     1
   5589   5591     1
   5589   5592     1
   5591   5594     1
   5591   5595     1
   5592   5594     1
   5592   5595     1
   5597   5604     1
   5597   5605     1
   5598   5603     1
   5598   5601     1
   5598   5602     1
   5599   5603     1
   5599   5601     1
   5599   5602     1
   5601   5606     1
   5601   5604     1
   5601   5605     1
   5601   5625     1
   5602   5606     1
   5602   5604     1
   5602   5605     1
   5602   5625     1
   5603   5608     1
   5603   5609     1
   5603   5617     1
   5603   5618     1
   5604   5607     1
   5604   5616     1
   5605   5607     1
   5605   5616     1
   5606   5611     1
   5606   5612     1
   5606   5620     1
   5606   5621     1
   5607   5617     1
   5607   5618     1
   5608   5613     1
   5608   5611     1
   5608   5612     1
   5608   5616     1
   5609   5613     1
   5609   5611     1
   5609   5612     1
   5609   5616     1
   5611   5614     1
   5611   5615     1
   5612   5614     1
   5612   5615     1
   5617   5622     1
   5617   5620     1
   5617   5621     1
   5618   5622     1
   5618   5620     1
   5618   5621     1
   5620   5623     1
   5620   5624     1
   5621   5623     1
   5621   5624     1
   5626   5633     1
   5626   5634     1
   5627   5632     1
   5627   5630     1
   5627   5631     1
   5628   5632     1
   5628   5630     1
   5628   5631     1
   5630   5654     1
   5630   5635     1
   5630   5633     1
   5630   5634     1
   5631   5654     1
   5631   5635     1
   5631   5633     1
   5631   5634     1
   5632   5637     1
   5632   5638     1
   5632   5646     1
   5632   5647     1
   5633   5636     1
   5633   5645     1
   5634   5636     1
   5634   5645     1
   5635   5640     1
   5635   5641     1
   5635   5649     1
   5635   5650     1
   5636   5646     1
   5636   5647     1
   5637   5645     1
   5637   5642     1
   5637   5640     1
   5637   5641     1
   5638   5645     1
   5638   5642     1
   5638   5640     1
   5638   5641     1
   5640   5643     1
   5640   5644     1
   5641   5643     1
   5641   5644     1
   5646   5651     1
   5646   5649     1
   5646   5650     1
   5647   5651     1
   5647   5649     1
   5647   5650     1
   5649   5652     1
   5649   5653     1
   5650   5652     1
   5650   5653     1
   5655   5662     1
   5655   5663     1
   5656   5661     1
   5656   5659     1
   5656   5660     1
   5657   5661     1
   5657   5659     1
   5657   5660     1
   5659   5664     1
   5659   5662     1
   5659   5663     1
   5659   5683     1
   5660   5664     1
   5660   5662     1
   5660   5663     1
   5660   5683     1
   5661   5666     1
   5661   5667     1
   5661   5675     1
   5661   5676     1
   5662   5665     1
   5662   5674     1
   5663   5665     1
   5663   5674     1
   5664   5669     1
   5664   5670     1
   5664   5678     1
   5664   5679     1
   5665   5675     1
   5665   5676     1
   5666   5671     1
   5666   5669     1
   5666   5670     1
   5666   5674     1
   5667   5671     1
   5667   5669     1
   5667   5670     1
   5667   5674     1
   5669   5672     1
   5669   5673     1
   5670   5672     1
   5670   5673     1
   5675   5680     1
   5675   5678     1
   5675   5679     1
   5676   5680     1
   5676   5678     1
   5676   5679     1
   5678   5681     1
   5678   5682     1
   5679   5681     1
   5679   5682     1
   5684   5691     1
   5684   5692     1
   5685   5690     1
   5685   5688     1
   5685   5689     1
   5686   5690     1
   5686   5688     1
   5686   5689     1
   5688   5712     1
   5688   5693     1
   5688   5691     1
   5688   5692     1
   5689   5712     1
   5689   5693     1
   5689   5691     1
   5689   5692     1
   5690   5695     1
   5690   5696     1
   5690   5704     1
   5690   5705     1
   5691   5694     1
   5691   5703     1
   5692   5694     1
   5692   5703     1
   5693   5698     1
   5693   5699     1
   5693   5707     1
   5693   5708     1
   5694   5704     1
   5694   5705     1
   5695   5703     1
   5695   5700     1
   5695   5698     1
   5695   5699     1
   5696   5703     1
   5696   5700     1
   5696   5698     1
   5696   5699     1
   5698   5701     1
   5698   5702     1
   5699   5701     1
   5699   5702     1
   5704   5709     1
   5704   5707     1
   5704   5708     1
   5705   5709     1
   5705   5707     1
   5705   5708     1
   5707   5710     1
   5707   5711     1
   5708   5710     1
   5708   5711     1
   5713   5720     1
   5713   5721     1
   5714   5719     1
   5714   5717     1
   5714   5718     1
   5715   5719     1
   5715   5717     1
   5715   5718     1
   5717   5722     1
   5717   5720     1
   5717   5721     1
   5717   5741     1
   5718   5722     1
   5718   5720     1
   5718   5721     1
   5718   5741     1
   5719   5724     1
   5719   5725     1
   5719   5733     1
   5719   5734     1
   5720   5723     1
   5720   5732     1
   5721   5723     1
   5721   5732     1
   5722   5727     1
   5722   5728     1
   5722   5736     1
   5722   5737     1
   5723   5733     1
   5723   5734     1
   5724   5729     1
   5724   5727     1
   5724   5728     1
   5724   5732     1
   5725   5729     1
   5725   5727     1
   5725   5728     1
   5725   5732     1
   5727   5730     1
   5727   5731     1
   5728   5730     1
   5728   5731     1
   5733   5738     1
   5733   5736     1
   5733   5737     1
   5734   5738     1
   5734   5736     1
   5734   5737     1
   5736   5739     1
   5736   5740     1
   5737   5739     1
   5737   5740     1
   5742   5749     1
   5742   5750     1
   5743   5748     1
   5743   5746     1
   5743   5747     1
   5744   5748     1
   5744   5746     1
   5744   5747     1
   5746   5770     1
   5746   5751     1
   5746   5749     1
   5746   5750     1
   5747   5770     1
   5747   5751     1
   5747   5749     1
   5747   5750     1
   5748   5753     1
   5748   5754     1
   5748   5762     1
   5748   5763     1
   5749   5752     1
   5749   5761     1
   5750   5752     1
   5750   5761     1
   5751   5756     1
   5751   5757     1
   5751   5765     1
   5751   5766     1
   5752   5762     1
   5752   5763     1
   5753   5761     1
   5753   5758     1
   5753   5756     1
   5753   5757     1
   5754   5761     1
   5754   5758     1
   5754   5756     1
   5754   5757     1
   5756   5759     1
   5756   5760     1
   5757   5759     1
   5757   5760     1
   5762   5767     1
   5762   5765     1
   5762   5766     1
   5763   5767     1
   5763   5765     1
   5763   5766     1
   5765   5768     1
   5765   5769     1
   5766   5768     1
   5766   5769     1
   5771   5778     1
   5771   5779     1
   5772   5777     1
   5772   5775     1
   5772   5776     1
   5773   5777     1
   5773   5775     1
   5773   5776     1
   5775   5780     1
   5775   5778     1
   5775   5779     1
   5775   5799     1
   5776   5780     1
   5776   5778     1
   5776   5779     1
   5776   5799     1
   5777   5782     1
   5777   5783     1
   5777   5791     1
   5777   5792     1
   5778   5781     1
   5778   5790     1
   5779   5781     1
   5779   5790     1
   5780   5785     1
   5780   5786     1
   5780   5794     1
   5780   5795     1
   5781   5791     1
   5781   5792     1
   5782   5787     1
   5782   5785     1
   5782   5786     1
   5782   5790     1
   5783   5787     1
   5783   5785     1
   5783   5786     1
   5783   5790     1
   5785   5788     1
   5785   5789     1
   5786   5788     1
   5786   5789     1
   5791   5796     1
   5791   5794     1
   5791   5795     1
   5792   5796     1
   5792   5794     1
   5792   5795     1
   5794   5797     1
   5794   5798     1
   5795   5797     1
   5795   5798     1
   5800   5807     1
   5800   5808     1
   5801   5806     1
   5801   5804     1
   5801   5805     1
   5802   5806     1
   5802   5804     1
   5802   5805     1
   5804   5828     1
   5804   5809     1
   5804   5807     1
   5804   5808     1
   5805   5828     1
   5805   5809     1
   5805   5807     1
   5805   5808     1
   5806   5811     1
   5806   5812     1
   5806   5820     1
   5806   5821     1
   5807   5810     1
   5807   5819     1
   5808   5810     1
   5808   5819     1
   5809   5814     1
   5809   5815     1
   5809   5823     1
   5809   5824     1
   5810   5820     1
   5810   5821     1
   5811   5819     1
   5811   5816     1
   5811   5814     1
   5811   5815     1
   5812   5819     1
   5812   5816     1
   5812   5814     1
   5812   5815     1
   5814   5817     1
   5814   5818     1
   5815   5817     1
   5815   5818     1
   5820   5825     1
   5820   5823     1
   5820   5824     1
   5821   5825     1
   5821   5823     1
   5821   5824     1
   5823   5826     1
   5823   5827     1
   5824   5826     1
   5824   5827     1
   5829   5836     1
   5829   5837     1
   5830   5835     1
   5830   5833     1
   5830   5834     1
   5831   5835     1
   5831   5833     1
   5831   5834     1
   5833   5838     1
   5833   5836     1
   5833   5837     1
   5833   5857     1
   5834   5838     1
   5834   5836     1
   5834   5837     1
   5834   5857     1
   5835   5840     1
   5835   5841     1
   5835   5849     1
   5835   5850     1
   5836   5839     1
   5836   5848     1
   5837   5839     1
   5837   5848     1
   5838   5843     1
   5838   5844     1
   5838   5852     1
   5838   5853     1
   5839   5849     1
   5839   5850     1
   5840   5845     1
   5840   5843     1
   5840   5844     1
   5840   5848     1
   5841   5845     1
   5841   5843     1
   5841   5844     1
   5841   5848     1
   5843   5846     1
   5843   5847     1
   5844   5846     1
   5844   5847     1
   5849   5854     1
   5849   5852     1
   5849   5853     1
   5850   5854     1
   5850   5852     1
   5850   5853     1
   5852   5855     1
   5852   5856     1
   5853   5855     1
   5853   5856     1
   5858   5865     1
   5858   5866     1
   5859   5864     1
   5859   5862     1
   5859   5863     1
   5860   5864     1
   5860   5862     1
   5860   5863     1
   5862   5886     1
   5862   5867     1
   5862   5865     1
   5862   5866     1
   5863   5886     1
   5863   5867     1
   5863   5865     1
   5863   5866     1
   5864   5869     1
   5864   5870     1
   5864   5878     1
   5864   5879     1
   5865   5868     1
   5865   5877     1
   5866   5868     1
   5866   5877     1
   5867   5872     1
   5867   5873     1
   5867   5881     1
   5867   5882     1
   5868   5878     1
   5868   5879     1
   5869   5877     1
   5869   5874     1
   5869   5872     1
   5869   5873     1
   5870   5877     1
   5870   5874     1
   5870   5872     1
   5870   5873     1
   5872   5875     1
   5872   5876     1
   5873   5875     1
   5873   5876     1
   5878   5883     1
   5878   5881     1
   5878   5882     1
   5879   5883     1
   5879   5881     1
   5879   5882     1
   5881   5884     1
   5881   5885     1
   5882   5884     1
   5882   5885     1
   5887   5894     1
   5887   5895     1
   5888   5893     1
   5888   5891     1
   5888   5892     1
   5889   5893     1
   5889   5891     1
   5889   5892     1
   5891   5896     1
   5891   5894     1
   5891   5895     1
   5891   5915     1
   5892   5896     1
   5892   5894     1
   5892   5895     1
   5892   5915     1
   5893   5898     1
   5893   5899     1
   5893   5907     1
   5893   5908     1
   5894   5897     1
   5894   5906     1
   5895   5897     1
   5895   5906     1
   5896   5901     1
   5896   5902     1
   5896   5910     1
   5896   5911     1
   5897   5907     1
   5897   5908     1
   5898   5903     1
   5898   5901     1
   5898   5902     1
   5898   5906     1
   5899   5903     1
   5899   5901     1
   5899   5902     1
   5899   5906     1
   5901   5904     1
   5901   5905     1
   5902   5904     1
   5902   5905     1
   5907   5912     1
   5907   5910     1
   5907   5911     1
   5908   5912     1
   5908   5910     1
   5908   5911     1
   5910   5913     1
   5910   5914     1
   5911   5913     1
   5911   5914     1
   5916   5923     1
   5916   5924     1
   5917   5922     1
   5917   5920     1
   5917   5921     1
   5918   5922     1
   5918   5920     1
   5918   5921     1
   5920   5944     1
   5920   5925     1
   5920   5923     1
   5920   5924     1
   5921   5944     1
   5921   5925     1
   5921   5923     1
   5921   5924     1
   5922   5927     1
   5922   5928     1
   5922   5936     1
   5922   5937     1
   5923   5926     1
   5923   5935     1
   5924   5926     1
   5924   5935     1
   5925   5930     1
   5925   5931     1
   5925   5939     1
   5925   5940     1
   5926   5936     1
   5926   5937     1
   5927   5935     1
   5927   5932     1
   5927   5930     1
   5927   5931     1
   5928   5935     1
   5928   5932     1
   5928   5930     1
   5928   5931     1
   5930   5933     1
   5930   5934     1
   5931   5933     1
   5931   5934     1
   5936   5941     1
   5936   5939     1
   5936   5940     1
   5937   5941     1
   5937   5939     1
   5937   5940     1
   5939   5942     1
   5939   5943     1
   5940   5942     1
   5940   5943     1
   5945   5952     1
   5945   5953     1
   5946   5951     1
   5946   5949     1
   5946   5950     1
   5947   5951     1
   5947   5949     1
   5947   5950     1
   5949   5954     1
   5949   5952     1
   5949   5953     1
   5949   5973     1
   5950   5954     1
   5950   5952     1
   5950   5953     1
   5950   5973     1
   5951   5956     1
   5951   5957     1
   5951   5965     1
   5951   5966     1
   5952   5955     1
   5952   5964     1
   5953   5955     1
   5953   5964     1
   5954   5959     1
   5954   5960     1
   5954   5968     1
   5954   5969     1
   5955   5965     1
   5955   5966     1
   5956   5961     1
   5956   5959     1
   5956   5960     1
   5956   5964     1
   5957   5961     1
   5957   5959     1
   5957   5960     1
   5957   5964     1
   5959   5962     1
   5959   5963     1
   5960   5962     1
   5960   5963     1
   5965   5970     1
   5965   5968     1
   5965   5969     1
   5966   5970     1
   5966   5968     1
   5966   5969     1
   5968   5971     1
   5968   5972     1
   5969   5971     1
   5969   5972     1
   5974   5981     1
   5974   5982     1
   5975   5980     1
   5975   5978     1
   5975   5979     1
   5976   5980     1
   5976   5978     1
   5976   5979     1
   5978   6002     1
   5978   5983     1
   5978   5981     1
   5978   5982     1
   5979   6002     1
   5979   5983     1
   5979   5981     1
   5979   5982     1
   5980   5985     1
   5980   5986     1
   5980   5994     1
   5980   5995     1
   5981   5984     1
   5981   5993     1
   5982   5984     1
   5982   5993     1
   5983   5988     1
   5983   5989     1
   5983   5997     1
   5983   5998     1
   5984   5994     1
   5984   5995     1
   5985   5993     1
   5985   5990     1
   5985   5988     1
   5985   5989     1
   5986   5993     1
   5986   5990     1
   5986   5988     1
   5986   5989     1
   5988   5991     1
   5988   5992     1
   5989   5991     1
   5989   5992     1
   5994   5999     1
   5994   5997     1
   5994   5998     1
   5995   5999     1
   5995   5997     1
   5995   5998     1
   5997   6000     1
   5997   6001     1
   5998   6000     1
   5998   6001     1
   6003   6010     1
   6003   6011     1
   6004   6009     1
   6004   6007     1
   6004   6008     1
   6005   6009     1
   6005   6007     1
   6005   6008     1
   6007   6012     1
   6007   6010     1
   6007   6011     1
   6007   6031     1
   6008   6012     1
   6008   6010     1
   6008   6011     1
   6008   6031     1
   6009   6014     1
   6009   6015     1
   6009   6023     1
   6009   6024     1
   6010   6013     1
   6010   6022     1
   6011   6013     1
   6011   6022     1
   6012   6017     1
   6012   6018     1
   6012   6026     1
   6012   6027     1
   6013   6023     1
   6013   6024     1
   6014   6019     1
   6014   6017     1
   6014   6018     1
   6014   6022     1
   6015   6019     1
   6015   6017     1
   6015   6018     1
   6015   6022     1
   6017   6020     1
   6017   6021     1
   6018   6020     1
   6018   6021     1
   6023   6028     1
   6023   6026     1
   6023   6027     1
   6024   6028     1
   6024   6026     1
   6024   6027     1
   6026   6029     1
   6026   6030     1
   6027   6029     1
   6027   6030     1
   6032   6039     1
   6032   6040     1
   6033   6038     1
   6033   6036     1
   6033   6037     1
   6034   6038     1
   6034   6036     1
   6034   6037     1
   6036   6060     1
   6036   6041     1
   6036   6039     1
   6036   6040     1
   6037   6060     1
   6037   6041     1
   6037   6039     1
   6037   6040     1
   6038   6043     1
   6038   6044     1
   6038   6052     1
   6038   6053     1
   6039   6042     1
   6039   6051     1
   6040   6042     1
   6040   6051     1
   6041   6046     1
   6041   6047     1
   6041   6055     1
   6041   6056     1
   6042   6052     1
   6042   6053     1
   6043   6051     1
   6043   6048     1
   6043   6046     1
   6043   6047     1
   6044   6051     1
   6044   6048     1
   6044   6046     1
   6044   6047     1
   6046   6049     1
   6046   6050     1
   6047   6049     1
   6047   6050     1
   6052   6057     1
   6052   6055     1
   6052   6056     1
   6053   6057     1
   6053   6055     1
   6053   6056     1
   6055   6058     1
   6055   6059     1
   6056   6058     1
   6056   6059     1
   6061   6068     1
   6061   6069     1
   6062   6067     1
   6062   6065     1
   6062   6066     1
   6063   6067     1
   6063   6065     1
   6063   6066     1
   6065   6070     1
   6065   6068     1
   6065   6069     1
   6065   6089     1
   6066   6070     1
   6066   6068     1
   6066   6069     1
   6066   6089     1
   6067   6072     1
   6067   6073     1
   6067   6081     1
   6067   6082     1
   6068   6071     1
   6068   6080     1
   6069   6071     1
   6069   6080     1
   6070   6075     1
   6070   6076     1
   6070   6084     1
   6070   6085     1
   6071   6081     1
   6071   6082     1
   6072   6077     1
   6072   6075     1
   6072   6076     1
   6072   6080     1
   6073   6077     1
   6073   6075     1
   6073   6076     1
   6073   6080     1
   6075   6078     1
   6075   6079     1
   6076   6078     1
   6076   6079     1
   6081   6086     1
   6081   6084     1
   6081   6085     1
   6082   6086     1
   6082   6084     1
   6082   6085     1
   6084   6087     1
   6084   6088     1
   6085   6087     1
   6085   6088     1
   6090   6097     1
   6090   6098     1
   6091   6096     1
   6091   6094     1
   6091   6095     1
   6092   6096     1
   6092   6094     1
   6092   6095     1
   6094   6118     1
   6094   6099     1
   6094   6097     1
   6094   6098     1
   6095   6118     1
   6095   6099     1
   6095   6097     1
   6095   6098     1
   6096   6101     1
   6096   6102     1
   6096   6110     1
   6096   6111     1
   6097   6100     1
   6097   6109     1
   6098   6100     1
   6098   6109     1
   6099   6104     1
   6099   6105     1
   6099   6113     1
   6099   6114     1
   6100   6110     1
   6100   6111     1
   6101   6109     1
   6101   6106     1
   6101   6104     1
   6101   6105     1
   6102   6109     1
   6102   6106     1
   6102   6104     1
   6102   6105     1
   6104   6107     1
   6104   6108     1
   6105   6107     1
   6105   6108     1
   6110   6115     1
   6110   6113     1
   6110   6114     1
   6111   6115     1
   6111   6113     1
   6111   6114     1
   6113   6116     1
   6113   6117     1
   6114   6116     1
   6114   6117     1
   6119   6126     1
   6119   6127     1
   6120   6125     1
   6120   6123     1
   6120   6124     1
   6121   6125     1
   6121   6123     1
   6121   6124     1
   6123   6128     1
   6123   6126     1
   6123   6127     1
   6123   6147     1
   6124   6128     1
   6124   6126     1
   6124   6127     1
   6124   6147     1
   6125   6130     1
   6125   6131     1
   6125   6139     1
   6125   6140     1
   6126   6129     1
   6126   6138     1
   6127   6129     1
   6127   6138     1
   6128   6133     1
   6128   6134     1
   6128   6142     1
   6128   6143     1
   6129   6139     1
   6129   6140     1
   6130   6135     1
   6130   6133     1
   6130   6134     1
   6130   6138     1
   6131   6135     1
   6131   6133     1
   6131   6134     1
   6131   6138     1
   6133   6136     1
   6133   6137     1
   6134   6136     1
   6134   6137     1
   6139   6144     1
   6139   6142     1
   6139   6143     1
   6140   6144     1
   6140   6142     1
   6140   6143     1
   6142   6145     1
   6142   6146     1
   6143   6145     1
   6143   6146     1
   6148   6155     1
   6148   6156     1
   6149   6154     1
   6149   6152     1
   6149   6153     1
   6150   6154     1
   6150   6152     1
   6150   6153     1
   6152   6176     1
   6152   6157     1
   6152   6155     1
   6152   6156     1
   6153   6176     1
   6153   6157     1
   6153   6155     1
   6153   6156     1
   6154   6159     1
   6154   6160     1
   6154   6168     1
   6154   6169     1
   6155   6158     1
   6155   6167     1
   6156   6158     1
   6156   6167     1
   6157   6162     1
   6157   6163     1
   6157   6171     1
   6157   6172     1
   6158   6168     1
   6158   6169     1
   6159   6167     1
   6159   6164     1
   6159   6162     1
   6159   6163     1
   6160   6167     1
   6160   6164     1
   6160   6162     1
   6160   6163     1
   6162   6165     1
   6162   6166     1
   6163   6165     1
   6163   6166     1
   6168   6173     1
   6168   6171     1
   6168   6172     1
   6169   6173     1
   6169   6171     1
   6169   6172     1
   6171   6174     1
   6171   6175     1
   6172   6174     1
   6172   6175     1
   6177   6184     1
   6177   6185     1
   6178   6183     1
   6178   6181     1
   6178   6182     1
   6179   6183     1
   6179   6181     1
   6179   6182     1
   6181   6186     1
   6181   6184     1
   6181   6185     1
   6181   6205     1
   6182   6186     1
   6182   6184     1
   6182   6185     1
   6182   6205     1
   6183   6188     1
   6183   6189     1
   6183   6197     1
   6183   6198     1
   6184   6187     1
   6184   6196     1
   6185   6187     1
   6185   6196     1
   6186   6191     1
   6186   6192     1
   6186   6200     1
   6186   6201     1
   6187   6197     1
   6187   6198     1
   6188   6193     1
   6188   6191     1
   6188   6192     1
   6188   6196     1
   6189   6193     1
   6189   6191     1
   6189   6192     1
   6189   6196     1
   6191   6194     1
   6191   6195     1
   6192   6194     1
   6192   6195     1
   6197   6202     1
   6197   6200     1
   6197   6201     1
   6198   6202     1
   6198   6200     1
   6198   6201     1
   6200   6203     1
   6200   6204     1
   6201   6203     1
   6201   6204     1
   6206   6213     1
   6206   6214     1
   6207   6212     1
   6207   6210     1
   6207   6211     1
   6208   6212     1
   6208   6210     1
   6208   6211     1
   6210   6234     1
   6210   6215     1
   6210   6213     1
   6210   6214     1
   6211   6234     1
   6211   6215     1
   6211   6213     1
   6211   6214     1
   6212   6217     1
   6212   6218     1
   6212   6226     1
   6212   6227     1
   6213   6216     1
   6213   6225     1
   6214   6216     1
   6214   6225     1
   6215   6220     1
   6215   6221     1
   6215   6229     1
   6215   6230     1
   6216   6226     1
   6216   6227     1
   6217   6225     1
   6217   6222     1
   6217   6220     1
   6217   6221     1
   6218   6225     1
   6218   6222     1
   6218   6220     1
   6218   6221     1
   6220   6223     1
   6220   6224     1
   6221   6223     1
   6221   6224     1
   6226   6231     1
   6226   6229     1
   6226   6230     1
   6227   6231     1
   6227   6229     1
   6227   6230     1
   6229   6232     1
   6229   6233     1
   6230   6232     1
   6230   6233     1
   6235   6242     1
   6235   6243     1
   6236   6241     1
   6236   6239     1
   6236   6240     1
   6237   6241     1
   6237   6239     1
   6237   6240     1
   6239   6244     1
   6239   6242     1
   6239   6243     1
   6239   6263     1
   6240   6244     1
   6240   6242     1
   6240   6243     1
   6240   6263     1
   6241   6246     1
   6241   6247     1
   6241   6255     1
   6241   6256     1
   6242   6245     1
   6242   6254     1
   6243   6245     1
   6243   6254     1
   6244   6249     1
   6244   6250     1
   6244   6258     1
   6244   6259     1
   6245   6255     1
   6245   6256     1
   6246   6251     1
   6246   6249     1
   6246   6250     1
   6246   6254     1
   6247   6251     1
   6247   6249     1
   6247   6250     1
   6247   6254     1
   6249   6252     1
   6249   6253     1
   6250   6252     1
   6250   6253     1
   6255   6260     1
   6255   6258     1
   6255   6259     1
   6256   6260     1
   6256   6258     1
   6256   6259     1
   6258   6261     1
   6258   6262     1
   6259   6261     1
   6259   6262     1
   6264   6271     1
   6264   6272     1
   6265   6270     1
   6265   6268     1
   6265   6269     1
   6266   6270     1
   6266   6268     1
   6266   6269     1
   6268   6292     1
   6268   6273     1
   6268   6271     1
   6268   6272     1
   6269   6292     1
   6269   6273     1
   6269   6271     1
   6269   6272     1
   6270   6275     1
   6270   6276     1
   6270   6284     1
   6270   6285     1
   6271   6274     1
   6271   6283     1
   6272   6274     1
   6272   6283     1
   6273   6278     1
   6273   6279     1
   6273   6287     1
   6273   6288     1
   6274   6284     1
   6274   6285     1
   6275   6283     1
   6275   6280     1
   6275   6278     1
   6275   6279     1
   6276   6283     1
   6276   6280     1
   6276   6278     1
   6276   6279     1
   6278   6281     1
   6278   6282     1
   6279   6281     1
   6279   6282     1
   6284   6289     1
   6284   6287     1
   6284   6288     1
   6285   6289     1
   6285   6287     1
   6285   6288     1
   6287   6290     1
   6287   6291     1
   6288   6290     1
   6288   6291     1
   6293   6300     1
   6293   6301     1
   6294   6299     1
   6294   6297     1
   6294   6298     1
   6295   6299     1
   6295   6297     1
   6295   6298     1
   6297   6302     1
   6297   6300     1
   6297   6301     1
   6297   6321     1
   6298   6302     1
   6298   6300     1
   6298   6301     1
   6298   6321     1
   6299   6304     1
   6299   6305     1
   6299   6313     1
   6299   6314     1
   6300   6303     1
   6300   6312     1
   6301   6303     1
   6301   6312     1
   6302   6307     1
   6302   6308     1
   6302   6316     1
   6302   6317     1
   6303   6313     1
   6303   6314     1
   6304   6309     1
   6304   6307     1
   6304   6308     1
   6304   6312     1
   6305   6309     1
   6305   6307     1
   6305   6308     1
   6305   6312     1
   6307   6310     1
   6307   6311     1
   6308   6310     1
   6308   6311     1
   6313   6318     1
   6313   6316     1
   6313   6317     1
   6314   6318     1
   6314   6316     1
   6314   6317     1
   6316   6319     1
   6316   6320     1
   6317   6319     1
   6317   6320     1
   6322   6329     1
   6322   6330     1
   6323   6328     1
   6323   6326     1
   6323   6327     1
   6324   6328     1
   6324   6326     1
   6324   6327     1
   6326   6350     1
   6326   6331     1
   6326   6329     1
   6326   6330     1
   6327   6350     1
   6327   6331     1
   6327   6329     1
   6327   6330     1
   6328   6333     1
   6328   6334     1
   6328   6342     1
   6328   6343     1
   6329   6332     1
   6329   6341     1
   6330   6332     1
   6330   6341     1
   6331   6336     1
   6331   6337     1
   6331   6345     1
   6331   6346     1
   6332   6342     1
   6332   6343     1
   6333   6341     1
   6333   6338     1
   6333   6336     1
   6333   6337     1
   6334   6341     1
   6334   6338     1
   6334   6336     1
   6334   6337     1
   6336   6339     1
   6336   6340     1
   6337   6339     1
   6337   6340     1
   6342   6347     1
   6342   6345     1
   6342   6346     1
   6343   6347     1
   6343   6345     1
   6343   6346     1
   6345   6348     1
   6345   6349     1
   6346   6348     1
   6346   6349     1
   6351   6358     1
   6351   6359     1
   6352   6357     1
   6352   6355     1
   6352   6356     1
   6353   6357     1
   6353   6355     1
   6353   6356     1
   6355   6360     1
   6355   6358     1
   6355   6359     1
   6355   6379     1
   6356   6360     1
   6356   6358     1
   6356   6359     1
   6356   6379     1
   6357   6362     1
   6357   6363     1
   6357   6371     1
   6357   6372     1
   6358   6361     1
   6358   6370     1
   6359   6361     1
   6359   6370     1
   6360   6365     1
   6360   6366     1
   6360   6374     1
   6360   6375     1
   6361   6371     1
   6361   6372     1
   6362   6367     1
   6362   6365     1
   6362   6366     1
   6362   6370     1
   6363   6367     1
   6363   6365     1
   6363   6366     1
   6363   6370     1
   6365   6368     1
   6365   6369     1
   6366   6368     1
   6366   6369     1
   6371   6376     1
   6371   6374     1
   6371   6375     1
   6372   6376     1
   6372   6374     1
   6372   6375     1
   6374   6377     1
   6374   6378     1
   6375   6377     1
   6375   6378     1
   6380   6387     1
   6380   6388     1
   6381   6386     1
   6381   6384     1
   6381   6385     1
   6382   6386     1
   6382   6384     1
   6382   6385     1
   6384   6408     1
   6384   6389     1
   6384   6387     1
   6384   6388     1
   6385   6408     1
   6385   6389     1
   6385   6387     1
   6385   6388     1
   6386   6391     1
   6386   6392     1
   6386   6400     1
   6386   6401     1
   6387   6390     1
   6387   6399     1
   6388   6390     1
   6388   6399     1
   6389   6394     1
   6389   6395     1
   6389   6403     1
   6389   6404     1
   6390   6400     1
   6390   6401     1
   6391   6399     1
   6391   6396     1
   6391   6394     1
   6391   6395     1
   6392   6399     1
   6392   6396     1
   6392   6394     1
   6392   6395     1
   6394   6397     1
   6394   6398     1
   6395   6397     1
   6395   6398     1
   6400   6405     1
   6400   6403     1
   6400   6404     1
   6401   6405     1
   6401   6403     1
   6401   6404     1
   6403   6406     1
   6403   6407     1
   6404   6406     1
   6404   6407     1
   6409   6416     1
   6409   6417     1
   6410   6415     1
   6410   6413     1
   6410   6414     1
   6411   6415     1
   6411   6413     1
   6411   6414     1
   6413   6418     1
   6413   6416     1
   6413   6417     1
   6413   6437     1
   6414   6418     1
   6414   6416     1
   6414   6417     1
   6414   6437     1
   6415   6420     1
   6415   6421     1
   6415   6429     1
   6415   6430     1
   6416   6419     1
   6416   6428     1
   6417   6419     1
   6417   6428     1
   6418   6423     1
   6418   6424     1
   6418   6432     1
   6418   6433     1
   6419   6429     1
   6419   6430     1
   6420   6425     1
   6420   6423     1
   6420   6424     1
   6420   6428     1
   6421   6425     1
   6421   6423     1
   6421   6424     1
   6421   6428     1
   6423   6426     1
   6423   6427     1
   6424   6426     1
   6424   6427     1
   6429   6434     1
   6429   6432     1
   6429   6433     1
   6430   6434     1
   6430   6432     1
   6430   6433     1
   6432   6435     1
   6432   6436     1
   6433   6435     1
   6433   6436     1
   6438   6445     1
   6438   6446     1
   6439   6444     1
   6439   6442     1
   6439   6443     1
   6440   6444     1
   6440   6442     1
   6440   6443     1
   6442   6466     1
   6442   6447     1
   6442   6445     1
   6442   6446     1
   6443   6466     1
   6443   6447     1
   6443   6445     1
   6443   6446     1
   6444   6449     1
   6444   6450     1
   6444   6458     1
   6444   6459     1
   6445   6448     1
   6445   6457     1
   6446   6448     1
   6446   6457     1
   6447   6452     1
   6447   6453     1
   6447   6461     1
   6447   6462     1
   6448   6458     1
   6448   6459     1
   6449   6457     1
   6449   6454     1
   6449   6452     1
   6449   6453     1
   6450   6457     1
   6450   6454     1
   6450   6452     1
   6450   6453     1
   6452   6455     1
   6452   6456     1
   6453   6455     1
   6453   6456     1
   6458   6463     1
   6458   6461     1
   6458   6462     1
   6459   6463     1
   6459   6461     1
   6459   6462     1
   6461   6464     1
   6461   6465     1
   6462   6464     1
   6462   6465     1
   6467   6474     1
   6467   6475     1
   6468   6473     1
   6468   6471     1
   6468   6472     1
   6469   6473     1
   6469   6471     1
   6469   6472     1
   6471   6476     1
   6471   6474     1
   6471   6475     1
   6471   6495     1
   6472   6476     1
   6472   6474     1
   6472   6475     1
   6472   6495     1
   6473   6478     1
   6473   6479     1
   6473   6487     1
   6473   6488     1
   6474   6477     1
   6474   6486     1
   6475   6477     1
   6475   6486     1
   6476   6481     1
   6476   6482     1
   6476   6490     1
   6476   6491     1
   6477   6487     1
   6477   6488     1
   6478   6483     1
   6478   6481     1
   6478   6482     1
   6478   6486     1
   6479   6483     1
   6479   6481     1
   6479   6482     1
   6479   6486     1
   6481   6484     1
   6481   6485     1
   6482   6484     1
   6482   6485     1
   6487   6492     1
   6487   6490     1
   6487   6491     1
   6488   6492     1
   6488   6490     1
   6488   6491     1
   6490   6493     1
   6490   6494     1
   6491   6493     1
   6491   6494     1
   6496   6503     1
   6496   6504     1
   6497   6502     1
   6497   6500     1
   6497   6501     1
   6498   6502     1
   6498   6500     1
   6498   6501     1
   6500   6524     1
   6500   6505     1
   6500   6503     1
   6500   6504     1
   6501   6524     1
   6501   6505     1
   6501   6503     1
   6501   6504     1
   6502   6507     1
   6502   6508     1
   6502   6516     1
   6502   6517     1
   6503   6506     1
   6503   6515     1
   6504   6506     1
   6504   6515     1
   6505   6510     1
   6505   6511     1
   6505   6519     1
   6505   6520     1
   6506   6516     1
   6506   6517     1
   6507   6515     1
   6507   6512     1
   6507   6510     1
   6507   6511     1
   6508   6515     1
   6508   6512     1
   6508   6510     1
   6508   6511     1
   6510   6513     1
   6510   6514     1
   6511   6513     1
   6511   6514     1
   6516   6521     1
   6516   6519     1
   6516   6520     1
   6517   6521     1
   6517   6519     1
   6517   6520     1
   6519   6522     1
   6519   6523     1
   6520   6522     1
   6520   6523     1
   6525   6532     1
   6525   6533     1
   6526   6531     1
   6526   6529     1
   6526   6530     1
   6527   6531     1
   6527   6529     1
   6527   6530     1
   6529   6534     1
   6529   6532     1
   6529   6533     1
   6529   6553     1
   6530   6534     1
   6530   6532     1
   6530   6533     1
   6530   6553     1
   6531   6536     1
   6531   6537     1
   6531   6545     1
   6531   6546     1
   6532   6535     1
   6532   6544     1
   6533   6535     1
   6533   6544     1
   6534   6539     1
   6534   6540     1
   6534   6548     1
   6534   6549     1
   6535   6545     1
   6535   6546     1
   6536   6541     1
   6536   6539     1
   6536   6540     1
   6536   6544     1
   6537   6541     1
   6537   6539     1
   6537   6540     1
   6537   6544     1
   6539   6542     1
   6539   6543     1
   6540   6542     1
   6540   6543     1
   6545   6550     1
   6545   6548     1
   6545   6549     1
   6546   6550     1
   6546   6548     1
   6546   6549     1
   6548   6551     1
   6548   6552     1
   6549   6551     1
   6549   6552     1
   6554   6561     1
   6554   6562     1
   6555   6560     1
   6555   6558     1
   6555   6559     1
   6556   6560     1
   6556   6558     1
   6556   6559     1
   6558   6582     1
   6558   6563     1
   6558   6561     1
   6558   6562     1
   6559   6582     1
   6559   6563     1
   6559   6561     1
   6559   6562     1
   6560   6565     1
   6560   6566     1
   6560   6574     1
   6560   6575     1
   6561   6564     1
   6561   6573     1
   6562   6564     1
   6562   6573     1
   6563   6568     1
   6563   6569     1
   6563   6577     1
   6563   6578     1
   6564   6574     1
   6564   6575     1
   6565   6573     1
   6565   6570     1
   6565   6568     1
   6565   6569     1
   6566   6573     1
   6566   6570     1
   6566   6568     1
   6566   6569     1
   6568   6571     1
   6568   6572     1
   6569   6571     1
   6569   6572     1
   6574   6579     1
   6574   6577     1
   6574   6578     1
   6575   6579     1
   6575   6577     1
   6575   6578     1
   6577   6580     1
   6577   6581     1
   6578   6580     1
   6578   6581     1
   6583   6590     1
   6583   6591     1
   6584   6589     1
   6584   6587     1
   6584   6588     1
   6585   6589     1
   6585   6587     1
   6585   6588     1
   6587   6592     1
   6587   6590     1
   6587   6591     1
   6587   6611     1
   6588   6592     1
   6588   6590     1
   6588   6591     1
   6588   6611     1
   6589   6594     1
   6589   6595     1
   6589   6603     1
   6589   6604     1
   6590   6593     1
   6590   6602     1
   6591   6593     1
   6591   6602     1
   6592   6597     1
   6592   6598     1
   6592   6606     1
   6592   6607     1
   6593   6603     1
   6593   6604     1
   6594   6599     1
   6594   6597     1
   6594   6598     1
   6594   6602     1
   6595   6599     1
   6595   6597     1
   6595   6598     1
   6595   6602     1
   6597   6600     1
   6597   6601     1
   6598   6600     1
   6598   6601     1
   6603   6608     1
   6603   6606     1
   6603   6607     1
   6604   6608     1
   6604   6606     1
   6604   6607     1
   6606   6609     1
   6606   6610     1
   6607   6609     1
   6607   6610     1
   6612   6619     1
   6612   6620     1
   6613   6618     1
   6613   6616     1
   6613   6617     1
   6614   6618     1
   6614   6616     1
   6614   6617     1
   6616   6640     1
   6616   6621     1
   6616   6619     1
   6616   6620     1
   6617   6640     1
   6617   6621     1
   6617   6619     1
   6617   6620     1
   6618   6623     1
   6618   6624     1
   6618   6632     1
   6618   6633     1
   6619   6622     1
   6619   6631     1
   6620   6622     1
   6620   6631     1
   6621   6626     1
   6621   6627     1
   6621   6635     1
   6621   6636     1
   6622   6632     1
   6622   6633     1
   6623   6631     1
   6623   6628     1
   6623   6626     1
   6623   6627     1
   6624   6631     1
   6624   6628     1
   6624   6626     1
   6624   6627     1
   6626   6629     1
   6626   6630     1
   6627   6629     1
   6627   6630     1
   6632   6637     1
   6632   6635     1
   6632   6636     1
   6633   6637     1
   6633   6635     1
   6633   6636     1
   6635   6638     1
   6635   6639     1
   6636   6638     1
   6636   6639     1
   6641   6648     1
   6641   6649     1
   6642   6647     1
   6642   6645     1
   6642   6646     1
   6643   6647     1
   6643   6645     1
   6643   6646     1
   6645   6650     1
   6645   6648     1
   6645   6649     1
   6645   6669     1
   6646   6650     1
   6646   6648     1
   6646   6649     1
   6646   6669     1
   6647   6652     1
   6647   6653     1
   6647   6661     1
   6647   6662     1
   6648   6651     1
   6648   6660     1
   6649   6651     1
   6649   6660     1
   6650   6655     1
   6650   6656     1
   6650   6664     1
   6650   6665     1
   6651   6661     1
   6651   6662     1
   6652   6657     1
   6652   6655     1
   6652   6656     1
   6652   6660     1
   6653   6657     1
   6653   6655     1
   6653   6656     1
   6653   6660     1
   6655   6658     1
   6655   6659     1
   6656   6658     1
   6656   6659     1
   6661   6666     1
   6661   6664     1
   6661   6665     1
   6662   6666     1
   6662   6664     1
   6662   6665     1
   6664   6667     1
   6664   6668     1
   6665   6667     1
   6665   6668     1
   6670   6677     1
   6670   6678     1
   6671   6676     1
   6671   6674     1
   6671   6675     1
   6672   6676     1
   6672   6674     1
   6672   6675     1
   6674   6698     1
   6674   6679     1
   6674   6677     1
   6674   6678     1
   6675   6698     1
   6675   6679     1
   6675   6677     1
   6675   6678     1
   6676   6681     1
   6676   6682     1
   6676   6690     1
   6676   6691     1
   6677   6680     1
   6677   6689     1
   6678   6680     1
   6678   6689     1
   6679   6684     1
   6679   6685     1
   6679   6693     1
   6679   6694     1
   6680   6690     1
   6680   6691     1
   6681   6689     1
   6681   6686     1
   6681   6684     1
   6681   6685     1
   6682   6689     1
   6682   6686     1
   6682   6684     1
   6682   6685     1
   6684   6687     1
   6684   6688     1
   6685   6687     1
   6685   6688     1
   6690   6695     1
   6690   6693     1
   6690   6694     1
   6691   6695     1
   6691   6693     1
   6691   6694     1
   6693   6696     1
   6693   6697     1
   6694   6696     1
   6694   6697     1
   6699   6706     1
   6699   6707     1
   6700   6705     1
   6700   6703     1
   6700   6704     1
   6701   6705     1
   6701   6703     1
   6701   6704     1
   6703   6708     1
   6703   6706     1
   6703   6707     1
   6703   6727     1
   6704   6708     1
   6704   6706     1
   6704   6707     1
   6704   6727     1
   6705   6710     1
   6705   6711     1
   6705   6719     1
   6705   6720     1
   6706   6709     1
   6706   6718     1
   6707   6709     1
   6707   6718     1
   6708   6713     1
   6708   6714     1
   6708   6722     1
   6708   6723     1
   6709   6719     1
   6709   6720     1
   6710   6715     1
   6710   6713     1
   6710   6714     1
   6710   6718     1
   6711   6715     1
   6711   6713     1
   6711   6714     1
   6711   6718     1
   6713   6716     1
   6713   6717     1
   6714   6716     1
   6714   6717     1
   6719   6724     1
   6719   6722     1
   6719   6723     1
   6720   6724     1
   6720   6722     1
   6720   6723     1
   6722   6725     1
   6722   6726     1
   6723   6725     1
   6723   6726     1
   6728   6735     1
   6728   6736     1
   6729   6734     1
   6729   6732     1
   6729   6733     1
   6730   6734     1
   6730   6732     1
   6730   6733     1
   6732   6756     1
   6732   6737     1
   6732   6735     1
   6732   6736     1
   6733   6756     1
   6733   6737     1
   6733   6735     1
   6733   6736     1
   6734   6739     1
   6734   6740     1
   6734   6748     1
   6734   6749     1
   6735   6738     1
   6735   6747     1
   6736   6738     1
   6736   6747     1
   6737   6742     1
   6737   6743     1
   6737   6751     1
   6737   6752     1
   6738   6748     1
   6738   6749     1
   6739   6747     1
   6739   6744     1
   6739   6742     1
   6739   6743     1
   6740   6747     1
   6740   6744     1
   6740   6742     1
   6740   6743     1
   6742   6745     1
   6742   6746     1
   6743   6745     1
   6743   6746     1
   6748   6753     1
   6748   6751     1
   6748   6752     1
   6749   6753     1
   6749   6751     1
   6749   6752     1
   6751   6754     1
   6751   6755     1
   6752   6754     1
   6752   6755     1
   6757   6764     1
   6757   6765     1
   6758   6763     1
   6758   6761     1
   6758   6762     1
   6759   6763     1
   6759   6761     1
   6759   6762     1
   6761   6766     1
   6761   6764     1
   6761   6765     1
   6761   6785     1
   6762   6766     1
   6762   6764     1
   6762   6765     1
   6762   6785     1
   6763   6768     1
   6763   6769     1
   6763   6777     1
   6763   6778     1
   6764   6767     1
   6764   6776     1
   6765   6767     1
   6765   6776     1
   6766   6771     1
   6766   6772     1
   6766   6780     1
   6766   6781     1
   6767   6777     1
   6767   6778     1
   6768   6773     1
   6768   6771     1
   6768   6772     1
   6768   6776     1
   6769   6773     1
   6769   6771     1
   6769   6772     1
   6769   6776     1
   6771   6774     1
   6771   6775     1
   6772   6774     1
   6772   6775     1
   6777   6782     1
   6777   6780     1
   6777   6781     1
   6778   6782     1
   6778   6780     1
   6778   6781     1
   6780   6783     1
   6780   6784     1
   6781   6783     1
   6781   6784     1
   6786   6793     1
   6786   6794     1
   6787   6792     1
   6787   6790     1
   6787   6791     1
   6788   6792     1
   6788   6790     1
   6788   6791     1
   6790   6814     1
   6790   6795     1
   6790   6793     1
   6790   6794     1
   6791   6814     1
   6791   6795     1
   6791   6793     1
   6791   6794     1
   6792   6797     1
   6792   6798     1
   6792   6806     1
   6792   6807     1
   6793   6796     1
   6793   6805     1
   6794   6796     1
   6794   6805     1
   6795   6800     1
   6795   6801     1
   6795   6809     1
   6795   6810     1
   6796   6806     1
   6796   6807     1
   6797   6805     1
   6797   6802     1
   6797   6800     1
   6797   6801     1
   6798   6805     1
   6798   6802     1
   6798   6800     1
   6798   6801     1
   6800   6803     1
   6800   6804     1
   6801   6803     1
   6801   6804     1
   6806   6811     1
   6806   6809     1
   6806   6810     1
   6807   6811     1
   6807   6809     1
   6807   6810     1
   6809   6812     1
   6809   6813     1
   6810   6812     1
   6810   6813     1
   6815   6822     1
   6815   6823     1
   6816   6821     1
   6816   6819     1
   6816   6820     1
   6817   6821     1
   6817   6819     1
   6817   6820     1
   6819   6824     1
   6819   6822     1
   6819   6823     1
   6819   6843     1
   6820   6824     1
   6820   6822     1
   6820   6823     1
   6820   6843     1
   6821   6826     1
   6821   6827     1
   6821   6835     1
   6821   6836     1
   6822   6825     1
   6822   6834     1
   6823   6825     1
   6823   6834     1
   6824   6829     1
   6824   6830     1
   6824   6838     1
   6824   6839     1
   6825   6835     1
   6825   6836     1
   6826   6831     1
   6826   6829     1
   6826   6830     1
   6826   6834     1
   6827   6831     1
   6827   6829     1
   6827   6830     1
   6827   6834     1
   6829   6832     1
   6829   6833     1
   6830   6832     1
   6830   6833     1
   6835   6840     1
   6835   6838     1
   6835   6839     1
   6836   6840     1
   6836   6838     1
   6836   6839     1
   6838   6841     1
   6838   6842     1
   6839   6841     1
   6839   6842     1
   6844   6851     1
   6844   6852     1
   6845   6850     1
   6845   6848     1
   6845   6849     1
   6846   6850     1
   6846   6848     1
   6846   6849     1
   6848   6872     1
   6848   6853     1
   6848   6851     1
   6848   6852     1
   6849   6872     1
   6849   6853     1
   6849   6851     1
   6849   6852     1
   6850   6855     1
   6850   6856     1
   6850   6864     1
   6850   6865     1
   6851   6854     1
   6851   6863     1
   6852   6854     1
   6852   6863     1
   6853   6858     1
   6853   6859     1
   6853   6867     1
   6853   6868     1
   6854   6864     1
   6854   6865     1
   6855   6863     1
   6855   6860     1
   6855   6858     1
   6855   6859     1
   6856   6863     1
   6856   6860     1
   6856   6858     1
   6856   6859     1
   6858   6861     1
   6858   6862     1
   6859   6861     1
   6859   6862     1
   6864   6869     1
   6864   6867     1
   6864   6868     1
   6865   6869     1
   6865   6867     1
   6865   6868     1
   6867   6870     1
   6867   6871     1
   6868   6870     1
   6868   6871     1
   6873   6880     1
   6873   6881     1
   6874   6879     1
   6874   6877     1
   6874   6878     1
   6875   6879     1
   6875   6877     1
   6875   6878     1
   6877   6882     1
   6877   6880     1
   6877   6881     1
   6877   6901     1
   6878   6882     1
   6878   6880     1
   6878   6881     1
   6878   6901     1
   6879   6884     1
   6879   6885     1
   6879   6893     1
   6879   6894     1
   6880   6883     1
   6880   6892     1
   6881   6883     1
   6881   6892     1
   6882   6887     1
   6882   6888     1
   6882   6896     1
   6882   6897     1
   6883   6893     1
   6883   6894     1
   6884   6889     1
   6884   6887     1
   6884   6888     1
   6884   6892     1
   6885   6889     1
   6885   6887     1
   6885   6888     1
   6885   6892     1
   6887   6890     1
   6887   6891     1
   6888   6890     1
   6888   6891     1
   6893   6898     1
   6893   6896     1
   6893   6897     1
   6894   6898     1
   6894   6896     1
   6894   6897     1
   6896   6899     1
   6896   6900     1
   6897   6899     1
   6897   6900     1
   6902   6909     1
   6902   6910     1
   6903   6908     1
   6903   6906     1
   6903   6907     1
   6904   6908     1
   6904   6906     1
   6904   6907     1
   6906   6930     1
   6906   6911     1
   6906   6909     1
   6906   6910     1
   6907   6930     1
   6907   6911     1
   6907   6909     1
   6907   6910     1
   6908   6913     1
   6908   6914     1
   6908   6922     1
   6908   6923     1
   6909   6912     1
   6909   6921     1
   6910   6912     1
   6910   6921     1
   6911   6916     1
   6911   6917     1
   6911   6925     1
   6911   6926     1
   6912   6922     1
   6912   6923     1
   6913   6921     1
   6913   6918     1
   6913   6916     1
   6913   6917     1
   6914   6921     1
   6914   6918     1
   6914   6916     1
   6914   6917     1
   6916   6919     1
   6916   6920     1
   6917   6919     1
   6917   6920     1
   6922   6927     1
   6922   6925     1
   6922   6926     1
   6923   6927     1
   6923   6925     1
   6923   6926     1
   6925   6928     1
   6925   6929     1
   6926   6928     1
   6926   6929     1
   6931   6938     1
   6931   6939     1
   6932   6937     1
   6932   6935     1
   6932   6936     1
   6933   6937     1
   6933   6935     1
   6933   6936     1
   6935   6940     1
   6935   6938     1
   6935   6939     1
   6935   6959     1
   6936   6940     1
   6936   6938     1
   6936   6939     1
   6936   6959     1
   6937   6942     1
   6937   6943     1
   6937   6951     1
   6937   6952     1
   6938   6941     1
   6938   6950     1
   6939   6941     1
   6939   6950     1
   6940   6945     1
   6940   6946     1
   6940   6954     1
   6940   6955     1
   6941   6951     1
   6941   6952     1
   6942   6947     1
   6942   6945     1
   6942   6946     1
   6942   6950     1
   6943   6947     1
   6943   6945     1
   6943   6946     1
   6943   6950     1
   6945   6948     1
   6945   6949     1
   6946   6948     1
   6946   6949     1
   6951   6956     1
   6951   6954     1
   6951   6955     1
   6952   6956     1
   6952   6954     1
   6952   6955     1
   6954   6957     1
   6954   6958     1
   6955   6957     1
   6955   6958     1
   6960   6967     1
   6960   6968     1
   6961   6966     1
   6961   6964     1
   6961   6965     1
   6962   6966     1
   6962   6964     1
   6962   6965     1
   6964   6988     1
   6964   6969     1
   6964   6967     1
   6964   6968     1
   6965   6988     1
   6965   6969     1
   6965   6967     1
   6965   6968     1
   6966   6971     1
   6966   6972     1
   6966   6980     1
   6966   6981     1
   6967   6970     1
   6967   6979     1
   6968   6970     1
   6968   6979     1
   6969   6974     1
   6969   6975     1
   6969   6983     1
   6969   6984     1
   6970   6980     1
   6970   6981     1
   6971   6979     1
   6971   6976     1
   6971   6974     1
   6971   6975     1
   6972   6979     1
   6972   6976     1
   6972   6974     1
   6972   6975     1
   6974   6977     1
   6974   6978     1
   6975   6977     1
   6975   6978     1
   6980   6985     1
   6980   6983     1
   6980   6984     1
   6981   6985     1
   6981   6983     1
   6981   6984     1
   6983   6986     1
   6983   6987     1
   6984   6986     1
   6984   6987     1
   6989   6996     1
   6989   6997     1
   6990   6995     1
   6990   6993     1
   6990   6994     1
   6991   6995     1
   6991   6993     1
   6991   6994     1
   6993   6998     1
   6993   6996     1
   6993   6997     1
   6993   7017     1
   6994   6998     1
   6994   6996     1
   6994   6997     1
   6994   7017     1
   6995   7000     1
   6995   7001     1
   6995   7009     1
   6995   7010     1
   6996   6999     1
   6996   7008     1
   6997   6999     1
   6997   7008     1
   6998   7003     1
   6998   7004     1
   6998   7012     1
   6998   7013     1
   6999   7009     1
   6999   7010     1
   7000   7005     1
   7000   7003     1
   7000   7004     1
   7000   7008     1
   7001   7005     1
   7001   7003     1
   7001   7004     1
   7001   7008     1
   7003   7006     1
   7003   7007     1
   7004   7006     1
   7004   7007     1
   7009   7014     1
   7009   7012     1
   7009   7013     1
   7010   7014     1
   7010   7012     1
   7010   7013     1
   7012   7015     1
   7012   7016     1
   7013   7015     1
   7013   7016     1
   7018   7025     1
   7018   7026     1
   7019   7024     1
   7019   7022     1
   7019   7023     1
   7020   7024     1
   7020   7022     1
   7020   7023     1
   7022   7046     1
   7022   7027     1
   7022   7025     1
   7022   7026     1
   7023   7046     1
   7023   7027     1
   7023   7025     1
   7023   7026     1
   7024   7029     1
   7024   7030     1
   7024   7038     1
   7024   7039     1
   7025   7028     1
   7025   7037     1
   7026   7028     1
   7026   7037     1
   7027   7032     1
   7027   7033     1
   7027   7041     1
   7027   7042     1
   7028   7038     1
   7028   7039     1
   7029   7037     1
   7029   7034     1
   7029   7032     1
   7029   7033     1
   7030   7037     1
   7030   7034     1
   7030   7032     1
   7030   7033     1
   7032   7035     1
   7032   7036     1
   7033   7035     1
   7033   7036     1
   7038   7043     1
   7038   7041     1
   7038   7042     1
   7039   7043     1
   7039   7041     1
   7039   7042     1
   7041   7044     1
   7041   7045     1
   7042   7044     1
   7042   7045     1
   7047   7054     1
   7047   7055     1
   7048   7053     1
   7048   7051     1
   7048   7052     1
   7049   7053     1
   7049   7051     1
   7049   7052     1
   7051   7056     1
   7051   7054     1
   7051   7055     1
   7051   7075     1
   7052   7056     1
   7052   7054     1
   7052   7055     1
   7052   7075     1
   7053   7058     1
   7053   7059     1
   7053   7067     1
   7053   7068     1
   7054   7057     1
   7054   7066     1
   7055   7057     1
   7055   7066     1
   7056   7061     1
   7056   7062     1
   7056   7070     1
   7056   7071     1
   7057   7067     1
   7057   7068     1
   7058   7063     1
   7058   7061     1
   7058   7062     1
   7058   7066     1
   7059   7063     1
   7059   7061     1
   7059   7062     1
   7059   7066     1
   7061   7064     1
   7061   7065     1
   7062   7064     1
   7062   7065     1
   7067   7072     1
   7067   7070     1
   7067   7071     1
   7068   7072     1
   7068   7070     1
   7068   7071     1
   7070   7073     1
   7070   7074     1
   7071   7073     1
   7071   7074     1
   7076   7083     1
   7076   7084     1
   7077   7082     1
   7077   7080     1
   7077   7081     1
   7078   7082     1
   7078   7080     1
   7078   7081     1
   7080   7104     1
   7080   7085     1
   7080   7083     1
   7080   7084     1
   7081   7104     1
   7081   7085     1
   7081   7083     1
   7081   7084     1
   7082   7087     1
   7082   7088     1
   7082   7096     1
   7082   7097     1
   7083   7086     1
   7083   7095     1
   7084   7086     1
   7084   7095     1
   7085   7090     1
   7085   7091     1
   7085   7099     1
   7085   7100     1
   7086   7096     1
   7086   7097     1
   7087   7095     1
   7087   7092     1
   7087   7090     1
   7087   7091     1
   7088   7095     1
   7088   7092     1
   7088   7090     1
   7088   7091     1
   7090   7093     1
   7090   7094     1
   7091   7093     1
   7091   7094     1
   7096   7101     1
   7096   7099     1
   7096   7100     1
   7097   7101     1
   7097   7099     1
   7097   7100     1
   7099   7102     1
   7099   7103     1
   7100   7102     1
   7100   7103     1
   7105   7112     1
   7105   7113     1
   7106   7111     1
   7106   7109     1
   7106   7110     1
   7107   7111     1
   7107   7109     1
   7107   7110     1
   7109   7114     1
   7109   7112     1
   7109   7113     1
   7109   7133     1
   7110   7114     1
   7110   7112     1
   7110   7113     1
   7110   7133     1
   7111   7116     1
   7111   7117     1
   7111   7125     1
   7111   7126     1
   7112   7115     1
   7112   7124     1
   7113   7115     1
   7113   7124     1
   7114   7119     1
   7114   7120     1
   7114   7128     1
   7114   7129     1
   7115   7125     1
   7115   7126     1
   7116   7121     1
   7116   7119     1
   7116   7120     1
   7116   7124     1
   7117   7121     1
   7117   7119     1
   7117   7120     1
   7117   7124     1
   7119   7122     1
   7119   7123     1
   7120   7122     1
   7120   7123     1
   7125   7130     1
   7125   7128     1
   7125   7129     1
   7126   7130     1
   7126   7128     1
   7126   7129     1
   7128   7131     1
   7128   7132     1
   7129   7131     1
   7129   7132     1
   7134   7141     1
   7134   7142     1
   7135   7140     1
   7135   7138     1
   7135   7139     1
   7136   7140     1
   7136   7138     1
   7136   7139     1
   7138   7162     1
   7138   7143     1
   7138   7141     1
   7138   7142     1
   7139   7162     1
   7139   7143     1
   7139   7141     1
   7139   7142     1
   7140   7145     1
   7140   7146     1
   7140   7154     1
   7140   7155     1
   7141   7144     1
   7141   7153     1
   7142   7144     1
   7142   7153     1
   7143   7148     1
   7143   7149     1
   7143   7157     1
   7143   7158     1
   7144   7154     1
   7144   7155     1
   7145   7153     1
   7145   7150     1
   7145   7148     1
   7145   7149     1
   7146   7153     1
   7146   7150     1
   7146   7148     1
   7146   7149     1
   7148   7151     1
   7148   7152     1
   7149   7151     1
   7149   7152     1
   7154   7159     1
   7154   7157     1
   7154   7158     1
   7155   7159     1
   7155   7157     1
   7155   7158     1
   7157   7160     1
   7157   7161     1
   7158   7160     1
   7158   7161     1
   7163   7170     1
   7163   7171     1
   7164   7169     1
   7164   7167     1
   7164   7168     1
   7165   7169     1
   7165   7167     1
   7165   7168     1
   7167   7172     1
   7167   7170     1
   7167   7171     1
   7167   7191     1
   7168   7172     1
   7168   7170     1
   7168   7171     1
   7168   7191     1
   7169   7174     1
   7169   7175     1
   7169   7183     1
   7169   7184     1
   7170   7173     1
   7170   7182     1
   7171   7173     1
   7171   7182     1
   7172   7177     1
   7172   7178     1
   7172   7186     1
   7172   7187     1
   7173   7183     1
   7173   7184     1
   7174   7179     1
   7174   7177     1
   7174   7178     1
   7174   7182     1
   7175   7179     1
   7175   7177     1
   7175   7178     1
   7175   7182     1
   7177   7180     1
   7177   7181     1
   7178   7180     1
   7178   7181     1
   7183   7188     1
   7183   7186     1
   7183   7187     1
   7184   7188     1
   7184   7186     1
   7184   7187     1
   7186   7189     1
   7186   7190     1
   7187   7189     1
   7187   7190     1
   7192   7199     1
   7192   7200     1
   7193   7198     1
   7193   7196     1
   7193   7197     1
   7194   7198     1
   7194   7196     1
   7194   7197     1
   7196   7220     1
   7196   7201     1
   7196   7199     1
   7196   7200     1
   7197   7220     1
   7197   7201     1
   7197   7199     1
   7197   7200     1
   7198   7203     1
   7198   7204     1
   7198   7212     1
   7198   7213     1
   7199   7202     1
   7199   7211     1
   7200   7202     1
   7200   7211     1
   7201   7206     1
   7201   7207     1
   7201   7215     1
   7201   7216     1
   7202   7212     1
   7202   7213     1
   7203   7211     1
   7203   7208     1
   7203   7206     1
   7203   7207     1
   7204   7211     1
   7204   7208     1
   7204   7206     1
   7204   7207     1
   7206   7209     1
   7206   7210     1
   7207   7209     1
   7207   7210     1
   7212   7217     1
   7212   7215     1
   7212   7216     1
   7213   7217     1
   7213   7215     1
   7213   7216     1
   7215   7218     1
   7215   7219     1
   7216   7218     1
   7216   7219     1
   7221   7228     1
   7221   7229     1
   7222   7227     1
   7222   7225     1
   7222   7226     1
   7223   7227     1
   7223   7225     1
   7223   7226     1
   7225   7230     1
   7225   7228     1
   7225   7229     1
   7225   7249     1
   7226   7230     1
   7226   7228     1
   7226   7229     1
   7226   7249     1
   7227   7232     1
   7227   7233     1
   7227   7241     1
   7227   7242     1
   7228   7231     1
   7228   7240     1
   7229   7231     1
   7229   7240     1
   7230   7235     1
   7230   7236     1
   7230   7244     1
   7230   7245     1
   7231   7241     1
   7231   7242     1
   7232   7237     1
   7232   7235     1
   7232   7236     1
   7232   7240     1
   7233   7237     1
   7233   7235     1
   7233   7236     1
   7233   7240     1
   7235   7238     1
   7235   7239     1
   7236   7238     1
   7236   7239     1
   7241   7246     1
   7241   7244     1
   7241   7245     1
   7242   7246     1
   7242   7244     1
   7242   7245     1
   7244   7247     1
   7244   7248     1
   7245   7247     1
   7245   7248     1
   7250   7257     1
   7250   7258     1
   7251   7256     1
   7251   7254     1
   7251   7255     1
   7252   7256     1
   7252   7254     1
   7252   7255     1
   7254   7278     1
   7254   7259     1
   7254   7257     1
   7254   7258     1
   7255   7278     1
   7255   7259     1
   7255   7257     1
   7255   7258     1
   7256   7261     1
   7256   7262     1
   7256   7270     1
   7256   7271     1
   7257   7260     1
   7257   7269     1
   7258   7260     1
   7258   7269     1
   7259   7264     1
   7259   7265     1
   7259   7273     1
   7259   7274     1
   7260   7270     1
   7260   7271     1
   7261   7269     1
   7261   7266     1
   7261   7264     1
   7261   7265     1
   7262   7269     1
   7262   7266     1
   7262   7264     1
   7262   7265     1
   7264   7267     1
   7264   7268     1
   7265   7267     1
   7265   7268     1
   7270   7275     1
   7270   7273     1
   7270   7274     1
   7271   7275     1
   7271   7273     1
   7271   7274     1
   7273   7276     1
   7273   7277     1
   7274   7276     1
   7274   7277     1
   7279   7286     1
   7279   7287     1
   7280   7285     1
   7280   7283     1
   7280   7284     1
   7281   7285     1
   7281   7283     1
   7281   7284     1
   7283   7288     1
   7283   7286     1
   7283   7287     1
   7283   7307     1
   7284   7288     1
   7284   7286     1
   7284   7287     1
   7284   7307     1
   7285   7290     1
   7285   7291     1
   7285   7299     1
   7285   7300     1
   7286   7289     1
   7286   7298     1
   7287   7289     1
   7287   7298     1
   7288   7293     1
   7288   7294     1
   7288   7302     1
   7288   7303     1
   7289   7299     1
   7289   7300     1
   7290   7295     1
   7290   7293     1
   7290   7294     1
   7290   7298     1
   7291   7295     1
   7291   7293     1
   7291   7294     1
   7291   7298     1
   7293   7296     1
   7293   7297     1
   7294   7296     1
   7294   7297     1
   7299   7304     1
   7299   7302     1
   7299   7303     1
   7300   7304     1
   7300   7302     1
   7300   7303     1
   7302   7305     1
   7302   7306     1
   7303   7305     1
   7303   7306     1
   7308   7315     1
   7308   7316     1
   7309   7314     1
   7309   7312     1
   7309   7313     1
   7310   7314     1
   7310   7312     1
   7310   7313     1
   7312   7336     1
   7312   7317     1
   7312   7315     1
   7312   7316     1
   7313   7336     1
   7313   7317     1
   7313   7315     1
   7313   7316     1
   7314   7319     1
   7314   7320     1
   7314   7328     1
   7314   7329     1
   7315   7318     1
   7315   7327     1
   7316   7318     1
   7316   7327     1
   7317   7322     1
   7317   7323     1
   7317   7331     1
   7317   7332     1
   7318   7328     1
   7318   7329     1
   7319   7327     1
   7319   7324     1
   7319   7322     1
   7319   7323     1
   7320   7327     1
   7320   7324     1
   7320   7322     1
   7320   7323     1
   7322   7325     1
   7322   7326     1
   7323   7325     1
   7323   7326     1
   7328   7333     1
   7328   7331     1
   7328   7332     1
   7329   7333     1
   7329   7331     1
   7329   7332     1
   7331   7334     1
   7331   7335     1
   7332   7334     1
   7332   7335     1
   7337   7344     1
   7337   7345     1
   7338   7343     1
   7338   7341     1
   7338   7342     1
   7339   7343     1
   7339   7341     1
   7339   7342     1
   7341   7346     1
   7341   7344     1
   7341   7345     1
   7341   7365     1
   7342   7346     1
   7342   7344     1
   7342   7345     1
   7342   7365     1
   7343   7348     1
   7343   7349     1
   7343   7357     1
   7343   7358     1
   7344   7347     1
   7344   7356     1
   7345   7347     1
   7345   7356     1
   7346   7351     1
   7346   7352     1
   7346   7360     1
   7346   7361     1
   7347   7357     1
   7347   7358     1
   7348   7353     1
   7348   7351     1
   7348   7352     1
   7348   7356     1
   7349   7353     1
   7349   7351     1
   7349   7352     1
   7349   7356     1
   7351   7354     1
   7351   7355     1
   7352   7354     1
   7352   7355     1
   7357   7362     1
   7357   7360     1
   7357   7361     1
   7358   7362     1
   7358   7360     1
   7358   7361     1
   7360   7363     1
   7360   7364     1
   7361   7363     1
   7361   7364     1
   7366   7373     1
   7366   7374     1
   7367   7372     1
   7367   7370     1
   7367   7371     1
   7368   7372     1
   7368   7370     1
   7368   7371     1
   7370   7394     1
   7370   7375     1
   7370   7373     1
   7370   7374     1
   7371   7394     1
   7371   7375     1
   7371   7373     1
   7371   7374     1
   7372   7377     1
   7372   7378     1
   7372   7386     1
   7372   7387     1
   7373   7376     1
   7373   7385     1
   7374   7376     1
   7374   7385     1
   7375   7380     1
   7375   7381     1
   7375   7389     1
   7375   7390     1
   7376   7386     1
   7376   7387     1
   7377   7385     1
   7377   7382     1
   7377   7380     1
   7377   7381     1
   7378   7385     1
   7378   7382     1
   7378   7380     1
   7378   7381     1
   7380   7383     1
   7380   7384     1
   7381   7383     1
   7381   7384     1
   7386   7391     1
   7386   7389     1
   7386   7390     1
   7387   7391     1
   7387   7389     1
   7387   7390     1
   7389   7392     1
   7389   7393     1
   7390   7392     1
   7390   7393     1
   7395   7402     1
   7395   7403     1
   7396   7401     1
   7396   7399     1
   7396   7400     1
   7397   7401     1
   7397   7399     1
   7397   7400     1
   7399   7404     1
   7399   7402     1
   7399   7403     1
   7399   7423     1
   7400   7404     1
   7400   7402     1
   7400   7403     1
   7400   7423     1
   7401   7406     1
   7401   7407     1
   7401   7415     1
   7401   7416     1
   7402   7405     1
   7402   7414     1
   7403   7405     1
   7403   7414     1
   7404   7409     1
   7404   7410     1
   7404   7418     1
   7404   7419     1
   7405   7415     1
   7405   7416     1
   7406   7411     1
   7406   7409     1
   7406   7410     1
   7406   7414     1
   7407   7411     1
   7407   7409     1
   7407   7410     1
   7407   7414     1
   7409   7412     1
   7409   7413     1
   7410   7412     1
   7410   7413     1
   7415   7420     1
   7415   7418     1
   7415   7419     1
   7416   7420     1
   7416   7418     1
   7416   7419     1
   7418   7421     1
   7418   7422     1
   7419   7421     1
   7419   7422     1
   7424   7431     1
   7424   7432     1
   7425   7430     1
   7425   7428     1
   7425   7429     1
   7426   7430     1
   7426   7428     1
   7426   7429     1
   7428   7452     1
   7428   7433     1
   7428   7431     1
   7428   7432     1
   7429   7452     1
   7429   7433     1
   7429   7431     1
   7429   7432     1
   7430   7435     1
   7430   7436     1
   7430   7444     1
   7430   7445     1
   7431   7434     1
   7431   7443     1
   7432   7434     1
   7432   7443     1
   7433   7438     1
   7433   7439     1
   7433   7447     1
   7433   7448     1
   7434   7444     1
   7434   7445     1
   7435   7443     1
   7435   7440     1
   7435   7438     1
   7435   7439     1
   7436   7443     1
   7436   7440     1
   7436   7438     1
   7436   7439     1
   7438   7441     1
   7438   7442     1
   7439   7441     1
   7439   7442     1
   7444   7449     1
   7444   7447     1
   7444   7448     1
   7445   7449     1
   7445   7447     1
   7445   7448     1
   7447   7450     1
   7447   7451     1
   7448   7450     1
   7448   7451     1
   7453   7460     1
   7453   7461     1
   7454   7459     1
   7454   7457     1
   7454   7458     1
   7455   7459     1
   7455   7457     1
   7455   7458     1
   7457   7462     1
   7457   7460     1
   7457   7461     1
   7457   7481     1
   7458   7462     1
   7458   7460     1
   7458   7461     1
   7458   7481     1
   7459   7464     1
   7459   7465     1
   7459   7473     1
   7459   7474     1
   7460   7463     1
   7460   7472     1
   7461   7463     1
   7461   7472     1
   7462   7467     1
   7462   7468     1
   7462   7476     1
   7462   7477     1
   7463   7473     1
   7463   7474     1
   7464   7469     1
   7464   7467     1
   7464   7468     1
   7464   7472     1
   7465   7469     1
   7465   7467     1
   7465   7468     1
   7465   7472     1
   7467   7470     1
   7467   7471     1
   7468   7470     1
   7468   7471     1
   7473   7478     1
   7473   7476     1
   7473   7477     1
   7474   7478     1
   7474   7476     1
   7474   7477     1
   7476   7479     1
   7476   7480     1
   7477   7479     1
   7477   7480     1
   7482   7489     1
   7482   7490     1
   7483   7488     1
   7483   7486     1
   7483   7487     1
   7484   7488     1
   7484   7486     1
   7484   7487     1
   7486   7510     1
   7486   7491     1
   7486   7489     1
   7486   7490     1
   7487   7510     1
   7487   7491     1
   7487   7489     1
   7487   7490     1
   7488   7493     1
   7488   7494     1
   7488   7502     1
   7488   7503     1
   7489   7492     1
   7489   7501     1
   7490   7492     1
   7490   7501     1
   7491   7496     1
   7491   7497     1
   7491   7505     1
   7491   7506     1
   7492   7502     1
   7492   7503     1
   7493   7501     1
   7493   7498     1
   7493   7496     1
   7493   7497     1
   7494   7501     1
   7494   7498     1
   7494   7496     1
   7494   7497     1
   7496   7499     1
   7496   7500     1
   7497   7499     1
   7497   7500     1
   7502   7507     1
   7502   7505     1
   7502   7506     1
   7503   7507     1
   7503   7505     1
   7503   7506     1
   7505   7508     1
   7505   7509     1
   7506   7508     1
   7506   7509     1
   7511   7518     1
   7511   7519     1
   7512   7517     1
   7512   7515     1
   7512   7516     1
   7513   7517     1
   7513   7515     1
   7513   7516     1
   7515   7520     1
   7515   7518     1
   7515   7519     1
   7515   7539     1
   7516   7520     1
   7516   7518     1
   7516   7519     1
   7516   7539     1
   7517   7522     1
   7517   7523     1
   7517   7531     1
   7517   7532     1
   7518   7521     1
   7518   7530     1
   7519   7521     1
   7519   7530     1
   7520   7525     1
   7520   7526     1
   7520   7534     1
   7520   7535     1
   7521   7531     1
   7521   7532     1
   7522   7527     1
   7522   7525     1
   7522   7526     1
   7522   7530     1
   7523   7527     1
   7523   7525     1
   7523   7526     1
   7523   7530     1
   7525   7528     1
   7525   7529     1
   7526   7528     1
   7526   7529     1
   7531   7536     1
   7531   7534     1
   7531   7535     1
   7532   7536     1
   7532   7534     1
   7532   7535     1
   7534   7537     1
   7534   7538     1
   7535   7537     1
   7535   7538     1
   7540   7547     1
   7540   7548     1
   7541   7546     1
   7541   7544     1
   7541   7545     1
   7542   7546     1
   7542   7544     1
   7542   7545     1
   7544   7568     1
   7544   7549     1
   7544   7547     1
   7544   7548     1
   7545   7568     1
   7545   7549     1
   7545   7547     1
   7545   7548     1
   7546   7551     1
   7546   7552     1
   7546   7560     1
   7546   7561     1
   7547   7550     1
   7547   7559     1
   7548   7550     1
   7548   7559     1
   7549   7554     1
   7549   7555     1
   7549   7563     1
   7549   7564     1
   7550   7560     1
   7550   7561     1
   7551   7559     1
   7551   7556     1
   7551   7554     1
   7551   7555     1
   7552   7559     1
   7552   7556     1
   7552   7554     1
   7552   7555     1
   7554   7557     1
   7554   7558     1
   7555   7557     1
   7555   7558     1
   7560   7565     1
   7560   7563     1
   7560   7564     1
   7561   7565     1
   7561   7563     1
   7561   7564     1
   7563   7566     1
   7563   7567     1
   7564   7566     1
   7564   7567     1
   7569   7576     1
   7569   7577     1
   7570   7575     1
   7570   7573     1
   7570   7574     1
   7571   7575     1
   7571   7573     1
   7571   7574     1
   7573   7578     1
   7573   7576     1
   7573   7577     1
   7573   7597     1
   7574   7578     1
   7574   7576     1
   7574   7577     1
   7574   7597     1
   7575   7580     1
   7575   7581     1
   7575   7589     1
   7575   7590     1
   7576   7579     1
   7576   7588     1
   7577   7579     1
   7577   7588     1
   7578   7583     1
   7578   7584     1
   7578   7592     1
   7578   7593     1
   7579   7589     1
   7579   7590     1
   7580   7585     1
   7580   7583     1
   7580   7584     1
   7580   7588     1
   7581   7585     1
   7581   7583     1
   7581   7584     1
   7581   7588     1
   7583   7586     1
   7583   7587     1
   7584   7586     1
   7584   7587     1
   7589   7594     1
   7589   7592     1
   7589   7593     1
   7590   7594     1
   7590   7592     1
   7590   7593     1
   7592   7595     1
   7592   7596     1
   7593   7595     1
   7593   7596     1
   7598   7605     1
   7598   7606     1
   7599   7604     1
   7599   7602     1
   7599   7603     1
   7600   7604     1
   7600   7602     1
   7600   7603     1
   7602   7626     1
   7602   7607     1
   7602   7605     1
   7602   7606     1
   7603   7626     1
   7603   7607     1
   7603   7605     1
   7603   7606     1
   7604   7609     1
   7604   7610     1
   7604   7618     1
   7604   7619     1
   7605   7608     1
   7605   7617     1
   7606   7608     1
   7606   7617     1
   7607   7612     1
   7607   7613     1
   7607   7621     1
   7607   7622     1
   7608   7618     1
   7608   7619     1
   7609   7617     1
   7609   7614     1
   7609   7612     1
   7609   7613     1
   7610   7617     1
   7610   7614     1
   7610   7612     1
   7610   7613     1
   7612   7615     1
   7612   7616     1
   7613   7615     1
   7613   7616     1
   7618   7623     1
   7618   7621     1
   7618   7622     1
   7619   7623     1
   7619   7621     1
   7619   7622     1
   7621   7624     1
   7621   7625     1
   7622   7624     1
   7622   7625     1
   7627   7634     1
   7627   7635     1
   7628   7633     1
   7628   7631     1
   7628   7632     1
   7629   7633     1
   7629   7631     1
   7629   7632     1
   7631   7636     1
   7631   7634     1
   7631   7635     1
   7631   7655     1
   7632   7636     1
   7632   7634     1
   7632   7635     1
   7632   7655     1
   7633   7638     1
   7633   7639     1
   7633   7647     1
   7633   7648     1
   7634   7637     1
   7634   7646     1
   7635   7637     1
   7635   7646     1
   7636   7641     1
   7636   7642     1
   7636   7650     1
   7636   7651     1
   7637   7647     1
   7637   7648     1
   7638   7643     1
   7638   7641     1
   7638   7642     1
   7638   7646     1
   7639   7643     1
   7639   7641     1
   7639   7642     1
   7639   7646     1
   7641   7644     1
   7641   7645     1
   7642   7644     1
   7642   7645     1
   7647   7652     1
   7647   7650     1
   7647   7651     1
   7648   7652     1
   7648   7650     1
   7648   7651     1
   7650   7653     1
   7650   7654     1
   7651   7653     1
   7651   7654     1
   7656   7663     1
   7656   7664     1
   7657   7662     1
   7657   7660     1
   7657   7661     1
   7658   7662     1
   7658   7660     1
   7658   7661     1
   7660   7684     1
   7660   7665     1
   7660   7663     1
   7660   7664     1
   7661   7684     1
   7661   7665     1
   7661   7663     1
   7661   7664     1
   7662   7667     1
   7662   7668     1
   7662   7676     1
   7662   7677     1
   7663   7666     1
   7663   7675     1
   7664   7666     1
   7664   7675     1
   7665   7670     1
   7665   7671     1
   7665   7679     1
   7665   7680     1
   7666   7676     1
   7666   7677     1
   7667   7675     1
   7667   7672     1
   7667   7670     1
   7667   7671     1
   7668   7675     1
   7668   7672     1
   7668   7670     1
   7668   7671     1
   7670   7673     1
   7670   7674     1
   7671   7673     1
   7671   7674     1
   7676   7681     1
   7676   7679     1
   7676   7680     1
   7677   7681     1
   7677   7679     1
   7677   7680     1
   7679   7682     1
   7679   7683     1
   7680   7682     1
   7680   7683     1
   7685   7692     1
   7685   7693     1
   7686   7691     1
   7686   7689     1
   7686   7690     1
   7687   7691     1
   7687   7689     1
   7687   7690     1
   7689   7694     1
   7689   7692     1
   7689   7693     1
   7689   7713     1
   7690   7694     1
   7690   7692     1
   7690   7693     1
   7690   7713     1
   7691   7696     1
   7691   7697     1
   7691   7705     1
   7691   7706     1
   7692   7695     1
   7692   7704     1
   7693   7695     1
   7693   7704     1
   7694   7699     1
   7694   7700     1
   7694   7708     1
   7694   7709     1
   7695   7705     1
   7695   7706     1
   7696   7701     1
   7696   7699     1
   7696   7700     1
   7696   7704     1
   7697   7701     1
   7697   7699     1
   7697   7700     1
   7697   7704     1
   7699   7702     1
   7699   7703     1
   7700   7702     1
   7700   7703     1
   7705   7710     1
   7705   7708     1
   7705   7709     1
   7706   7710     1
   7706   7708     1
   7706   7709     1
   7708   7711     1
   7708   7712     1
   7709   7711     1
   7709   7712     1
   7714   7721     1
   7714   7722     1
   7715   7720     1
   7715   7718     1
   7715   7719     1
   7716   7720     1
   7716   7718     1
   7716   7719     1
   7718   7742     1
   7718   7723     1
   7718   7721     1
   7718   7722     1
   7719   7742     1
   7719   7723     1
   7719   7721     1
   7719   7722     1
   7720   7725     1
   7720   7726     1
   7720   7734     1
   7720   7735     1
   7721   7724     1
   7721   7733     1
   7722   7724     1
   7722   7733     1
   7723   7728     1
   7723   7729     1
   7723   7737     1
   7723   7738     1
   7724   7734     1
   7724   7735     1
   7725   7733     1
   7725   7730     1
   7725   7728     1
   7725   7729     1
   7726   7733     1
   7726   7730     1
   7726   7728     1
   7726   7729     1
   7728   7731     1
   7728   7732     1
   7729   7731     1
   7729   7732     1
   7734   7739     1
   7734   7737     1
   7734   7738     1
   7735   7739     1
   7735   7737     1
   7735   7738     1
   7737   7740     1
   7737   7741     1
   7738   7740     1
   7738   7741     1
   7743   7750     1
   7743   7751     1
   7744   7749     1
   7744   7747     1
   7744   7748     1
   7745   7749     1
   7745   7747     1
   7745   7748     1
   7747   7752     1
   7747   7750     1
   7747   7751     1
   7747   7771     1
   7748   7752     1
   7748   7750     1
   7748   7751     1
   7748   7771     1
   7749   7754     1
   7749   7755     1
   7749   7763     1
   7749   7764     1
   7750   7753     1
   7750   7762     1
   7751   7753     1
   7751   7762     1
   7752   7757     1
   7752   7758     1
   7752   7766     1
   7752   7767     1
   7753   7763     1
   7753   7764     1
   7754   7759     1
   7754   7757     1
   7754   7758     1
   7754   7762     1
   7755   7759     1
   7755   7757     1
   7755   7758     1
   7755   7762     1
   7757   7760     1
   7757   7761     1
   7758   7760     1
   7758   7761     1
   7763   7768     1
   7763   7766     1
   7763   7767     1
   7764   7768     1
   7764   7766     1
   7764   7767     1
   7766   7769     1
   7766   7770     1
   7767   7769     1
   7767   7770     1
   7772   7779     1
   7772   7780     1
   7773   7778     1
   7773   7776     1
   7773   7777     1
   7774   7778     1
   7774   7776     1
   7774   7777     1
   7776   7800     1
   7776   7781     1
   7776   7779     1
   7776   7780     1
   7777   7800     1
   7777   7781     1
   7777   7779     1
   7777   7780     1
   7778   7783     1
   7778   7784     1
   7778   7792     1
   7778   7793     1
   7779   7782     1
   7779   7791     1
   7780   7782     1
   7780   7791     1
   7781   7786     1
   7781   7787     1
   7781   7795     1
   7781   7796     1
   7782   7792     1
   7782   7793     1
   7783   7791     1
   7783   7788     1
   7783   7786     1
   7783   7787     1
   7784   7791     1
   7784   7788     1
   7784   7786     1
   7784   7787     1
   7786   7789     1
   7786   7790     1
   7787   7789     1
   7787   7790     1
   7792   7797     1
   7792   7795     1
   7792   7796     1
   7793   7797     1
   7793   7795     1
   7793   7796     1
   7795   7798     1
   7795   7799     1
   7796   7798     1
   7796   7799     1
   7801   7808     1
   7801   7809     1
   7802   7807     1
   7802   7805     1
   7802   7806     1
   7803   7807     1
   7803   7805     1
   7803   7806     1
   7805   7810     1
   7805   7808     1
   7805   7809     1
   7805   7829     1
   7806   7810     1
   7806   7808     1
   7806   7809     1
   7806   7829     1
   7807   7812     1
   7807   7813     1
   7807   7821     1
   7807   7822     1
   7808   7811     1
   7808   7820     1
   7809   7811     1
   7809   7820     1
   7810   7815     1
   7810   7816     1
   7810   7824     1
   7810   7825     1
   7811   7821     1
   7811   7822     1
   7812   7817     1
   7812   7815     1
   7812   7816     1
   7812   7820     1
   7813   7817     1
   7813   7815     1
   7813   7816     1
   7813   7820     1
   7815   7818     1
   7815   7819     1
   7816   7818     1
   7816   7819     1
   7821   7826     1
   7821   7824     1
   7821   7825     1
   7822   7826     1
   7822   7824     1
   7822   7825     1
   7824   7827     1
   7824   7828     1
   7825   7827     1
   7825   7828     1
   7830   7837     1
   7830   7838     1
   7831   7836     1
   7831   7834     1
   7831   7835     1
   7832   7836     1
   7832   7834     1
   7832   7835     1
   7834   7858     1
   7834   7839     1
   7834   7837     1
   7834   7838     1
   7835   7858     1
   7835   7839     1
   7835   7837     1
   7835   7838     1
   7836   7841     1
   7836   7842     1
   7836   7850     1
   7836   7851     1
   7837   7840     1
   7837   7849     1
   7838   7840     1
   7838   7849     1
   7839   7844     1
   7839   7845     1
   7839   7853     1
   7839   7854     1
   7840   7850     1
   7840   7851     1
   7841   7849     1
   7841   7846     1
   7841   7844     1
   7841   7845     1
   7842   7849     1
   7842   7846     1
   7842   7844     1
   7842   7845     1
   7844   7847     1
   7844   7848     1
   7845   7847     1
   7845   7848     1
   7850   7855     1
   7850   7853     1
   7850   7854     1
   7851   7855     1
   7851   7853     1
   7851   7854     1
   7853   7856     1
   7853   7857     1
   7854   7856     1
   7854   7857     1
   7859   7866     1
   7859   7867     1
   7860   7865     1
   7860   7863     1
   7860   7864     1
   7861   7865     1
   7861   7863     1
   7861   7864     1
   7863   7868     1
   7863   7866     1
   7863   7867     1
   7863   7887     1
   7864   7868     1
   7864   7866     1
   7864   7867     1
   7864   7887     1
   7865   7870     1
   7865   7871     1
   7865   7879     1
   7865   7880     1
   7866   7869     1
   7866   7878     1
   7867   7869     1
   7867   7878     1
   7868   7873     1
   7868   7874     1
   7868   7882     1
   7868   7883     1
   7869   7879     1
   7869   7880     1
   7870   7875     1
   7870   7873     1
   7870   7874     1
   7870   7878     1
   7871   7875     1
   7871   7873     1
   7871   7874     1
   7871   7878     1
   7873   7876     1
   7873   7877     1
   7874   7876     1
   7874   7877     1
   7879   7884     1
   7879   7882     1
   7879   7883     1
   7880   7884     1
   7880   7882     1
   7880   7883     1
   7882   7885     1
   7882   7886     1
   7883   7885     1
   7883   7886     1
   7888   7895     1
   7888   7896     1
   7889   7894     1
   7889   7892     1
   7889   7893     1
   7890   7894     1
   7890   7892     1
   7890   7893     1
   7892   7916     1
   7892   7897     1
   7892   7895     1
   7892   7896     1
   7893   7916     1
   7893   7897     1
   7893   7895     1
   7893   7896     1
   7894   7899     1
   7894   7900     1
   7894   7908     1
   7894   7909     1
   7895   7898     1
   7895   7907     1
   7896   7898     1
   7896   7907     1
   7897   7902     1
   7897   7903     1
   7897   7911     1
   7897   7912     1
   7898   7908     1
   7898   7909     1
   7899   7907     1
   7899   7904     1
   7899   7902     1
   7899   7903     1
   7900   7907     1
   7900   7904     1
   7900   7902     1
   7900   7903     1
   7902   7905     1
   7902   7906     1
   7903   7905     1
   7903   7906     1
   7908   7913     1
   7908   7911     1
   7908   7912     1
   7909   7913     1
   7909   7911     1
   7909   7912     1
   7911   7914     1
   7911   7915     1
   7912   7914     1
   7912   7915     1
   7917   7924     1
   7917   7925     1
   7918   7923     1
   7918   7921     1
   7918   7922     1
   7919   7923     1
   7919   7921     1
   7919   7922     1
   7921   7926     1
   7921   7924     1
   7921   7925     1
   7921   7945     1
   7922   7926     1
   7922   7924     1
   7922   7925     1
   7922   7945     1
   7923   7928     1
   7923   7929     1
   7923   7937     1
   7923   7938     1
   7924   7927     1
   7924   7936     1
   7925   7927     1
   7925   7936     1
   7926   7931     1
   7926   7932     1
   7926   7940     1
   7926   7941     1
   7927   7937     1
   7927   7938     1
   7928   7933     1
   7928   7931     1
   7928   7932     1
   7928   7936     1
   7929   7933     1
   7929   7931     1
   7929   7932     1
   7929   7936     1
   7931   7934     1
   7931   7935     1
   7932   7934     1
   7932   7935     1
   7937   7942     1
   7937   7940     1
   7937   7941     1
   7938   7942     1
   7938   7940     1
   7938   7941     1
   7940   7943     1
   7940   7944     1
   7941   7943     1
   7941   7944     1
   7946   7953     1
   7946   7954     1
   7947   7952     1
   7947   7950     1
   7947   7951     1
   7948   7952     1
   7948   7950     1
   7948   7951     1
   7950   7974     1
   7950   7955     1
   7950   7953     1
   7950   7954     1
   7951   7974     1
   7951   7955     1
   7951   7953     1
   7951   7954     1
   7952   7957     1
   7952   7958     1
   7952   7966     1
   7952   7967     1
   7953   7956     1
   7953   7965     1
   7954   7956     1
   7954   7965     1
   7955   7960     1
   7955   7961     1
   7955   7969     1
   7955   7970     1
   7956   7966     1
   7956   7967     1
   7957   7965     1
   7957   7962     1
   7957   7960     1
   7957   7961     1
   7958   7965     1
   7958   7962     1
   7958   7960     1
   7958   7961     1
   7960   7963     1
   7960   7964     1
   7961   7963     1
   7961   7964     1
   7966   7971     1
   7966   7969     1
   7966   7970     1
   7967   7971     1
   7967   7969     1
   7967   7970     1
   7969   7972     1
   7969   7973     1
   7970   7972     1
   7970   7973     1
   7975   7982     1
   7975   7983     1
   7976   7981     1
   7976   7979     1
   7976   7980     1
   7977   7981     1
   7977   7979     1
   7977   7980     1
   7979   7984     1
   7979   7982     1
   7979   7983     1
   7979   8003     1
   7980   7984     1
   7980   7982     1
   7980   7983     1
   7980   8003     1
   7981   7986     1
   7981   7987     1
   7981   7995     1
   7981   7996     1
   7982   7985     1
   7982   7994     1
   7983   7985     1
   7983   7994     1
   7984   7989     1
   7984   7990     1
   7984   7998     1
   7984   7999     1
   7985   7995     1
   7985   7996     1
   7986   7991     1
   7986   7989     1
   7986   7990     1
   7986   7994     1
   7987   7991     1
   7987   7989     1
   7987   7990     1
   7987   7994     1
   7989   7992     1
   7989   7993     1
   7990   7992     1
   7990   7993     1
   7995   8000     1
   7995   7998     1
   7995   7999     1
   7996   8000     1
   7996   7998     1
   7996   7999     1
   7998   8001     1
   7998   8002     1
   7999   8001     1
   7999   8002     1
   8004   8011     1
   8004   8012     1
   8005   8010     1
   8005   8008     1
   8005   8009     1
   8006   8010     1
   8006   8008     1
   8006   8009     1
   8008   8032     1
   8008   8013     1
   8008   8011     1
   8008   8012     1
   8009   8032     1
   8009   8013     1
   8009   8011     1
   8009   8012     1
   8010   8015     1
   8010   8016     1
   8010   8024     1
   8010   8025     1
   8011   8014     1
   8011   8023     1
   8012   8014     1
   8012   8023     1
   8013   8018     1
   8013   8019     1
   8013   8027     1
   8013   8028     1
   8014   8024     1
   8014   8025     1
   8015   8023     1
   8015   8020     1
   8015   8018     1
   8015   8019     1
   8016   8023     1
   8016   8020     1
   8016   8018     1
   8016   8019     1
   8018   8021     1
   8018   8022     1
   8019   8021     1
   8019   8022     1
   8024   8029     1
   8024   8027     1
   8024   8028     1
   8025   8029     1
   8025   8027     1
   8025   8028     1
   8027   8030     1
   8027   8031     1
   8028   8030     1
   8028   8031     1
   8033   8040     1
   8033   8041     1
   8034   8039     1
   8034   8037     1
   8034   8038     1
   8035   8039     1
   8035   8037     1
   8035   8038     1
   8037   8042     1
   8037   8040     1
   8037   8041     1
   8037   8061     1
   8038   8042     1
   8038   8040     1
   8038   8041     1
   8038   8061     1
   8039   8044     1
   8039   8045     1
   8039   8053     1
   8039   8054     1
   8040   8043     1
   8040   8052     1
   8041   8043     1
   8041   8052     1
   8042   8047     1
   8042   8048     1
   8042   8056     1
   8042   8057     1
   8043   8053     1
   8043   8054     1
   8044   8049     1
   8044   8047     1
   8044   8048     1
   8044   8052     1
   8045   8049     1
   8045   8047     1
   8045   8048     1
   8045   8052     1
   8047   8050     1
   8047   8051     1
   8048   8050     1
   8048   8051     1
   8053   8058     1
   8053   8056     1
   8053   8057     1
   8054   8058     1
   8054   8056     1
   8054   8057     1
   8056   8059     1
   8056   8060     1
   8057   8059     1
   8057   8060     1
   8062   8069     1
   8062   8070     1
   8063   8068     1
   8063   8066     1
   8063   8067     1
   8064   8068     1
   8064   8066     1
   8064   8067     1
   8066   8090     1
   8066   8071     1
   8066   8069     1
   8066   8070     1
   8067   8090     1
   8067   8071     1
   8067   8069     1
   8067   8070     1
   8068   8073     1
   8068   8074     1
   8068   8082     1
   8068   8083     1
   8069   8072     1
   8069   8081     1
   8070   8072     1
   8070   8081     1
   8071   8076     1
   8071   8077     1
   8071   8085     1
   8071   8086     1
   8072   8082     1
   8072   8083     1
   8073   8081     1
   8073   8078     1
   8073   8076     1
   8073   8077     1
   8074   8081     1
   8074   8078     1
   8074   8076     1
   8074   8077     1
   8076   8079     1
   8076   8080     1
   8077   8079     1
   8077   8080     1
   8082   8087     1
   8082   8085     1
   8082   8086     1
   8083   8087     1
   8083   8085     1
   8083   8086     1
   8085   8088     1
   8085   8089     1
   8086   8088     1
   8086   8089     1
   8091   8098     1
   8091   8099     1
   8092   8097     1
   8092   8095     1
   8092   8096     1
   8093   8097     1
   8093   8095     1
   8093   8096     1
   8095   8100     1
   8095   8098     1
   8095   8099     1
   8095   8119     1
   8096   8100     1
   8096   8098     1
   8096   8099     1
   8096   8119     1
   8097   8102     1
   8097   8103     1
   8097   8111     1
   8097   8112     1
   8098   8101     1
   8098   8110     1
   8099   8101     1
   8099   8110     1
   8100   8105     1
   8100   8106     1
   8100   8114     1
   8100   8115     1
   8101   8111     1
   8101   8112     1
   8102   8107     1
   8102   8105     1
   8102   8106     1
   8102   8110     1
   8103   8107     1
   8103   8105     1
   8103   8106     1
   8103   8110     1
   8105   8108     1
   8105   8109     1
   8106   8108     1
   8106   8109     1
   8111   8116     1
   8111   8114     1
   8111   8115     1
   8112   8116     1
   8112   8114     1
   8112   8115     1
   8114   8117     1
   8114   8118     1
   8115   8117     1
   8115   8118     1
   8120   8127     1
   8120   8128     1
   8121   8126     1
   8121   8124     1
   8121   8125     1
   8122   8126     1
   8122   8124     1
   8122   8125     1
   8124   8148     1
   8124   8129     1
   8124   8127     1
   8124   8128     1
   8125   8148     1
   8125   8129     1
   8125   8127     1
   8125   8128     1
   8126   8131     1
   8126   8132     1
   8126   8140     1
   8126   8141     1
   8127   8130     1
   8127   8139     1
   8128   8130     1
   8128   8139     1
   8129   8134     1
   8129   8135     1
   8129   8143     1
   8129   8144     1
   8130   8140     1
   8130   8141     1
   8131   8139     1
   8131   8136     1
   8131   8134     1
   8131   8135     1
   8132   8139     1
   8132   8136     1
   8132   8134     1
   8132   8135     1
   8134   8137     1
   8134   8138     1
   8135   8137     1
   8135   8138     1
   8140   8145     1
   8140   8143     1
   8140   8144     1
   8141   8145     1
   8141   8143     1
   8141   8144     1
   8143   8146     1
   8143   8147     1
   8144   8146     1
   8144   8147     1
   8149   8156     1
   8149   8157     1
   8150   8155     1
   8150   8153     1
   8150   8154     1
   8151   8155     1
   8151   8153     1
   8151   8154     1
   8153   8158     1
   8153   8156     1
   8153   8157     1
   8153   8177     1
   8154   8158     1
   8154   8156     1
   8154   8157     1
   8154   8177     1
   8155   8160     1
   8155   8161     1
   8155   8169     1
   8155   8170     1
   8156   8159     1
   8156   8168     1
   8157   8159     1
   8157   8168     1
   8158   8163     1
   8158   8164     1
   8158   8172     1
   8158   8173     1
   8159   8169     1
   8159   8170     1
   8160   8165     1
   8160   8163     1
   8160   8164     1
   8160   8168     1
   8161   8165     1
   8161   8163     1
   8161   8164     1
   8161   8168     1
   8163   8166     1
   8163   8167     1
   8164   8166     1
   8164   8167     1
   8169   8174     1
   8169   8172     1
   8169   8173     1
   8170   8174     1
   8170   8172     1
   8170   8173     1
   8172   8175     1
   8172   8176     1
   8173   8175     1
   8173   8176     1
   8178   8185     1
   8178   8186     1
   8179   8184     1
   8179   8182     1
   8179   8183     1
   8180   8184     1
   8180   8182     1
   8180   8183     1
   8182   8206     1
   8182   8187     1
   8182   8185     1
   8182   8186     1
   8183   8206     1
   8183   8187     1
   8183   8185     1
   8183   8186     1
   8184   8189     1
   8184   8190     1
   8184   8198     1
   8184   8199     1
   8185   8188     1
   8185   8197     1
   8186   8188     1
   8186   8197     1
   8187   8192     1
   8187   8193     1
   8187   8201     1
   8187   8202     1
   8188   8198     1
   8188   8199     1
   8189   8197     1
   8189   8194     1
   8189   8192     1
   8189   8193     1
   8190   8197     1
   8190   8194     1
   8190   8192     1
   8190   8193     1
   8192   8195     1
   8192   8196     1
   8193   8195     1
   8193   8196     1
   8198   8203     1
   8198   8201     1
   8198   8202     1
   8199   8203     1
   8199   8201     1
   8199   8202     1
   8201   8204     1
   8201   8205     1
   8202   8204     1
   8202   8205     1
   8207   8214     1
   8207   8215     1
   8208   8213     1
   8208   8211     1
   8208   8212     1
   8209   8213     1
   8209   8211     1
   8209   8212     1
   8211   8216     1
   8211   8214     1
   8211   8215     1
   8211   8235     1
   8212   8216     1
   8212   8214     1
   8212   8215     1
   8212   8235     1
   8213   8218     1
   8213   8219     1
   8213   8227     1
   8213   8228     1
   8214   8217     1
   8214   8226     1
   8215   8217     1
   8215   8226     1
   8216   8221     1
   8216   8222     1
   8216   8230     1
   8216   8231     1
   8217   8227     1
   8217   8228     1
   8218   8223     1
   8218   8221     1
   8218   8222     1
   8218   8226     1
   8219   8223     1
   8219   8221     1
   8219   8222     1
   8219   8226     1
   8221   8224     1
   8221   8225     1
   8222   8224     1
   8222   8225     1
   8227   8232     1
   8227   8230     1
   8227   8231     1
   8228   8232     1
   8228   8230     1
   8228   8231     1
   8230   8233     1
   8230   8234     1
   8231   8233     1
   8231   8234     1
   8236   8243     1
   8236   8244     1
   8237   8242     1
   8237   8240     1
   8237   8241     1
   8238   8242     1
   8238   8240     1
   8238   8241     1
   8240   8264     1
   8240   8245     1
   8240   8243     1
   8240   8244     1
   8241   8264     1
   8241   8245     1
   8241   8243     1
   8241   8244     1
   8242   8247     1
   8242   8248     1
   8242   8256     1
   8242   8257     1
   8243   8246     1
   8243   8255     1
   8244   8246     1
   8244   8255     1
   8245   8250     1
   8245   8251     1
   8245   8259     1
   8245   8260     1
   8246   8256     1
   8246   8257     1
   8247   8255     1
   8247   8252     1
   8247   8250     1
   8247   8251     1
   8248   8255     1
   8248   8252     1
   8248   8250     1
   8248   8251     1
   8250   8253     1
   8250   8254     1
   8251   8253     1
   8251   8254     1
   8256   8261     1
   8256   8259     1
   8256   8260     1
   8257   8261     1
   8257   8259     1
   8257   8260     1
   8259   8262     1
   8259   8263     1
   8260   8262     1
   8260   8263     1
   8265   8272     1
   8265   8273     1
   8266   8271     1
   8266   8269     1
   8266   8270     1
   8267   8271     1
   8267   8269     1
   8267   8270     1
   8269   8274     1
   8269   8272     1
   8269   8273     1
   8269   8293     1
   8270   8274     1
   8270   8272     1
   8270   8273     1
   8270   8293     1
   8271   8276     1
   8271   8277     1
   8271   8285     1
   8271   8286     1
   8272   8275     1
   8272   8284     1
   8273   8275     1
   8273   8284     1
   8274   8279     1
   8274   8280     1
   8274   8288     1
   8274   8289     1
   8275   8285     1
   8275   8286     1
   8276   8281     1
   8276   8279     1
   8276   8280     1
   8276   8284     1
   8277   8281     1
   8277   8279     1
   8277   8280     1
   8277   8284     1
   8279   8282     1
   8279   8283     1
   8280   8282     1
   8280   8283     1
   8285   8290     1
   8285   8288     1
   8285   8289     1
   8286   8290     1
   8286   8288     1
   8286   8289     1
   8288   8291     1
   8288   8292     1
   8289   8291     1
   8289   8292     1
   8294   8301     1
   8294   8302     1
   8295   8300     1
   8295   8298     1
   8295   8299     1
   8296   8300     1
   8296   8298     1
   8296   8299     1
   8298   8322     1
   8298   8303     1
   8298   8301     1
   8298   8302     1
   8299   8322     1
   8299   8303     1
   8299   8301     1
   8299   8302     1
   8300   8305     1
   8300   8306     1
   8300   8314     1
   8300   8315     1
   8301   8304     1
   8301   8313     1
   8302   8304     1
   8302   8313     1
   8303   8308     1
   8303   8309     1
   8303   8317     1
   8303   8318     1
   8304   8314     1
   8304   8315     1
   8305   8313     1
   8305   8310     1
   8305   8308     1
   8305   8309     1
   8306   8313     1
   8306   8310     1
   8306   8308     1
   8306   8309     1
   8308   8311     1
   8308   8312     1
   8309   8311     1
   8309   8312     1
   8314   8319     1
   8314   8317     1
   8314   8318     1
   8315   8319     1
   8315   8317     1
   8315   8318     1
   8317   8320     1
   8317   8321     1
   8318   8320     1
   8318   8321     1
   8323   8330     1
   8323   8331     1
   8324   8329     1
   8324   8327     1
   8324   8328     1
   8325   8329     1
   8325   8327     1
   8325   8328     1
   8327   8332     1
   8327   8330     1
   8327   8331     1
   8327   8351     1
   8328   8332     1
   8328   8330     1
   8328   8331     1
   8328   8351     1
   8329   8334     1
   8329   8335     1
   8329   8343     1
   8329   8344     1
   8330   8333     1
   8330   8342     1
   8331   8333     1
   8331   8342     1
   8332   8337     1
   8332   8338     1
   8332   8346     1
   8332   8347     1
   8333   8343     1
   8333   8344     1
   8334   8339     1
   8334   8337     1
   8334   8338     1
   8334   8342     1
   8335   8339     1
   8335   8337     1
   8335   8338     1
   8335   8342     1
   8337   8340     1
   8337   8341     1
   8338   8340     1
   8338   8341     1
   8343   8348     1
   8343   8346     1
   8343   8347     1
   8344   8348     1
   8344   8346     1
   8344   8347     1
   8346   8349     1
   8346   8350     1
   8347   8349     1
   8347   8350     1
   8352   8359     1
   8352   8360     1
   8353   8358     1
   8353   8356     1
   8353   8357     1
   8354   8358     1
   8354   8356     1
   8354   8357     1
   8356   8380     1
   8356   8361     1
   8356   8359     1
   8356   8360     1
   8357   8380     1
   8357   8361     1
   8357   8359     1
   8357   8360     1
   8358   8363     1
   8358   8364     1
   8358   8372     1
   8358   8373     1
   8359   8362     1
   8359   8371     1
   8360   8362     1
   8360   8371     1
   8361   8366     1
   8361   8367     1
   8361   8375     1
   8361   8376     1
   8362   8372     1
   8362   8373     1
   8363   8371     1
   8363   8368     1
   8363   8366     1
   8363   8367     1
   8364   8371     1
   8364   8368     1
   8364   8366     1
   8364   8367     1
   8366   8369     1
   8366   8370     1
   8367   8369     1
   8367   8370     1
   8372   8377     1
   8372   8375     1
   8372   8376     1
   8373   8377     1
   8373   8375     1
   8373   8376     1
   8375   8378     1
   8375   8379     1
   8376   8378     1
   8376   8379     1
   8381   8388     1
   8381   8389     1
   8382   8387     1
   8382   8385     1
   8382   8386     1
   8383   8387     1
   8383   8385     1
   8383   8386     1
   8385   8390     1
   8385   8388     1
   8385   8389     1
   8385   8409     1
   8386   8390     1
   8386   8388     1
   8386   8389     1
   8386   8409     1
   8387   8392     1
   8387   8393     1
   8387   8401     1
   8387   8402     1
   8388   8391     1
   8388   8400     1
   8389   8391     1
   8389   8400     1
   8390   8395     1
   8390   8396     1
   8390   8404     1
   8390   8405     1
   8391   8401     1
   8391   8402     1
   8392   8397     1
   8392   8395     1
   8392   8396     1
   8392   8400     1
   8393   8397     1
   8393   8395     1
   8393   8396     1
   8393   8400     1
   8395   8398     1
   8395   8399     1
   8396   8398     1
   8396   8399     1
   8401   8406     1
   8401   8404     1
   8401   8405     1
   8402   8406     1
   8402   8404     1
   8402   8405     1
   8404   8407     1
   8404   8408     1
   8405   8407     1
   8405   8408     1
   8410   8417     1
   8410   8418     1
   8411   8416     1
   8411   8414     1
   8411   8415     1
   8412   8416     1
   8412   8414     1
   8412   8415     1
   8414   8438     1
   8414   8419     1
   8414   8417     1
   8414   8418     1
   8415   8438     1
   8415   8419     1
   8415   8417     1
   8415   8418     1
   8416   8421     1
   8416   8422     1
   8416   8430     1
   8416   8431     1
   8417   8420     1
   8417   8429     1
   8418   8420     1
   8418   8429     1
   8419   8424     1
   8419   8425     1
   8419   8433     1
   8419   8434     1
   8420   8430     1
   8420   8431     1
   8421   8429     1
   8421   8426     1
   8421   8424     1
   8421   8425     1
   8422   8429     1
   8422   8426     1
   8422   8424     1
   8422   8425     1
   8424   8427     1
   8424   8428     1
   8425   8427     1
   8425   8428     1
   8430   8435     1
   8430   8433     1
   8430   8434     1
   8431   8435     1
   8431   8433     1
   8431   8434     1
   8433   8436     1
   8433   8437     1
   8434   8436     1
   8434   8437     1
   8439   8446     1
   8439   8447     1
   8440   8445     1
   8440   8443     1
   8440   8444     1
   8441   8445     1
   8441   8443     1
   8441   8444     1
   8443   8448     1
   8443   8446     1
   8443   8447     1
   8443   8467     1
   8444   8448     1
   8444   8446     1
   8444   8447     1
   8444   8467     1
   8445   8450     1
   8445   8451     1
   8445   8459     1
   8445   8460     1
   8446   8449     1
   8446   8458     1
   8447   8449     1
   8447   8458     1
   8448   8453     1
   8448   8454     1
   8448   8462     1
   8448   8463     1
   8449   8459     1
   8449   8460     1
   8450   8455     1
   8450   8453     1
   8450   8454     1
   8450   8458     1
   8451   8455     1
   8451   8453     1
   8451   8454     1
   8451   8458     1
   8453   8456     1
   8453   8457     1
   8454   8456     1
   8454   8457     1
   8459   8464     1
   8459   8462     1
   8459   8463     1
   8460   8464     1
   8460   8462     1
   8460   8463     1
   8462   8465     1
   8462   8466     1
   8463   8465     1
   8463   8466     1
   8468   8475     1
   8468   8476     1
   8469   8474     1
   8469   8472     1
   8469   8473     1
   8470   8474     1
   8470   8472     1
   8470   8473     1
   8472   8496     1
   8472   8477     1
   8472   8475     1
   8472   8476     1
   8473   8496     1
   8473   8477     1
   8473   8475     1
   8473   8476     1
   8474   8479     1
   8474   8480     1
   8474   8488     1
   8474   8489     1
   8475   8478     1
   8475   8487     1
   8476   8478     1
   8476   8487     1
   8477   8482     1
   8477   8483     1
   8477   8491     1
   8477   8492     1
   8478   8488     1
   8478   8489     1
   8479   8487     1
   8479   8484     1
   8479   8482     1
   8479   8483     1
   8480   8487     1
   8480   8484     1
   8480   8482     1
   8480   8483     1
   8482   8485     1
   8482   8486     1
   8483   8485     1
   8483   8486     1
   8488   8493     1
   8488   8491     1
   8488   8492     1
   8489   8493     1
   8489   8491     1
   8489   8492     1
   8491   8494     1
   8491   8495     1
   8492   8494     1
   8492   8495     1
   8497   8504     1
   8497   8505     1
   8498   8503     1
   8498   8501     1
   8498   8502     1
   8499   8503     1
   8499   8501     1
   8499   8502     1
   8501   8506     1
   8501   8504     1
   8501   8505     1
   8501   8525     1
   8502   8506     1
   8502   8504     1
   8502   8505     1
   8502   8525     1
   8503   8508     1
   8503   8509     1
   8503   8517     1
   8503   8518     1
   8504   8507     1
   8504   8516     1
   8505   8507     1
   8505   8516     1
   8506   8511     1
   8506   8512     1
   8506   8520     1
   8506   8521     1
   8507   8517     1
   8507   8518     1
   8508   8513     1
   8508   8511     1
   8508   8512     1
   8508   8516     1
   8509   8513     1
   8509   8511     1
   8509   8512     1
   8509   8516     1
   8511   8514     1
   8511   8515     1
   8512   8514     1
   8512   8515     1
   8517   8522     1
   8517   8520     1
   8517   8521     1
   8518   8522     1
   8518   8520     1
   8518   8521     1
   8520   8523     1
   8520   8524     1
   8521   8523     1
   8521   8524     1
   8526   8533     1
   8526   8534     1
   8527   8532     1
   8527   8530     1
   8527   8531     1
   8528   8532     1
   8528   8530     1
   8528   8531     1
   8530   8554     1
   8530   8535     1
   8530   8533     1
   8530   8534     1
   8531   8554     1
   8531   8535     1
   8531   8533     1
   8531   8534     1
   8532   8537     1
   8532   8538     1
   8532   8546     1
   8532   8547     1
   8533   8536     1
   8533   8545     1
   8534   8536     1
   8534   8545     1
   8535   8540     1
   8535   8541     1
   8535   8549     1
   8535   8550     1
   8536   8546     1
   8536   8547     1
   8537   8545     1
   8537   8542     1
   8537   8540     1
   8537   8541     1
   8538   8545     1
   8538   8542     1
   8538   8540     1
   8538   8541     1
   8540   8543     1
   8540   8544     1
   8541   8543     1
   8541   8544     1
   8546   8551     1
   8546   8549     1
   8546   8550     1
   8547   8551     1
   8547   8549     1
   8547   8550     1
   8549   8552     1
   8549   8553     1
   8550   8552     1
   8550   8553     1
   8555   8562     1
   8555   8563     1
   8556   8561     1
   8556   8559     1
   8556   8560     1
   8557   8561     1
   8557   8559     1
   8557   8560     1
   8559   8564     1
   8559   8562     1
   8559   8563     1
   8559   8583     1
   8560   8564     1
   8560   8562     1
   8560   8563     1
   8560   8583     1
   8561   8566     1
   8561   8567     1
   8561   8575     1
   8561   8576     1
   8562   8565     1
   8562   8574     1
   8563   8565     1
   8563   8574     1
   8564   8569     1
   8564   8570     1
   8564   8578     1
   8564   8579     1
   8565   8575     1
   8565   8576     1
   8566   8571     1
   8566   8569     1
   8566   8570     1
   8566   8574     1
   8567   8571     1
   8567   8569     1
   8567   8570     1
   8567   8574     1
   8569   8572     1
   8569   8573     1
   8570   8572     1
   8570   8573     1
   8575   8580     1
   8575   8578     1
   8575   8579     1
   8576   8580     1
   8576   8578     1
   8576   8579     1
   8578   8581     1
   8578   8582     1
   8579   8581     1
   8579   8582     1
   8584   8591     1
   8584   8592     1
   8585   8590     1
   8585   8588     1
   8585   8589     1
   8586   8590     1
   8586   8588     1
   8586   8589     1
   8588   8612     1
   8588   8593     1
   8588   8591     1
   8588   8592     1
   8589   8612     1
   8589   8593     1
   8589   8591     1
   8589   8592     1
   8590   8595     1
   8590   8596     1
   8590   8604     1
   8590   8605     1
   8591   8594     1
   8591   8603     1
   8592   8594     1
   8592   8603     1
   8593   8598     1
   8593   8599     1
   8593   8607     1
   8593   8608     1
   8594   8604     1
   8594   8605     1
   8595   8603     1
   8595   8600     1
   8595   8598     1
   8595   8599     1
   8596   8603     1
   8596   8600     1
   8596   8598     1
   8596   8599     1
   8598   8601     1
   8598   8602     1
   8599   8601     1
   8599   8602     1
   8604   8609     1
   8604   8607     1
   8604   8608     1
   8605   8609     1
   8605   8607     1
   8605   8608     1
   8607   8610     1
   8607   8611     1
   8608   8610     1
   8608   8611     1
   8613   8620     1
   8613   8621     1
   8614   8619     1
   8614   8617     1
   8614   8618     1
   8615   8619     1
   8615   8617     1
   8615   8618     1
   8617   8622     1
   8617   8620     1
   8617   8621     1
   8617   8641     1
   8618   8622     1
   8618   8620     1
   8618   8621     1
   8618   8641     1
   8619   8624     1
   8619   8625     1
   8619   8633     1
   8619   8634     1
   8620   8623     1
   8620   8632     1
   8621   8623     1
   8621   8632     1
   8622   8627     1
   8622   8628     1
   8622   8636     1
   8622   8637     1
   8623   8633     1
   8623   8634     1
   8624   8629     1
   8624   8627     1
   8624   8628     1
   8624   8632     1
   8625   8629     1
   8625   8627     1
   8625   8628     1
   8625   8632     1
   8627   8630     1
   8627   8631     1
   8628   8630     1
   8628   8631     1
   8633   8638     1
   8633   8636     1
   8633   8637     1
   8634   8638     1
   8634   8636     1
   8634   8637     1
   8636   8639     1
   8636   8640     1
   8637   8639     1
   8637   8640     1
   8642   8649     1
   8642   8650     1
   8643   8648     1
   8643   8646     1
   8643   8647     1
   8644   8648     1
   8644   8646     1
   8644   8647     1
   8646   8670     1
   8646   8651     1
   8646   8649     1
   8646   8650     1
   8647   8670     1
   8647   8651     1
   8647   8649     1
   8647   8650     1
   8648   8653     1
   8648   8654     1
   8648   8662     1
   8648   8663     1
   8649   8652     1
   8649   8661     1
   8650   8652     1
   8650   8661     1
   8651   8656     1
   8651   8657     1
   8651   8665     1
   8651   8666     1
   8652   8662     1
   8652   8663     1
   8653   8661     1
   8653   8658     1
   8653   8656     1
   8653   8657     1
   8654   8661     1
   8654   8658     1
   8654   8656     1
   8654   8657     1
   8656   8659     1
   8656   8660     1
   8657   8659     1
   8657   8660     1
   8662   8667     1
   8662   8665     1
   8662   8666     1
   8663   8667     1
   8663   8665     1
   8663   8666     1
   8665   8668     1
   8665   8669     1
   8666   8668     1
   8666   8669     1
   8671   8678     1
   8671   8679     1
   8672   8677     1
   8672   8675     1
   8672   8676     1
   8673   8677     1
   8673   8675     1
   8673   8676     1
   8675   8680     1
   8675   8678     1
   8675   8679     1
   8675   8699     1
   8676   8680     1
   8676   8678     1
   8676   8679     1
   8676   8699     1
   8677   8682     1
   8677   8683     1
   8677   8691     1
   8677   8692     1
   8678   8681     1
   8678   8690     1
   8679   8681     1
   8679   8690     1
   8680   8685     1
   8680   8686     1
   8680   8694     1
   8680   8695     1
   8681   8691     1
   8681   8692     1
   8682   8687     1
   8682   8685     1
   8682   8686     1
   8682   8690     1
   8683   8687     1
   8683   8685     1
   8683   8686     1
   8683   8690     1
   8685   8688     1
   8685   8689     1
   8686   8688     1
   8686   8689     1
   8691   8696     1
   8691   8694     1
   8691   8695     1
   8692   8696     1
   8692   8694     1
   8692   8695     1
   8694   8697     1
   8694   8698     1
   8695   8697     1
   8695   8698     1
   8700   8707     1
   8700   8708     1
   8701   8706     1
   8701   8704     1
   8701   8705     1
   8702   8706     1
   8702   8704     1
   8702   8705     1
   8704   8728     1
   8704   8709     1
   8704   8707     1
   8704   8708     1
   8705   8728     1
   8705   8709     1
   8705   8707     1
   8705   8708     1
   8706   8711     1
   8706   8712     1
   8706   8720     1
   8706   8721     1
   8707   8710     1
   8707   8719     1
   8708   8710     1
   8708   8719     1
   8709   8714     1
   8709   8715     1
   8709   8723     1
   8709   8724     1
   8710   8720     1
   8710   8721     1
   8711   8719     1
   8711   8716     1
   8711   8714     1
   8711   8715     1
   8712   8719     1
   8712   8716     1
   8712   8714     1
   8712   8715     1
   8714   8717     1
   8714   8718     1
   8715   8717     1
   8715   8718     1
   8720   8725     1
   8720   8723     1
   8720   8724     1
   8721   8725     1
   8721   8723     1
   8721   8724     1
   8723   8726     1
   8723   8727     1
   8724   8726     1
   8724   8727     1
   8729   8736     1
   8729   8737     1
   8730   8735     1
   8730   8733     1
   8730   8734     1
   8731   8735     1
   8731   8733     1
   8731   8734     1
   8733   8738     1
   8733   8736     1
   8733   8737     1
   8733   8757     1
   8734   8738     1
   8734   8736     1
   8734   8737     1
   8734   8757     1
   8735   8740     1
   8735   8741     1
   8735   8749     1
   8735   8750     1
   8736   8739     1
   8736   8748     1
   8737   8739     1
   8737   8748     1
   8738   8743     1
   8738   8744     1
   8738   8752     1
   8738   8753     1
   8739   8749     1
   8739   8750     1
   8740   8745     1
   8740   8743     1
   8740   8744     1
   8740   8748     1
   8741   8745     1
   8741   8743     1
   8741   8744     1
   8741   8748     1
   8743   8746     1
   8743   8747     1
   8744   8746     1
   8744   8747     1
   8749   8754     1
   8749   8752     1
   8749   8753     1
   8750   8754     1
   8750   8752     1
   8750   8753     1
   8752   8755     1
   8752   8756     1
   8753   8755     1
   8753   8756     1
   8758   8765     1
   8758   8766     1
   8759   8764     1
   8759   8762     1
   8759   8763     1
   8760   8764     1
   8760   8762     1
   8760   8763     1
   8762   8786     1
   8762   8767     1
   8762   8765     1
   8762   8766     1
   8763   8786     1
   8763   8767     1
   8763   8765     1
   8763   8766     1
   8764   8769     1
   8764   8770     1
   8764   8778     1
   8764   8779     1
   8765   8768     1
   8765   8777     1
   8766   8768     1
   8766   8777     1
   8767   8772     1
   8767   8773     1
   8767   8781     1
   8767   8782     1
   8768   8778     1
   8768   8779     1
   8769   8777     1
   8769   8774     1
   8769   8772     1
   8769   8773     1
   8770   8777     1
   8770   8774     1
   8770   8772     1
   8770   8773     1
   8772   8775     1
   8772   8776     1
   8773   8775     1
   8773   8776     1
   8778   8783     1
   8778   8781     1
   8778   8782     1
   8779   8783     1
   8779   8781     1
   8779   8782     1
   8781   8784     1
   8781   8785     1
   8782   8784     1
   8782   8785     1
   8787   8794     1
   8787   8795     1
   8788   8793     1
   8788   8791     1
   8788   8792     1
   8789   8793     1
   8789   8791     1
   8789   8792     1
   8791   8796     1
   8791   8794     1
   8791   8795     1
   8791   8815     1
   8792   8796     1
   8792   8794     1
   8792   8795     1
   8792   8815     1
   8793   8798     1
   8793   8799     1
   8793   8807     1
   8793   8808     1
   8794   8797     1
   8794   8806     1
   8795   8797     1
   8795   8806     1
   8796   8801     1
   8796   8802     1
   8796   8810     1
   8796   8811     1
   8797   8807     1
   8797   8808     1
   8798   8803     1
   8798   8801     1
   8798   8802     1
   8798   8806     1
   8799   8803     1
   8799   8801     1
   8799   8802     1
   8799   8806     1
   8801   8804     1
   8801   8805     1
   8802   8804     1
   8802   8805     1
   8807   8812     1
   8807   8810     1
   8807   8811     1
   8808   8812     1
   8808   8810     1
   8808   8811     1
   8810   8813     1
   8810   8814     1
   8811   8813     1
   8811   8814     1
   8816   8823     1
   8816   8824     1
   8817   8822     1
   8817   8820     1
   8817   8821     1
   8818   8822     1
   8818   8820     1
   8818   8821     1
   8820   8844     1
   8820   8825     1
   8820   8823     1
   8820   8824     1
   8821   8844     1
   8821   8825     1
   8821   8823     1
   8821   8824     1
   8822   8827     1
   8822   8828     1
   8822   8836     1
   8822   8837     1
   8823   8826     1
   8823   8835     1
   8824   8826     1
   8824   8835     1
   8825   8830     1
   8825   8831     1
   8825   8839     1
   8825   8840     1
   8826   8836     1
   8826   8837     1
   8827   8835     1
   8827   8832     1
   8827   8830     1
   8827   8831     1
   8828   8835     1
   8828   8832     1
   8828   8830     1
   8828   8831     1
   8830   8833     1
   8830   8834     1
   8831   8833     1
   8831   8834     1
   8836   8841     1
   8836   8839     1
   8836   8840     1
   8837   8841     1
   8837   8839     1
   8837   8840     1
   8839   8842     1
   8839   8843     1
   8840   8842     1
   8840   8843     1
   8845   8852     1
   8845   8853     1
   8846   8851     1
   8846   8849     1
   8846   8850     1
   8847   8851     1
   8847   8849     1
   8847   8850     1
   8849   8854     1
   8849   8852     1
   8849   8853     1
   8849   8873     1
   8850   8854     1
   8850   8852     1
   8850   8853     1
   8850   8873     1
   8851   8856     1
   8851   8857     1
   8851   8865     1
   8851   8866     1
   8852   8855     1
   8852   8864     1
   8853   8855     1
   8853   8864     1
   8854   8859     1
   8854   8860     1
   8854   8868     1
   8854   8869     1
   8855   8865     1
   8855   8866     1
   8856   8861     1
   8856   8859     1
   8856   8860     1
   8856   8864     1
   8857   8861     1
   8857   8859     1
   8857   8860     1
   8857   8864     1
   8859   8862     1
   8859   8863     1
   8860   8862     1
   8860   8863     1
   8865   8870     1
   8865   8868     1
   8865   8869     1
   8866   8870     1
   8866   8868     1
   8866   8869     1
   8868   8871     1
   8868   8872     1
   8869   8871     1
   8869   8872     1
   8874   8881     1
   8874   8882     1
   8875   8880     1
   8875   8878     1
   8875   8879     1
   8876   8880     1
   8876   8878     1
   8876   8879     1
   8878   8902     1
   8878   8883     1
   8878   8881     1
   8878   8882     1
   8879   8902     1
   8879   8883     1
   8879   8881     1
   8879   8882     1
   8880   8885     1
   8880   8886     1
   8880   8894     1
   8880   8895     1
   8881   8884     1
   8881   8893     1
   8882   8884     1
   8882   8893     1
   8883   8888     1
   8883   8889     1
   8883   8897     1
   8883   8898     1
   8884   8894     1
   8884   8895     1
   8885   8893     1
   8885   8890     1
   8885   8888     1
   8885   8889     1
   8886   8893     1
   8886   8890     1
   8886   8888     1
   8886   8889     1
   8888   8891     1
   8888   8892     1
   8889   8891     1
   8889   8892     1
   8894   8899     1
   8894   8897     1
   8894   8898     1
   8895   8899     1
   8895   8897     1
   8895   8898     1
   8897   8900     1
   8897   8901     1
   8898   8900     1
   8898   8901     1
   8903   8910     1
   8903   8911     1
   8904   8909     1
   8904   8907     1
   8904   8908     1
   8905   8909     1
   8905   8907     1
   8905   8908     1
   8907   8912     1
   8907   8910     1
   8907   8911     1
   8907   8931     1
   8908   8912     1
   8908   8910     1
   8908   8911     1
   8908   8931     1
   8909   8914     1
   8909   8915     1
   8909   8923     1
   8909   8924     1
   8910   8913     1
   8910   8922     1
   8911   8913     1
   8911   8922     1
   8912   8917     1
   8912   8918     1
   8912   8926     1
   8912   8927     1
   8913   8923     1
   8913   8924     1
   8914   8919     1
   8914   8917     1
   8914   8918     1
   8914   8922     1
   8915   8919     1
   8915   8917     1
   8915   8918     1
   8915   8922     1
   8917   8920     1
   8917   8921     1
   8918   8920     1
   8918   8921     1
   8923   8928     1
   8923   8926     1
   8923   8927     1
   8924   8928     1
   8924   8926     1
   8924   8927     1
   8926   8929     1
   8926   8930     1
   8927   8929     1
   8927   8930     1
   8932   8939     1
   8932   8940     1
   8933   8938     1
   8933   8936     1
   8933   8937     1
   8934   8938     1
   8934   8936     1
   8934   8937     1
   8936   8960     1
   8936   8941     1
   8936   8939     1
   8936   8940     1
   8937   8960     1
   8937   8941     1
   8937   8939     1
   8937   8940     1
   8938   8943     1
   8938   8944     1
   8938   8952     1
   8938   8953     1
   8939   8942     1
   8939   8951     1
   8940   8942     1
   8940   8951     1
   8941   8946     1
   8941   8947     1
   8941   8955     1
   8941   8956     1
   8942   8952     1
   8942   8953     1
   8943   8951     1
   8943   8948     1
   8943   8946     1
   8943   8947     1
   8944   8951     1
   8944   8948     1
   8944   8946     1
   8944   8947     1
   8946   8949     1
   8946   8950     1
   8947   8949     1
   8947   8950     1
   8952   8957     1
   8952   8955     1
   8952   8956     1
   8953   8957     1
   8953   8955     1
   8953   8956     1
   8955   8958     1
   8955   8959     1
   8956   8958     1
   8956   8959     1
   8961   8968     1
   8961   8969     1
   8962   8967     1
   8962   8965     1
   8962   8966     1
   8963   8967     1
   8963   8965     1
   8963   8966     1
   8965   8970     1
   8965   8968     1
   8965   8969     1
   8965   8989     1
   8966   8970     1
   8966   8968     1
   8966   8969     1
   8966   8989     1
   8967   8972     1
   8967   8973     1
   8967   8981     1
   8967   8982     1
   8968   8971     1
   8968   8980     1
   8969   8971     1
   8969   8980     1
   8970   8975     1
   8970   8976     1
   8970   8984     1
   8970   8985     1
   8971   8981     1
   8971   8982     1
   8972   8977     1
   8972   8975     1
   8972   8976     1
   8972   8980     1
   8973   8977     1
   8973   8975     1
   8973   8976     1
   8973   8980     1
   8975   8978     1
   8975   8979     1
   8976   8978     1
   8976   8979     1
   8981   8986     1
   8981   8984     1
   8981   8985     1
   8982   8986     1
   8982   8984     1
   8982   8985     1
   8984   8987     1
   8984   8988     1
   8985   8987     1
   8985   8988     1
   8990   8997     1
   8990   8998     1
   8991   8996     1
   8991   8994     1
   8991   8995     1
   8992   8996     1
   8992   8994     1
   8992   8995     1
   8994   9018     1
   8994   8999     1
   8994   8997     1
   8994   8998     1
   8995   9018     1
   8995   8999     1
   8995   8997     1
   8995   8998     1
   8996   9001     1
   8996   9002     1
   8996   9010     1
   8996   9011     1
   8997   9000     1
   8997   9009     1
   8998   9000     1
   8998   9009     1
   8999   9004     1
   8999   9005     1
   8999   9013     1
   8999   9014     1
   9000   9010     1
   9000   9011     1
   9001   9009     1
   9001   9006     1
   9001   9004     1
   9001   9005     1
   9002   9009     1
   9002   9006     1
   9002   9004     1
   9002   9005     1
   9004   9007     1
   9004   9008     1
   9005   9007     1
   9005   9008     1
   9010   9015     1
   9010   9013     1
   9010   9014     1
   9011   9015     1
   9011   9013     1
   9011   9014     1
   9013   9016     1
   9013   9017     1
   9014   9016     1
   9014   9017     1
   9019   9026     1
   9019   9027     1
   9020   9025     1
   9020   9023     1
   9020   9024     1
   9021   9025     1
   9021   9023     1
   9021   9024     1
   9023   9028     1
   9023   9026     1
   9023   9027     1
   9023   9047     1
   9024   9028     1
   9024   9026     1
   9024   9027     1
   9024   9047     1
   9025   9030     1
   9025   9031     1
   9025   9039     1
   9025   9040     1
   9026   9029     1
   9026   9038     1
   9027   9029     1
   9027   9038     1
   9028   9033     1
   9028   9034     1
   9028   9042     1
   9028   9043     1
   9029   9039     1
   9029   9040     1
   9030   9035     1
   9030   9033     1
   9030   9034     1
   9030   9038     1
   9031   9035     1
   9031   9033     1
   9031   9034     1
   9031   9038     1
   9033   9036     1
   9033   9037     1
   9034   9036     1
   9034   9037     1
   9039   9044     1
   9039   9042     1
   9039   9043     1
   9040   9044     1
   9040   9042     1
   9040   9043     1
   9042   9045     1
   9042   9046     1
   9043   9045     1
   9043   9046     1
   9048   9055     1
   9048   9056     1
   9049   9054     1
   9049   9052     1
   9049   9053     1
   9050   9054     1
   9050   9052     1
   9050   9053     1
   9052   9076     1
   9052   9057     1
   9052   9055     1
   9052   9056     1
   9053   9076     1
   9053   9057     1
   9053   9055     1
   9053   9056     1
   9054   9059     1
   9054   9060     1
   9054   9068     1
   9054   9069     1
   9055   9058     1
   9055   9067     1
   9056   9058     1
   9056   9067     1
   9057   9062     1
   9057   9063     1
   9057   9071     1
   9057   9072     1
   9058   9068     1
   9058   9069     1
   9059   9067     1
   9059   9064     1
   9059   9062     1
   9059   9063     1
   9060   9067     1
   9060   9064     1
   9060   9062     1
   9060   9063     1
   9062   9065     1
   9062   9066     1
   9063   9065     1
   9063   9066     1
   9068   9073     1
   9068   9071     1
   9068   9072     1
   9069   9073     1
   9069   9071     1
   9069   9072     1
   9071   9074     1
   9071   9075     1
   9072   9074     1
   9072   9075     1
   9077   9084     1
   9077   9085     1
   9078   9083     1
   9078   9081     1
   9078   9082     1
   9079   9083     1
   9079   9081     1
   9079   9082     1
   9081   9086     1
   9081   9084     1
   9081   9085     1
   9081   9105     1
   9082   9086     1
   9082   9084     1
   9082   9085     1
   9082   9105     1
   9083   9088     1
   9083   9089     1
   9083   9097     1
   9083   9098     1
   9084   9087     1
   9084   9096     1
   9085   9087     1
   9085   9096     1
   9086   9091     1
   9086   9092     1
   9086   9100     1
   9086   9101     1
   9087   9097     1
   9087   9098     1
   9088   9093     1
   9088   9091     1
   9088   9092     1
   9088   9096     1
   9089   9093     1
   9089   9091     1
   9089   9092     1
   9089   9096     1
   9091   9094     1
   9091   9095     1
   9092   9094     1
   9092   9095     1
   9097   9102     1
   9097   9100     1
   9097   9101     1
   9098   9102     1
   9098   9100     1
   9098   9101     1
   9100   9103     1
   9100   9104     1
   9101   9103     1
   9101   9104     1
   9106   9113     1
   9106   9114     1
   9107   9112     1
   9107   9110     1
   9107   9111     1
   9108   9112     1
   9108   9110     1
   9108   9111     1
   9110   9134     1
   9110   9115     1
   9110   9113     1
   9110   9114     1
   9111   9134     1
   9111   9115     1
   9111   9113     1
   9111   9114     1
   9112   9117     1
   9112   9118     1
   9112   9126     1
   9112   9127     1
   9113   9116     1
   9113   9125     1
   9114   9116     1
   9114   9125     1
   9115   9120     1
   9115   9121     1
   9115   9129     1
   9115   9130     1
   9116   9126     1
   9116   9127     1
   9117   9125     1
   9117   9122     1
   9117   9120     1
   9117   9121     1
   9118   9125     1
   9118   9122     1
   9118   9120     1
   9118   9121     1
   9120   9123     1
   9120   9124     1
   9121   9123     1
   9121   9124     1
   9126   9131     1
   9126   9129     1
   9126   9130     1
   9127   9131     1
   9127   9129     1
   9127   9130     1
   9129   9132     1
   9129   9133     1
   9130   9132     1
   9130   9133     1
   9135   9142     1
   9135   9143     1
   9136   9141     1
   9136   9139     1
   9136   9140     1
   9137   9141     1
   9137   9139     1
   9137   9140     1
   9139   9144     1
   9139   9142     1
   9139   9143     1
   9139   9163     1
   9140   9144     1
   9140   9142     1
   9140   9143     1
   9140   9163     1
   9141   9146     1
   9141   9147     1
   9141   9155     1
   9141   9156     1
   9142   9145     1
   9142   9154     1
   9143   9145     1
   9143   9154     1
   9144   9149     1
   9144   9150     1
   9144   9158     1
   9144   9159     1
   9145   9155     1
   9145   9156     1
   9146   9151     1
   9146   9149     1
   9146   9150     1
   9146   9154     1
   9147   9151     1
   9147   9149     1
   9147   9150     1
   9147   9154     1
   9149   9152     1
   9149   9153     1
   9150   9152     1
   9150   9153     1
   9155   9160     1
   9155   9158     1
   9155   9159     1
   9156   9160     1
   9156   9158     1
   9156   9159     1
   9158   9161     1
   9158   9162     1
   9159   9161     1
   9159   9162     1
   9164   9171     1
   9164   9172     1
   9165   9170     1
   9165   9168     1
   9165   9169     1
   9166   9170     1
   9166   9168     1
   9166   9169     1
   9168   9192     1
   9168   9173     1
   9168   9171     1
   9168   9172     1
   9169   9192     1
   9169   9173     1
   9169   9171     1
   9169   9172     1
   9170   9175     1
   9170   9176     1
   9170   9184     1
   9170   9185     1
   9171   9174     1
   9171   9183     1
   9172   9174     1
   9172   9183     1
   9173   9178     1
   9173   9179     1
   9173   9187     1
   9173   9188     1
   9174   9184     1
   9174   9185     1
   9175   9183     1
   9175   9180     1
   9175   9178     1
   9175   9179     1
   9176   9183     1
   9176   9180     1
   9176   9178     1
   9176   9179     1
   9178   9181     1
   9178   9182     1
   9179   9181     1
   9179   9182     1
   9184   9189     1
   9184   9187     1
   9184   9188     1
   9185   9189     1
   9185   9187     1
   9185   9188     1
   9187   9190     1
   9187   9191     1
   9188   9190     1
   9188   9191     1
   9193   9200     1
   9193   9201     1
   9194   9199     1
   9194   9197     1
   9194   9198     1
   9195   9199     1
   9195   9197     1
   9195   9198     1
   9197   9202     1
   9197   9200     1
   9197   9201     1
   9197   9221     1
   9198   9202     1
   9198   9200     1
   9198   9201     1
   9198   9221     1
   9199   9204     1
   9199   9205     1
   9199   9213     1
   9199   9214     1
   9200   9203     1
   9200   9212     1
   9201   9203     1
   9201   9212     1
   9202   9207     1
   9202   9208     1
   9202   9216     1
   9202   9217     1
   9203   9213     1
   9203   9214     1
   9204   9209     1
   9204   9207     1
   9204   9208     1
   9204   9212     1
   9205   9209     1
   9205   9207     1
   9205   9208     1
   9205   9212     1
   9207   9210     1
   9207   9211     1
   9208   9210     1
   9208   9211     1
   9213   9218     1
   9213   9216     1
   9213   9217     1
   9214   9218     1
   9214   9216     1
   9214   9217     1
   9216   9219     1
   9216   9220     1
   9217   9219     1
   9217   9220     1
   9222   9229     1
   9222   9230     1
   9223   9228     1
   9223   9226     1
   9223   9227     1
   9224   9228     1
   9224   9226     1
   9224   9227     1
   9226   9250     1
   9226   9231     1
   9226   9229     1
   9226   9230     1
   9227   9250     1
   9227   9231     1
   9227   9229     1
   9227   9230     1
   9228   9233     1
   9228   9234     1
   9228   9242     1
   9228   9243     1
   9229   9232     1
   9229   9241     1
   9230   9232     1
   9230   9241     1
   9231   9236     1
   9231   9237     1
   9231   9245     1
   9231   9246     1
   9232   9242     1
   9232   9243     1
   9233   9241     1
   9233   9238     1
   9233   9236     1
   9233   9237     1
   9234   9241     1
   9234   9238     1
   9234   9236     1
   9234   9237     1
   9236   9239     1
   9236   9240     1
   9237   9239     1
   9237   9240     1
   9242   9247     1
   9242   9245     1
   9242   9246     1
   9243   9247     1
   9243   9245     1
   9243   9246     1
   9245   9248     1
   9245   9249     1
   9246   9248     1
   9246   9249     1
   9251   9258     1
   9251   9259     1
   9252   9257     1
   9252   9255     1
   9252   9256     1
   9253   9257     1
   9253   9255     1
   9253   9256     1
   9255   9260     1
   9255   9258     1
   9255   9259     1
   9255   9279     1
   9256   9260     1
   9256   9258     1
   9256   9259     1
   9256   9279     1
   9257   9262     1
   9257   9263     1
   9257   9271     1
   9257   9272     1
   9258   9261     1
   9258   9270     1
   9259   9261     1
   9259   9270     1
   9260   9265     1
   9260   9266     1
   9260   9274     1
   9260   9275     1
   9261   9271     1
   9261   9272     1
   9262   9267     1
   9262   9265     1
   9262   9266     1
   9262   9270     1
   9263   9267     1
   9263   9265     1
   9263   9266     1
   9263   9270     1
   9265   9268     1
   9265   9269     1
   9266   9268     1
   9266   9269     1
   9271   9276     1
   9271   9274     1
   9271   9275     1
   9272   9276     1
   9272   9274     1
   9272   9275     1
   9274   9277     1
   9274   9278     1
   9275   9277     1
   9275   9278     1
   9280   9287     1
   9280   9288     1
   9281   9286     1
   9281   9284     1
   9281   9285     1
   9282   9286     1
   9282   9284     1
   9282   9285     1
   9284   9308     1
   9284   9289     1
   9284   9287     1
   9284   9288     1
   9285   9308     1
   9285   9289     1
   9285   9287     1
   9285   9288     1
   9286   9291     1
   9286   9292     1
   9286   9300     1
   9286   9301     1
   9287   9290     1
   9287   9299     1
   9288   9290     1
   9288   9299     1
   9289   9294     1
   9289   9295     1
   9289   9303     1
   9289   9304     1
   9290   9300     1
   9290   9301     1
   9291   9299     1
   9291   9296     1
   9291   9294     1
   9291   9295     1
   9292   9299     1
   9292   9296     1
   9292   9294     1
   9292   9295     1
   9294   9297     1
   9294   9298     1
   9295   9297     1
   9295   9298     1
   9300   9305     1
   9300   9303     1
   9300   9304     1
   9301   9305     1
   9301   9303     1
   9301   9304     1
   9303   9306     1
   9303   9307     1
   9304   9306     1
   9304   9307     1
   9309   9316     1
   9309   9317     1
   9310   9315     1
   9310   9313     1
   9310   9314     1
   9311   9315     1
   9311   9313     1
   9311   9314     1
   9313   9318     1
   9313   9316     1
   9313   9317     1
   9313   9337     1
   9314   9318     1
   9314   9316     1
   9314   9317     1
   9314   9337     1
   9315   9320     1
   9315   9321     1
   9315   9329     1
   9315   9330     1
   9316   9319     1
   9316   9328     1
   9317   9319     1
   9317   9328     1
   9318   9323     1
   9318   9324     1
   9318   9332     1
   9318   9333     1
   9319   9329     1
   9319   9330     1
   9320   9325     1
   9320   9323     1
   9320   9324     1
   9320   9328     1
   9321   9325     1
   9321   9323     1
   9321   9324     1
   9321   9328     1
   9323   9326     1
   9323   9327     1
   9324   9326     1
   9324   9327     1
   9329   9334     1
   9329   9332     1
   9329   9333     1
   9330   9334     1
   9330   9332     1
   9330   9333     1
   9332   9335     1
   9332   9336     1
   9333   9335     1
   9333   9336     1
   9338   9345     1
   9338   9346     1
   9339   9344     1
   9339   9342     1
   9339   9343     1
   9340   9344     1
   9340   9342     1
   9340   9343     1
   9342   9366     1
   9342   9347     1
   9342   9345     1
   9342   9346     1
   9343   9366     1
   9343   9347     1
   9343   9345     1
   9343   9346     1
   9344   9349     1
   9344   9350     1
   9344   9358     1
   9344   9359     1
   9345   9348     1
   9345   9357     1
   9346   9348     1
   9346   9357     1
   9347   9352     1
   9347   9353     1
   9347   9361     1
   9347   9362     1
   9348   9358     1
   9348   9359     1
   9349   9357     1
   9349   9354     1
   9349   9352     1
   9349   9353     1
   9350   9357     1
   9350   9354     1
   9350   9352     1
   9350   9353     1
   9352   9355     1
   9352   9356     1
   9353   9355     1
   9353   9356     1
   9358   9363     1
   9358   9361     1
   9358   9362     1
   9359   9363     1
   9359   9361     1
   9359   9362     1
   9361   9364     1
   9361   9365     1
   9362   9364     1
   9362   9365     1
   9367   9374     1
   9367   9375     1
   9368   9373     1
   9368   9371     1
   9368   9372     1
   9369   9373     1
   9369   9371     1
   9369   9372     1
   9371   9376     1
   9371   9374     1
   9371   9375     1
   9371   9395     1
   9372   9376     1
   9372   9374     1
   9372   9375     1
   9372   9395     1
   9373   9378     1
   9373   9379     1
   9373   9387     1
   9373   9388     1
   9374   9377     1
   9374   9386     1
   9375   9377     1
   9375   9386     1
   9376   9381     1
   9376   9382     1
   9376   9390     1
   9376   9391     1
   9377   9387     1
   9377   9388     1
   9378   9383     1
   9378   9381     1
   9378   9382     1
   9378   9386     1
   9379   9383     1
   9379   9381     1
   9379   9382     1
   9379   9386     1
   9381   9384     1
   9381   9385     1
   9382   9384     1
   9382   9385     1
   9387   9392     1
   9387   9390     1
   9387   9391     1
   9388   9392     1
   9388   9390     1
   9388   9391     1
   9390   9393     1
   9390   9394     1
   9391   9393     1
   9391   9394     1
   9396   9403     1
   9396   9404     1
   9397   9402     1
   9397   9400     1
   9397   9401     1
   9398   9402     1
   9398   9400     1
   9398   9401     1
   9400   9424     1
   9400   9405     1
   9400   9403     1
   9400   9404     1
   9401   9424     1
   9401   9405     1
   9401   9403     1
   9401   9404     1
   9402   9407     1
   9402   9408     1
   9402   9416     1
   9402   9417     1
   9403   9406     1
   9403   9415     1
   9404   9406     1
   9404   9415     1
   9405   9410     1
   9405   9411     1
   9405   9419     1
   9405   9420     1
   9406   9416     1
   9406   9417     1
   9407   9415     1
   9407   9412     1
   9407   9410     1
   9407   9411     1
   9408   9415     1
   9408   9412     1
   9408   9410     1
   9408   9411     1
   9410   9413     1
   9410   9414     1
   9411   9413     1
   9411   9414     1
   9416   9421     1
   9416   9419     1
   9416   9420     1
   9417   9421     1
   9417   9419     1
   9417   9420     1
   9419   9422     1
   9419   9423     1
   9420   9422     1
   9420   9423     1
   9425   9432     1
   9425   9433     1
   9426   9431     1
   9426   9429     1
   9426   9430     1
   9427   9431     1
   9427   9429     1
   9427   9430     1
   9429   9434     1
   9429   9432     1
   9429   9433     1
   9429   9453     1
   9430   9434     1
   9430   9432     1
   9430   9433     1
   9430   9453     1
   9431   9436     1
   9431   9437     1
   9431   9445     1
   9431   9446     1
   9432   9435     1
   9432   9444     1
   9433   9435     1
   9433   9444     1
   9434   9439     1
   9434   9440     1
   9434   9448     1
   9434   9449     1
   9435   9445     1
   9435   9446     1
   9436   9441     1
   9436   9439     1
   9436   9440     1
   9436   9444     1
   9437   9441     1
   9437   9439     1
   9437   9440     1
   9437   9444     1
   9439   9442     1
   9439   9443     1
   9440   9442     1
   9440   9443     1
   9445   9450     1
   9445   9448     1
   9445   9449     1
   9446   9450     1
   9446   9448     1
   9446   9449     1
   9448   9451     1
   9448   9452     1
   9449   9451     1
   9449   9452     1
   9454   9461     1
   9454   9462     1
   9455   9460     1
   9455   9458     1
   9455   9459     1
   9456   9460     1
   9456   9458     1
   9456   9459     1
   9458   9482     1
   9458   9463     1
   9458   9461     1
   9458   9462     1
   9459   9482     1
   9459   9463     1
   9459   9461     1
   9459   9462     1
   9460   9465     1
   9460   9466     1
   9460   9474     1
   9460   9475     1
   9461   9464     1
   9461   9473     1
   9462   9464     1
   9462   9473     1
   9463   9468     1
   9463   9469     1
   9463   9477     1
   9463   9478     1
   9464   9474     1
   9464   9475     1
   9465   9473     1
   9465   9470     1
   9465   9468     1
   9465   9469     1
   9466   9473     1
   9466   9470     1
   9466   9468     1
   9466   9469     1
   9468   9471     1
   9468   9472     1
   9469   9471     1
   9469   9472     1
   9474   9479     1
   9474   9477     1
   9474   9478     1
   9475   9479     1
   9475   9477     1
   9475   9478     1
   9477   9480     1
   9477   9481     1
   9478   9480     1
   9478   9481     1
   9483   9490     1
   9483   9491     1
   9484   9489     1
   9484   9487     1
   9484   9488     1
   9485   9489     1
   9485   9487     1
   9485   9488     1
   9487   9492     1
   9487   9490     1
   9487   9491     1
   9487   9511     1
   9488   9492     1
   9488   9490     1
   9488   9491     1
   9488   9511     1
   9489   9494     1
   9489   9495     1
   9489   9503     1
   9489   9504     1
   9490   9493     1
   9490   9502     1
   9491   9493     1
   9491   9502     1
   9492   9497     1
   9492   9498     1
   9492   9506     1
   9492   9507     1
   9493   9503     1
   9493   9504     1
   9494   9499     1
   9494   9497     1
   9494   9498     1
   9494   9502     1
   9495   9499     1
   9495   9497     1
   9495   9498     1
   9495   9502     1
   9497   9500     1
   9497   9501     1
   9498   9500     1
   9498   9501     1
   9503   9508     1
   9503   9506     1
   9503   9507     1
   9504   9508     1
   9504   9506     1
   9504   9507     1
   9506   9509     1
   9506   9510     1
   9507   9509     1
   9507   9510     1
   9512   9519     1
   9512   9520     1
   9513   9518     1
   9513   9516     1
   9513   9517     1
   9514   9518     1
   9514   9516     1
   9514   9517     1
   9516   9540     1
   9516   9521     1
   9516   9519     1
   9516   9520     1
   9517   9540     1
   9517   9521     1
   9517   9519     1
   9517   9520     1
   9518   9523     1
   9518   9524     1
   9518   9532     1
   9518   9533     1
   9519   9522     1
   9519   9531     1
   9520   9522     1
   9520   9531     1
   9521   9526     1
   9521   9527     1
   9521   9535     1
   9521   9536     1
   9522   9532     1
   9522   9533     1
   9523   9531     1
   9523   9528     1
   9523   9526     1
   9523   9527     1
   9524   9531     1
   9524   9528     1
   9524   9526     1
   9524   9527     1
   9526   9529     1
   9526   9530     1
   9527   9529     1
   9527   9530     1
   9532   9537     1
   9532   9535     1
   9532   9536     1
   9533   9537     1
   9533   9535     1
   9533   9536     1
   9535   9538     1
   9535   9539     1
   9536   9538     1
   9536   9539     1
   9541   9548     1
   9541   9549     1
   9542   9547     1
   9542   9545     1
   9542   9546     1
   9543   9547     1
   9543   9545     1
   9543   9546     1
   9545   9550     1
   9545   9548     1
   9545   9549     1
   9545   9569     1
   9546   9550     1
   9546   9548     1
   9546   9549     1
   9546   9569     1
   9547   9552     1
   9547   9553     1
   9547   9561     1
   9547   9562     1
   9548   9551     1
   9548   9560     1
   9549   9551     1
   9549   9560     1
   9550   9555     1
   9550   9556     1
   9550   9564     1
   9550   9565     1
   9551   9561     1
   9551   9562     1
   9552   9557     1
   9552   9555     1
   9552   9556     1
   9552   9560     1
   9553   9557     1
   9553   9555     1
   9553   9556     1
   9553   9560     1
   9555   9558     1
   9555   9559     1
   9556   9558     1
   9556   9559     1
   9561   9566     1
   9561   9564     1
   9561   9565     1
   9562   9566     1
   9562   9564     1
   9562   9565     1
   9564   9567     1
   9564   9568     1
   9565   9567     1
   9565   9568     1
   9570   9577     1
   9570   9578     1
   9571   9576     1
   9571   9574     1
   9571   9575     1
   9572   9576     1
   9572   9574     1
   9572   9575     1
   9574   9598     1
   9574   9579     1
   9574   9577     1
   9574   9578     1
   9575   9598     1
   9575   9579     1
   9575   9577     1
   9575   9578     1
   9576   9581     1
   9576   9582     1
   9576   9590     1
   9576   9591     1
   9577   9580     1
   9577   9589     1
   9578   9580     1
   9578   9589     1
   9579   9584     1
   9579   9585     1
   9579   9593     1
   9579   9594     1
   9580   9590     1
   9580   9591     1
   9581   9589     1
   9581   9586     1
   9581   9584     1
   9581   9585     1
   9582   9589     1
   9582   9586     1
   9582   9584     1
   9582   9585     1
   9584   9587     1
   9584   9588     1
   9585   9587     1
   9585   9588     1
   9590   9595     1
   9590   9593     1
   9590   9594     1
   9591   9595     1
   9591   9593     1
   9591   9594     1
   9593   9596     1
   9593   9597     1
   9594   9596     1
   9594   9597     1
   9599   9606     1
   9599   9607     1
   9600   9605     1
   9600   9603     1
   9600   9604     1
   9601   9605     1
   9601   9603     1
   9601   9604     1
   9603   9608     1
   9603   9606     1
   9603   9607     1
   9603   9627     1
   9604   9608     1
   9604   9606     1
   9604   9607     1
   9604   9627     1
   9605   9610     1
   9605   9611     1
   9605   9619     1
   9605   9620     1
   9606   9609     1
   9606   9618     1
   9607   9609     1
   9607   9618     1
   9608   9613     1
   9608   9614     1
   9608   9622     1
   9608   9623     1
   9609   9619     1
   9609   9620     1
   9610   9615     1
   9610   9613     1
   9610   9614     1
   9610   9618     1
   9611   9615     1
   9611   9613     1
   9611   9614     1
   9611   9618     1
   9613   9616     1
   9613   9617     1
   9614   9616     1
   9614   9617     1
   9619   9624     1
   9619   9622     1
   9619   9623     1
   9620   9624     1
   9620   9622     1
   9620   9623     1
   9622   9625     1
   9622   9626     1
   9623   9625     1
   9623   9626     1
   9628   9635     1
   9628   9636     1
   9629   9634     1
   9629   9632     1
   9629   9633     1
   9630   9634     1
   9630   9632     1
   9630   9633     1
   9632   9656     1
   9632   9637     1
   9632   9635     1
   9632   9636     1
   9633   9656     1
   9633   9637     1
   9633   9635     1
   9633   9636     1
   9634   9639     1
   9634   9640     1
   9634   9648     1
   9634   9649     1
   9635   9638     1
   9635   9647     1
   9636   9638     1
   9636   9647     1
   9637   9642     1
   9637   9643     1
   9637   9651     1
   9637   9652     1
   9638   9648     1
   9638   9649     1
   9639   9647     1
   9639   9644     1
   9639   9642     1
   9639   9643     1
   9640   9647     1
   9640   9644     1
   9640   9642     1
   9640   9643     1
   9642   9645     1
   9642   9646     1
   9643   9645     1
   9643   9646     1
   9648   9653     1
   9648   9651     1
   9648   9652     1
   9649   9653     1
   9649   9651     1
   9649   9652     1
   9651   9654     1
   9651   9655     1
   9652   9654     1
   9652   9655     1
   9657   9664     1
   9657   9665     1
   9658   9663     1
   9658   9661     1
   9658   9662     1
   9659   9663     1
   9659   9661     1
   9659   9662     1
   9661   9666     1
   9661   9664     1
   9661   9665     1
   9661   9685     1
   9662   9666     1
   9662   9664     1
   9662   9665     1
   9662   9685     1
   9663   9668     1
   9663   9669     1
   9663   9677     1
   9663   9678     1
   9664   9667     1
   9664   9676     1
   9665   9667     1
   9665   9676     1
   9666   9671     1
   9666   9672     1
   9666   9680     1
   9666   9681     1
   9667   9677     1
   9667   9678     1
   9668   9673     1
   9668   9671     1
   9668   9672     1
   9668   9676     1
   9669   9673     1
   9669   9671     1
   9669   9672     1
   9669   9676     1
   9671   9674     1
   9671   9675     1
   9672   9674     1
   9672   9675     1
   9677   9682     1
   9677   9680     1
   9677   9681     1
   9678   9682     1
   9678   9680     1
   9678   9681     1
   9680   9683     1
   9680   9684     1
   9681   9683     1
   9681   9684     1
   9686   9693     1
   9686   9694     1
   9687   9692     1
   9687   9690     1
   9687   9691     1
   9688   9692     1
   9688   9690     1
   9688   9691     1
   9690   9714     1
   9690   9695     1
   9690   9693     1
   9690   9694     1
   9691   9714     1
   9691   9695     1
   9691   9693     1
   9691   9694     1
   9692   9697     1
   9692   9698     1
   9692   9706     1
   9692   9707     1
   9693   9696     1
   9693   9705     1
   9694   9696     1
   9694   9705     1
   9695   9700     1
   9695   9701     1
   9695   9709     1
   9695   9710     1
   9696   9706     1
   9696   9707     1
   9697   9705     1
   9697   9702     1
   9697   9700     1
   9697   9701     1
   9698   9705     1
   9698   9702     1
   9698   9700     1
   9698   9701     1
   9700   9703     1
   9700   9704     1
   9701   9703     1
   9701   9704     1
   9706   9711     1
   9706   9709     1
   9706   9710     1
   9707   9711     1
   9707   9709     1
   9707   9710     1
   9709   9712     1
   9709   9713     1
   9710   9712     1
   9710   9713     1
   9715   9722     1
   9715   9723     1
   9716   9721     1
   9716   9719     1
   9716   9720     1
   9717   9721     1
   9717   9719     1
   9717   9720     1
   9719   9724     1
   9719   9722     1
   9719   9723     1
   9719   9743     1
   9720   9724     1
   9720   9722     1
   9720   9723     1
   9720   9743     1
   9721   9726     1
   9721   9727     1
   9721   9735     1
   9721   9736     1
   9722   9725     1
   9722   9734     1
   9723   9725     1
   9723   9734     1
   9724   9729     1
   9724   9730     1
   9724   9738     1
   9724   9739     1
   9725   9735     1
   9725   9736     1
   9726   9731     1
   9726   9729     1
   9726   9730     1
   9726   9734     1
   9727   9731     1
   9727   9729     1
   9727   9730     1
   9727   9734     1
   9729   9732     1
   9729   9733     1
   9730   9732     1
   9730   9733     1
   9735   9740     1
   9735   9738     1
   9735   9739     1
   9736   9740     1
   9736   9738     1
   9736   9739     1
   9738   9741     1
   9738   9742     1
   9739   9741     1
   9739   9742     1
   9744   9751     1
   9744   9752     1
   9745   9750     1
   9745   9748     1
   9745   9749     1
   9746   9750     1
   9746   9748     1
   9746   9749     1
   9748   9772     1
   9748   9753     1
   9748   9751     1
   9748   9752     1
   9749   9772     1
   9749   9753     1
   9749   9751     1
   9749   9752     1
   9750   9755     1
   9750   9756     1
   9750   9764     1
   9750   9765     1
   9751   9754     1
   9751   9763     1
   9752   9754     1
   9752   9763     1
   9753   9758     1
   9753   9759     1
   9753   9767     1
   9753   9768     1
   9754   9764     1
   9754   9765     1
   9755   9763     1
   9755   9760     1
   9755   9758     1
   9755   9759     1
   9756   9763     1
   9756   9760     1
   9756   9758     1
   9756   9759     1
   9758   9761     1
   9758   9762     1
   9759   9761     1
   9759   9762     1
   9764   9769     1
   9764   9767     1
   9764   9768     1
   9765   9769     1
   9765   9767     1
   9765   9768     1
   9767   9770     1
   9767   9771     1
   9768   9770     1
   9768   9771     1
   9773   9780     1
   9773   9781     1
   9774   9779     1
   9774   9777     1
   9774   9778     1
   9775   9779     1
   9775   9777     1
   9775   9778     1
   9777   9782     1
   9777   9780     1
   9777   9781     1
   9777   9801     1
   9778   9782     1
   9778   9780     1
   9778   9781     1
   9778   9801     1
   9779   9784     1
   9779   9785     1
   9779   9793     1
   9779   9794     1
   9780   9783     1
   9780   9792     1
   9781   9783     1
   9781   9792     1
   9782   9787     1
   9782   9788     1
   9782   9796     1
   9782   9797     1
   9783   9793     1
   9783   9794     1
   9784   9789     1
   9784   9787     1
   9784   9788     1
   9784   9792     1
   9785   9789     1
   9785   9787     1
   9785   9788     1
   9785   9792     1
   9787   9790     1
   9787   9791     1
   9788   9790     1
   9788   9791     1
   9793   9798     1
   9793   9796     1
   9793   9797     1
   9794   9798     1
   9794   9796     1
   9794   9797     1
   9796   9799     1
   9796   9800     1
   9797   9799     1
   9797   9800     1
   9802   9809     1
   9802   9810     1
   9803   9808     1
   9803   9806     1
   9803   9807     1
   9804   9808     1
   9804   9806     1
   9804   9807     1
   9806   9830     1
   9806   9811     1
   9806   9809     1
   9806   9810     1
   9807   9830     1
   9807   9811     1
   9807   9809     1
   9807   9810     1
   9808   9813     1
   9808   9814     1
   9808   9822     1
   9808   9823     1
   9809   9812     1
   9809   9821     1
   9810   9812     1
   9810   9821     1
   9811   9816     1
   9811   9817     1
   9811   9825     1
   9811   9826     1
   9812   9822     1
   9812   9823     1
   9813   9821     1
   9813   9818     1
   9813   9816     1
   9813   9817     1
   9814   9821     1
   9814   9818     1
   9814   9816     1
   9814   9817     1
   9816   9819     1
   9816   9820     1
   9817   9819     1
   9817   9820     1
   9822   9827     1
   9822   9825     1
   9822   9826     1
   9823   9827     1
   9823   9825     1
   9823   9826     1
   9825   9828     1
   9825   9829     1
   9826   9828     1
   9826   9829     1
   9831   9838     1
   9831   9839     1
   9832   9837     1
   9832   9835     1
   9832   9836     1
   9833   9837     1
   9833   9835     1
   9833   9836     1
   9835   9840     1
   9835   9838     1
   9835   9839     1
   9835   9859     1
   9836   9840     1
   9836   9838     1
   9836   9839     1
   9836   9859     1
   9837   9842     1
   9837   9843     1
   9837   9851     1
   9837   9852     1
   9838   9841     1
   9838   9850     1
   9839   9841     1
   9839   9850     1
   9840   9845     1
   9840   9846     1
   9840   9854     1
   9840   9855     1
   9841   9851     1
   9841   9852     1
   9842   9847     1
   9842   9845     1
   9842   9846     1
   9842   9850     1
   9843   9847     1
   9843   9845     1
   9843   9846     1
   9843   9850     1
   9845   9848     1
   9845   9849     1
   9846   9848     1
   9846   9849     1
   9851   9856     1
   9851   9854     1
   9851   9855     1
   9852   9856     1
   9852   9854     1
   9852   9855     1
   9854   9857     1
   9854   9858     1
   9855   9857     1
   9855   9858     1
   9860   9867     1
   9860   9868     1
   9861   9866     1
   9861   9864     1
   9861   9865     1
   9862   9866     1
   9862   9864     1
   9862   9865     1
   9864   9888     1
   9864   9869     1
   9864   9867     1
   9864   9868     1
   9865   9888     1
   9865   9869     1
   9865   9867     1
   9865   9868     1
   9866   9871     1
   9866   9872     1
   9866   9880     1
   9866   9881     1
   9867   9870     1
   9867   9879     1
   9868   9870     1
   9868   9879     1
   9869   9874     1
   9869   9875     1
   9869   9883     1
   9869   9884     1
   9870   9880     1
   9870   9881     1
   9871   9879     1
   9871   9876     1
   9871   9874     1
   9871   9875     1
   9872   9879     1
   9872   9876     1
   9872   9874     1
   9872   9875     1
   9874   9877     1
   9874   9878     1
   9875   9877     1
   9875   9878     1
   9880   9885     1
   9880   9883     1
   9880   9884     1
   9881   9885     1
   9881   9883     1
   9881   9884     1
   9883   9886     1
   9883   9887     1
   9884   9886     1
   9884   9887     1
   9889   9896     1
   9889   9897     1
   9890   9895     1
   9890   9893     1
   9890   9894     1
   9891   9895     1
   9891   9893     1
   9891   9894     1
   9893   9898     1
   9893   9896     1
   9893   9897     1
   9893   9917     1
   9894   9898     1
   9894   9896     1
   9894   9897     1
   9894   9917     1
   9895   9900     1
   9895   9901     1
   9895   9909     1
   9895   9910     1
   9896   9899     1
   9896   9908     1
   9897   9899     1
   9897   9908     1
   9898   9903     1
   9898   9904     1
   9898   9912     1
   9898   9913     1
   9899   9909     1
   9899   9910     1
   9900   9905     1
   9900   9903     1
   9900   9904     1
   9900   9908     1
   9901   9905     1
   9901   9903     1
   9901   9904     1
   9901   9908     1
   9903   9906     1
   9903   9907     1
   9904   9906     1
   9904   9907     1
   9909   9914     1
   9909   9912     1
   9909   9913     1
   9910   9914     1
   9910   9912     1
   9910   9913     1
   9912   9915     1
   9912   9916     1
   9913   9915     1
   9913   9916     1
   9918   9925     1
   9918   9926     1
   9919   9924     1
   9919   9922     1
   9919   9923     1
   9920   9924     1
   9920   9922     1
   9920   9923     1
   9922   9946     1
   9922   9927     1
   9922   9925     1
   9922   9926     1
   9923   9946     1
   9923   9927     1
   9923   9925     1
   9923   9926     1
   9924   9929     1
   9924   9930     1
   9924   9938     1
   9924   9939     1
   9925   9928     1
   9925   9937     1
   9926   9928     1
   9926   9937     1
   9927   9932     1
   9927   9933     1
   9927   9941     1
   9927   9942     1
   9928   9938     1
   9928   9939     1
   9929   9937     1
   9929   9934     1
   9929   9932     1
   9929   9933     1
   9930   9937     1
   9930   9934     1
   9930   9932     1
   9930   9933     1
   9932   9935     1
   9932   9936     1
   9933   9935     1
   9933   9936     1
   9938   9943     1
   9938   9941     1
   9938   9942     1
   9939   9943     1
   9939   9941     1
   9939   9942     1
   9941   9944     1
   9941   9945     1
   9942   9944     1
   9942   9945     1
   9947   9954     1
   9947   9955     1
   9948   9953     1
   9948   9951     1
   9948   9952     1
   9949   9953     1
   9949   9951     1
   9949   9952     1
   9951   9956     1
   9951   9954     1
   9951   9955     1
   9951   9975     1
   9952   9956     1
   9952   9954     1
   9952   9955     1
   9952   9975     1
   9953   9958     1
   9953   9959     1
   9953   9967     1
   9953   9968     1
   9954   9957     1
   9954   9966     1
   9955   9957     1
   9955   9966     1
   9956   9961     1
   9956   9962     1
   9956   9970     1
   9956   9971     1
   9957   9967     1
   9957   9968     1
   9958   9963     1
   9958   9961     1
   9958   9962     1
   9958   9966     1
   9959   9963     1
   9959   9961     1
   9959   9962     1
   9959   9966     1
   9961   9964     1
   9961   9965     1
   9962   9964     1
   9962   9965     1
   9967   9972     1
   9967   9970     1
   9967   9971     1
   9968   9972     1
   9968   9970     1
   9968   9971     1
   9970   9973     1
   9970   9974     1
   9971   9973     1
   9971   9974     1
   9976   9983     1
   9976   9984     1
   9977   9982     1
   9977   9980     1
   9977   9981     1
   9978   9982     1
   9978   9980     1
   9978   9981     1
   9980  10004     1
   9980   9985     1
   9980   9983     1
   9980   9984     1
   9981  10004     1
   9981   9985     1
   9981   9983     1
   9981   9984     1
   9982   9987     1
   9982   9988     1
   9982   9996     1
   9982   9997     1
   9983   9986     1
   9983   9995     1
   9984   9986     1
   9984   9995     1
   9985   9990     1
   9985   9991     1
   9985   9999     1
   9985  10000     1
   9986   9996     1
   9986   9997     1
   9987   9995     1
   9987   9992     1
   9987   9990     1
   9987   9991     1
   9988   9995     1
   9988   9992     1
   9988   9990     1
   9988   9991     1
   9990   9993     1
   9990   9994     1
   9991   9993     1
   9991   9994     1
   9996  10001     1
   9996   9999     1
   9996  10000     1
   9997  10001     1
   9997   9999     1
   9997  10000     1
   9999  10002     1
   9999  10003     1
  10000  10002     1
  10000  10003     1
  10005  10012     1
  10005  10013     1
  10006  10011     1
  10006  10009     1
  10006  10010     1
  10007  10011     1
  10007  10009     1
  10007  10010     1
  10009  10014     1
  10009  10012     1
  10009  10013     1
  10009  10033     1
  10010  10014     1
  10010  10012     1
  10010  10013     1
  10010  10033     1
  10011  10016     1
  10011  10017     1
  10011  10025     1
  10011  10026     1
  10012  10015     1
  10012  10024     1
  10013  10015     1
  10013  10024     1
  10014  10019     1
  10014  10020     1
  10014  10028     1
  10014  10029     1
  10015  10025     1
  10015  10026     1
  10016  10021     1
  10016  10019     1
  10016  10020     1
  10016  10024     1
  10017  10021     1
  10017  10019     1
  10017  10020     1
  10017  10024     1
  10019  10022     1
  10019  10023     1
  10020  10022     1
  10020  10023     1
  10025  10030     1
  10025  10028     1
  10025  10029     1
  10026  10030     1
  10026  10028     1
  10026  10029     1
  10028  10031     1
  10028  10032     1
  10029  10031     1
  10029  10032     1
  10034  10041     1
  10034  10042     1
  10035  10040     1
  10035  10038     1
  10035  10039     1
  10036  10040     1
  10036  10038     1
  10036  10039     1
  10038  10062     1
  10038  10043     1
  10038  10041     1
  10038  10042     1
  10039  10062     1
  10039  10043     1
  10039  10041     1
  10039  10042     1
  10040  10045     1
  10040  10046     1
  10040  10054     1
  10040  10055     1
  10041  10044     1
  10041  10053     1
  10042  10044     1
  10042  10053     1
  10043  10048     1
  10043  10049     1
  10043  10057     1
  10043  10058     1
  10044  10054     1
  10044  10055     1
  10045  10053     1
  10045  10050     1
  10045  10048     1
  10045  10049     1
  10046  10053     1
  10046  10050     1
  10046  10048     1
  10046  10049     1
  10048  10051     1
  10048  10052     1
  10049  10051     1
  10049  10052     1
  10054  10059     1
  10054  10057     1
  10054  10058     1
  10055  10059     1
  10055  10057     1
  10055  10058     1
  10057  10060     1
  10057  10061     1
  10058  10060     1
  10058  10061     1
  10063  10070     1
  10063  10071     1
  10064  10069     1
  10064  10067     1
  10064  10068     1
  10065  10069     1
  10065  10067     1
  10065  10068     1
  10067  10072     1
  10067  10070     1
  10067  10071     1
  10067  10091     1
  10068  10072     1
  10068  10070     1
  10068  10071     1
  10068  10091     1
  10069  10074     1
  10069  10075     1
  10069  10083     1
  10069  10084     1
  10070  10073     1
  10070  10082     1
  10071  10073     1
  10071  10082     1
  10072  10077     1
  10072  10078     1
  10072  10086     1
  10072  10087     1
  10073  10083     1
  10073  10084     1
  10074  10079     1
  10074  10077     1
  10074  10078     1
  10074  10082     1
  10075  10079     1
  10075  10077     1
  10075  10078     1
  10075  10082     1
  10077  10080     1
  10077  10081     1
  10078  10080     1
  10078  10081     1
  10083  10088     1
  10083  10086     1
  10083  10087     1
  10084  10088     1
  10084  10086     1
  10084  10087     1
  10086  10089     1
  10086  10090     1
  10087  10089     1
  10087  10090     1
  10092  10099     1
  10092  10100     1
  10093  10098     1
  10093  10096     1
  10093  10097     1
  10094  10098     1
  10094  10096     1
  10094  10097     1
  10096  10120     1
  10096  10101     1
  10096  10099     1
  10096  10100     1
  10097  10120     1
  10097  10101     1
  10097  10099     1
  10097  10100     1
  10098  10103     1
  10098  10104     1
  10098  10112     1
  10098  10113     1
  10099  10102     1
  10099  10111     1
  10100  10102     1
  10100  10111     1
  10101  10106     1
  10101  10107     1
  10101  10115     1
  10101  10116     1
  10102  10112     1
  10102  10113     1
  10103  10111     1
  10103  10108     1
  10103  10106     1
  10103  10107     1
  10104  10111     1
  10104  10108     1
  10104  10106     1
  10104  10107     1
  10106  10109     1
  10106  10110     1
  10107  10109     1
  10107  10110     1
  10112  10117     1
  10112  10115     1
  10112  10116     1
  10113  10117     1
  10113  10115     1
  10113  10116     1
  10115  10118     1
  10115  10119     1
  10116  10118     1
  10116  10119     1
  10121  10128     1
  10121  10129     1
  10122  10127     1
  10122  10125     1
  10122  10126     1
  10123  10127     1
  10123  10125     1
  10123  10126     1
  10125  10130     1
  10125  10128     1
  10125  10129     1
  10125  10149     1
  10126  10130     1
  10126  10128     1
  10126  10129     1
  10126  10149     1
  10127  10132     1
  10127  10133     1
  10127  10141     1
  10127  10142     1
  10128  10131     1
  10128  10140     1
  10129  10131     1
  10129  10140     1
  10130  10135     1
  10130  10136     1
  10130  10144     1
  10130  10145     1
  10131  10141     1
  10131  10142     1
  10132  10137     1
  10132  10135     1
  10132  10136     1
  10132  10140     1
  10133  10137     1
  10133  10135     1
  10133  10136     1
  10133  10140     1
  10135  10138     1
  10135  10139     1
  10136  10138     1
  10136  10139     1
  10141  10146     1
  10141  10144     1
  10141  10145     1
  10142  10146     1
  10142  10144     1
  10142  10145     1
  10144  10147     1
  10144  10148     1
  10145  10147     1
  10145  10148     1
  10150  10157     1
  10150  10158     1
  10151  10156     1
  10151  10154     1
  10151  10155     1
  10152  10156     1
  10152  10154     1
  10152  10155     1
  10154  10178     1
  10154  10159     1
  10154  10157     1
  10154  10158     1
  10155  10178     1
  10155  10159     1
  10155  10157     1
  10155  10158     1
  10156  10161     1
  10156  10162     1
  10156  10170     1
  10156  10171     1
  10157  10160     1
  10157  10169     1
  10158  10160     1
  10158  10169     1
  10159  10164     1
  10159  10165     1
  10159  10173     1
  10159  10174     1
  10160  10170     1
  10160  10171     1
  10161  10169     1
  10161  10166     1
  10161  10164     1
  10161  10165     1
  10162  10169     1
  10162  10166     1
  10162  10164     1
  10162  10165     1
  10164  10167     1
  10164  10168     1
  10165  10167     1
  10165  10168     1
  10170  10175     1
  10170  10173     1
  10170  10174     1
  10171  10175     1
  10171  10173     1
  10171  10174     1
  10173  10176     1
  10173  10177     1
  10174  10176     1
  10174  10177     1
  10179  10186     1
  10179  10187     1
  10180  10185     1
  10180  10183     1
  10180  10184     1
  10181  10185     1
  10181  10183     1
  10181  10184     1
  10183  10188     1
  10183  10186     1
  10183  10187     1
  10183  10207     1
  10184  10188     1
  10184  10186     1
  10184  10187     1
  10184  10207     1
  10185  10190     1
  10185  10191     1
  10185  10199     1
  10185  10200     1
  10186  10189     1
  10186  10198     1
  10187  10189     1
  10187  10198     1
  10188  10193     1
  10188  10194     1
  10188  10202     1
  10188  10203     1
  10189  10199     1
  10189  10200     1
  10190  10195     1
  10190  10193     1
  10190  10194     1
  10190  10198     1
  10191  10195     1
  10191  10193     1
  10191  10194     1
  10191  10198     1
  10193  10196     1
  10193  10197     1
  10194  10196     1
  10194  10197     1
  10199  10204     1
  10199  10202     1
  10199  10203     1
  10200  10204     1
  10200  10202     1
  10200  10203     1
  10202  10205     1
  10202  10206     1
  10203  10205     1
  10203  10206     1
  10208  10215     1
  10208  10216     1
  10209  10214     1
  10209  10212     1
  10209  10213     1
  10210  10214     1
  10210  10212     1
  10210  10213     1
  10212  10236     1
  10212  10217     1
  10212  10215     1
  10212  10216     1
  10213  10236     1
  10213  10217     1
  10213  10215     1
  10213  10216     1
  10214  10219     1
  10214  10220     1
  10214  10228     1
  10214  10229     1
  10215  10218     1
  10215  10227     1
  10216  10218     1
  10216  10227     1
  10217  10222     1
  10217  10223     1
  10217  10231     1
  10217  10232     1
  10218  10228     1
  10218  10229     1
  10219  10227     1
  10219  10224     1
  10219  10222     1
  10219  10223     1
  10220  10227     1
  10220  10224     1
  10220  10222     1
  10220  10223     1
  10222  10225     1
  10222  10226     1
  10223  10225     1
  10223  10226     1
  10228  10233     1
  10228  10231     1
  10228  10232     1
  10229  10233     1
  10229  10231     1
  10229  10232     1
  10231  10234     1
  10231  10235     1
  10232  10234     1
  10232  10235     1
  10237  10244     1
  10237  10245     1
  10238  10243     1
  10238  10241     1
  10238  10242     1
  10239  10243     1
  10239  10241     1
  10239  10242     1
  10241  10246     1
  10241  10244     1
  10241  10245     1
  10241  10265     1
  10242  10246     1
  10242  10244     1
  10242  10245     1
  10242  10265     1
  10243  10248     1
  10243  10249     1
  10243  10257     1
  10243  10258     1
  10244  10247     1
  10244  10256     1
  10245  10247     1
  10245  10256     1
  10246  10251     1
  10246  10252     1
  10246  10260     1
  10246  10261     1
  10247  10257     1
  10247  10258     1
  10248  10253     1
  10248  10251     1
  10248  10252     1
  10248  10256     1
  10249  10253     1
  10249  10251     1
  10249  10252     1
  10249  10256     1
  10251  10254     1
  10251  10255     1
  10252  10254     1
  10252  10255     1
  10257  10262     1
  10257  10260     1
  10257  10261     1
  10258  10262     1
  10258  10260     1
  10258  10261     1
  10260  10263     1
  10260  10264     1
  10261  10263     1
  10261  10264     1
  10266  10273     1
  10266  10274     1
  10267  10272     1
  10267  10270     1
  10267  10271     1
  10268  10272     1
  10268  10270     1
  10268  10271     1
  10270  10294     1
  10270  10275     1
  10270  10273     1
  10270  10274     1
  10271  10294     1
  10271  10275     1
  10271  10273     1
  10271  10274     1
  10272  10277     1
  10272  10278     1
  10272  10286     1
  10272  10287     1
  10273  10276     1
  10273  10285     1
  10274  10276     1
  10274  10285     1
  10275  10280     1
  10275  10281     1
  10275  10289     1
  10275  10290     1
  10276  10286     1
  10276  10287     1
  10277  10285     1
  10277  10282     1
  10277  10280     1
  10277  10281     1
  10278  10285     1
  10278  10282     1
  10278  10280     1
  10278  10281     1
  10280  10283     1
  10280  10284     1
  10281  10283     1
  10281  10284     1
  10286  10291     1
  10286  10289     1
  10286  10290     1
  10287  10291     1
  10287  10289     1
  10287  10290     1
  10289  10292     1
  10289  10293     1
  10290  10292     1
  10290  10293     1
  10295  10302     1
  10295  10303     1
  10296  10301     1
  10296  10299     1
  10296  10300     1
  10297  10301     1
  10297  10299     1
  10297  10300     1
  10299  10304     1
  10299  10302     1
  10299  10303     1
  10299  10323     1
  10300  10304     1
  10300  10302     1
  10300  10303     1
  10300  10323     1
  10301  10306     1
  10301  10307     1
  10301  10315     1
  10301  10316     1
  10302  10305     1
  10302  10314     1
  10303  10305     1
  10303  10314     1
  10304  10309     1
  10304  10310     1
  10304  10318     1
  10304  10319     1
  10305  10315     1
  10305  10316     1
  10306  10311     1
  10306  10309     1
  10306  10310     1
  10306  10314     1
  10307  10311     1
  10307  10309     1
  10307  10310     1
  10307  10314     1
  10309  10312     1
  10309  10313     1
  10310  10312     1
  10310  10313     1
  10315  10320     1
  10315  10318     1
  10315  10319     1
  10316  10320     1
  10316  10318     1
  10316  10319     1
  10318  10321     1
  10318  10322     1
  10319  10321     1
  10319  10322     1
  10324  10331     1
  10324  10332     1
  10325  10330     1
  10325  10328     1
  10325  10329     1
  10326  10330     1
  10326  10328     1
  10326  10329     1
  10328  10352     1
  10328  10333     1
  10328  10331     1
  10328  10332     1
  10329  10352     1
  10329  10333     1
  10329  10331     1
  10329  10332     1
  10330  10335     1
  10330  10336     1
  10330  10344     1
  10330  10345     1
  10331  10334     1
  10331  10343     1
  10332  10334     1
  10332  10343     1
  10333  10338     1
  10333  10339     1
  10333  10347     1
  10333  10348     1
  10334  10344     1
  10334  10345     1
  10335  10343     1
  10335  10340     1
  10335  10338     1
  10335  10339     1
  10336  10343     1
  10336  10340     1
  10336  10338     1
  10336  10339     1
  10338  10341     1
  10338  10342     1
  10339  10341     1
  10339  10342     1
  10344  10349     1
  10344  10347     1
  10344  10348     1
  10345  10349     1
  10345  10347     1
  10345  10348     1
  10347  10350     1
  10347  10351     1
  10348  10350     1
  10348  10351     1
  10353  10360     1
  10353  10361     1
  10354  10359     1
  10354  10357     1
  10354  10358     1
  10355  10359     1
  10355  10357     1
  10355  10358     1
  10357  10362     1
  10357  10360     1
  10357  10361     1
  10357  10381     1
  10358  10362     1
  10358  10360     1
  10358  10361     1
  10358  10381     1
  10359  10364     1
  10359  10365     1
  10359  10373     1
  10359  10374     1
  10360  10363     1
  10360  10372     1
  10361  10363     1
  10361  10372     1
  10362  10367     1
  10362  10368     1
  10362  10376     1
  10362  10377     1
  10363  10373     1
  10363  10374     1
  10364  10369     1
  10364  10367     1
  10364  10368     1
  10364  10372     1
  10365  10369     1
  10365  10367     1
  10365  10368     1
  10365  10372     1
  10367  10370     1
  10367  10371     1
  10368  10370     1
  10368  10371     1
  10373  10378     1
  10373  10376     1
  10373  10377     1
  10374  10378     1
  10374  10376     1
  10374  10377     1
  10376  10379     1
  10376  10380     1
  10377  10379     1
  10377  10380     1
  10382  10389     1
  10382  10390     1
  10383  10388     1
  10383  10386     1
  10383  10387     1
  10384  10388     1
  10384  10386     1
  10384  10387     1
  10386  10410     1
  10386  10391     1
  10386  10389     1
  10386  10390     1
  10387  10410     1
  10387  10391     1
  10387  10389     1
  10387  10390     1
  10388  10393     1
  10388  10394     1
  10388  10402     1
  10388  10403     1
  10389  10392     1
  10389  10401     1
  10390  10392     1
  10390  10401     1
  10391  10396     1
  10391  10397     1
  10391  10405     1
  10391  10406     1
  10392  10402     1
  10392  10403     1
  10393  10401     1
  10393  10398     1
  10393  10396     1
  10393  10397     1
  10394  10401     1
  10394  10398     1
  10394  10396     1
  10394  10397     1
  10396  10399     1
  10396  10400     1
  10397  10399     1
  10397  10400     1
  10402  10407     1
  10402  10405     1
  10402  10406     1
  10403  10407     1
  10403  10405     1
  10403  10406     1
  10405  10408     1
  10405  10409     1
  10406  10408     1
  10406  10409     1
  10411  10418     1
  10411  10419     1
  10412  10417     1
  10412  10415     1
  10412  10416     1
  10413  10417     1
  10413  10415     1
  10413  10416     1
  10415  10420     1
  10415  10418     1
  10415  10419     1
  10415  10439     1
  10416  10420     1
  10416  10418     1
  10416  10419     1
  10416  10439     1
  10417  10422     1
  10417  10423     1
  10417  10431     1
  10417  10432     1
  10418  10421     1
  10418  10430     1
  10419  10421     1
  10419  10430     1
  10420  10425     1
  10420  10426     1
  10420  10434     1
  10420  10435     1
  10421  10431     1
  10421  10432     1
  10422  10427     1
  10422  10425     1
  10422  10426     1
  10422  10430     1
  10423  10427     1
  10423  10425     1
  10423  10426     1
  10423  10430     1
  10425  10428     1
  10425  10429     1
  10426  10428     1
  10426  10429     1
  10431  10436     1
  10431  10434     1
  10431  10435     1
  10432  10436     1
  10432  10434     1
  10432  10435     1
  10434  10437     1
  10434  10438     1
  10435  10437     1
  10435  10438     1
  10440  10447     1
  10440  10448     1
  10441  10446     1
  10441  10444     1
  10441  10445     1
  10442  10446     1
  10442  10444     1
  10442  10445     1
  10444  10468     1
  10444  10449     1
  10444  10447     1
  10444  10448     1
  10445  10468     1
  10445  10449     1
  10445  10447     1
  10445  10448     1
  10446  10451     1
  10446  10452     1
  10446  10460     1
  10446  10461     1
  10447  10450     1
  10447  10459     1
  10448  10450     1
  10448  10459     1
  10449  10454     1
  10449  10455     1
  10449  10463     1
  10449  10464     1
  10450  10460     1
  10450  10461     1
  10451  10459     1
  10451  10456     1
  10451  10454     1
  10451  10455     1
  10452  10459     1
  10452  10456     1
  10452  10454     1
  10452  10455     1
  10454  10457     1
  10454  10458     1
  10455  10457     1
  10455  10458     1
  10460  10465     1
  10460  10463     1
  10460  10464     1
  10461  10465     1
  10461  10463     1
  10461  10464     1
  10463  10466     1
  10463  10467     1
  10464  10466     1
  10464  10467     1
  10469  10476     1
  10469  10477     1
  10470  10475     1
  10470  10473     1
  10470  10474     1
  10471  10475     1
  10471  10473     1
  10471  10474     1
  10473  10478     1
  10473  10476     1
  10473  10477     1
  10473  10497     1
  10474  10478     1
  10474  10476     1
  10474  10477     1
  10474  10497     1
  10475  10480     1
  10475  10481     1
  10475  10489     1
  10475  10490     1
  10476  10479     1
  10476  10488     1
  10477  10479     1
  10477  10488     1
  10478  10483     1
  10478  10484     1
  10478  10492     1
  10478  10493     1
  10479  10489     1
  10479  10490     1
  10480  10485     1
  10480  10483     1
  10480  10484     1
  10480  10488     1
  10481  10485     1
  10481  10483     1
  10481  10484     1
  10481  10488     1
  10483  10486     1
  10483  10487     1
  10484  10486     1
  10484  10487     1
  10489  10494     1
  10489  10492     1
  10489  10493     1
  10490  10494     1
  10490  10492     1
  10490  10493     1
  10492  10495     1
  10492  10496     1
  10493  10495     1
  10493  10496     1
  10498  10505     1
  10498  10506     1
  10499  10504     1
  10499  10502     1
  10499  10503     1
  10500  10504     1
  10500  10502     1
  10500  10503     1
  10502  10526     1
  10502  10507     1
  10502  10505     1
  10502  10506     1
  10503  10526     1
  10503  10507     1
  10503  10505     1
  10503  10506     1
  10504  10509     1
  10504  10510     1
  10504  10518     1
  10504  10519     1
  10505  10508     1
  10505  10517     1
  10506  10508     1
  10506  10517     1
  10507  10512     1
  10507  10513     1
  10507  10521     1
  10507  10522     1
  10508  10518     1
  10508  10519     1
  10509  10517     1
  10509  10514     1
  10509  10512     1
  10509  10513     1
  10510  10517     1
  10510  10514     1
  10510  10512     1
  10510  10513     1
  10512  10515     1
  10512  10516     1
  10513  10515     1
  10513  10516     1
  10518  10523     1
  10518  10521     1
  10518  10522     1
  10519  10523     1
  10519  10521     1
  10519  10522     1
  10521  10524     1
  10521  10525     1
  10522  10524     1
  10522  10525     1
  10527  10534     1
  10527  10535     1
  10528  10533     1
  10528  10531     1
  10528  10532     1
  10529  10533     1
  10529  10531     1
  10529  10532     1
  10531  10536     1
  10531  10534     1
  10531  10535     1
  10531  10555     1
  10532  10536     1
  10532  10534     1
  10532  10535     1
  10532  10555     1
  10533  10538     1
  10533  10539     1
  10533  10547     1
  10533  10548     1
  10534  10537     1
  10534  10546     1
  10535  10537     1
  10535  10546     1
  10536  10541     1
  10536  10542     1
  10536  10550     1
  10536  10551     1
  10537  10547     1
  10537  10548     1
  10538  10543     1
  10538  10541     1
  10538  10542     1
  10538  10546     1
  10539  10543     1
  10539  10541     1
  10539  10542     1
  10539  10546     1
  10541  10544     1
  10541  10545     1
  10542  10544     1
  10542  10545     1
  10547  10552     1
  10547  10550     1
  10547  10551     1
  10548  10552     1
  10548  10550     1
  10548  10551     1
  10550  10553     1
  10550  10554     1
  10551  10553     1
  10551  10554     1
  10556  10563     1
  10556  10564     1
  10557  10562     1
  10557  10560     1
  10557  10561     1
  10558  10562     1
  10558  10560     1
  10558  10561     1
  10560  10584     1
  10560  10565     1
  10560  10563     1
  10560  10564     1
  10561  10584     1
  10561  10565     1
  10561  10563     1
  10561  10564     1
  10562  10567     1
  10562  10568     1
  10562  10576     1
  10562  10577     1
  10563  10566     1
  10563  10575     1
  10564  10566     1
  10564  10575     1
  10565  10570     1
  10565  10571     1
  10565  10579     1
  10565  10580     1
  10566  10576     1
  10566  10577     1
  10567  10575     1
  10567  10572     1
  10567  10570     1
  10567  10571     1
  10568  10575     1
  10568  10572     1
  10568  10570     1
  10568  10571     1
  10570  10573     1
  10570  10574     1
  10571  10573     1
  10571  10574     1
  10576  10581     1
  10576  10579     1
  10576  10580     1
  10577  10581     1
  10577  10579     1
  10577  10580     1
  10579  10582     1
  10579  10583     1
  10580  10582     1
  10580  10583     1
  10585  10592     1
  10585  10593     1
  10586  10591     1
  10586  10589     1
  10586  10590     1
  10587  10591     1
  10587  10589     1
  10587  10590     1
  10589  10594     1
  10589  10592     1
  10589  10593     1
  10589  10613     1
  10590  10594     1
  10590  10592     1
  10590  10593     1
  10590  10613     1
  10591  10596     1
  10591  10597     1
  10591  10605     1
  10591  10606     1
  10592  10595     1
  10592  10604     1
  10593  10595     1
  10593  10604     1
  10594  10599     1
  10594  10600     1
  10594  10608     1
  10594  10609     1
  10595  10605     1
  10595  10606     1
  10596  10601     1
  10596  10599     1
  10596  10600     1
  10596  10604     1
  10597  10601     1
  10597  10599     1
  10597  10600     1
  10597  10604     1
  10599  10602     1
  10599  10603     1
  10600  10602     1
  10600  10603     1
  10605  10610     1
  10605  10608     1
  10605  10609     1
  10606  10610     1
  10606  10608     1
  10606  10609     1
  10608  10611     1
  10608  10612     1
  10609  10611     1
  10609  10612     1
  10614  10621     1
  10614  10622     1
  10615  10620     1
  10615  10618     1
  10615  10619     1
  10616  10620     1
  10616  10618     1
  10616  10619     1
  10618  10642     1
  10618  10623     1
  10618  10621     1
  10618  10622     1
  10619  10642     1
  10619  10623     1
  10619  10621     1
  10619  10622     1
  10620  10625     1
  10620  10626     1
  10620  10634     1
  10620  10635     1
  10621  10624     1
  10621  10633     1
  10622  10624     1
  10622  10633     1
  10623  10628     1
  10623  10629     1
  10623  10637     1
  10623  10638     1
  10624  10634     1
  10624  10635     1
  10625  10633     1
  10625  10630     1
  10625  10628     1
  10625  10629     1
  10626  10633     1
  10626  10630     1
  10626  10628     1
  10626  10629     1
  10628  10631     1
  10628  10632     1
  10629  10631     1
  10629  10632     1
  10634  10639     1
  10634  10637     1
  10634  10638     1
  10635  10639     1
  10635  10637     1
  10635  10638     1
  10637  10640     1
  10637  10641     1
  10638  10640     1
  10638  10641     1
  10643  10650     1
  10643  10651     1
  10644  10649     1
  10644  10647     1
  10644  10648     1
  10645  10649     1
  10645  10647     1
  10645  10648     1
  10647  10652     1
  10647  10650     1
  10647  10651     1
  10647  10671     1
  10648  10652     1
  10648  10650     1
  10648  10651     1
  10648  10671     1
  10649  10654     1
  10649  10655     1
  10649  10663     1
  10649  10664     1
  10650  10653     1
  10650  10662     1
  10651  10653     1
  10651  10662     1
  10652  10657     1
  10652  10658     1
  10652  10666     1
  10652  10667     1
  10653  10663     1
  10653  10664     1
  10654  10659     1
  10654  10657     1
  10654  10658     1
  10654  10662     1
  10655  10659     1
  10655  10657     1
  10655  10658     1
  10655  10662     1
  10657  10660     1
  10657  10661     1
  10658  10660     1
  10658  10661     1
  10663  10668     1
  10663  10666     1
  10663  10667     1
  10664  10668     1
  10664  10666     1
  10664  10667     1
  10666  10669     1
  10666  10670     1
  10667  10669     1
  10667  10670     1
  10672  10679     1
  10672  10680     1
  10673  10678     1
  10673  10676     1
  10673  10677     1
  10674  10678     1
  10674  10676     1
  10674  10677     1
  10676  10700     1
  10676  10681     1
  10676  10679     1
  10676  10680     1
  10677  10700     1
  10677  10681     1
  10677  10679     1
  10677  10680     1
  10678  10683     1
  10678  10684     1
  10678  10692     1
  10678  10693     1
  10679  10682     1
  10679  10691     1
  10680  10682     1
  10680  10691     1
  10681  10686     1
  10681  10687     1
  10681  10695     1
  10681  10696     1
  10682  10692     1
  10682  10693     1
  10683  10691     1
  10683  10688     1
  10683  10686     1
  10683  10687     1
  10684  10691     1
  10684  10688     1
  10684  10686     1
  10684  10687     1
  10686  10689     1
  10686  10690     1
  10687  10689     1
  10687  10690     1
  10692  10697     1
  10692  10695     1
  10692  10696     1
  10693  10697     1
  10693  10695     1
  10693  10696     1
  10695  10698     1
  10695  10699     1
  10696  10698     1
  10696  10699     1
  10701  10708     1
  10701  10709     1
  10702  10707     1
  10702  10705     1
  10702  10706     1
  10703  10707     1
  10703  10705     1
  10703  10706     1
  10705  10710     1
  10705  10708     1
  10705  10709     1
  10705  10729     1
  10706  10710     1
  10706  10708     1
  10706  10709     1
  10706  10729     1
  10707  10712     1
  10707  10713     1
  10707  10721     1
  10707  10722     1
  10708  10711     1
  10708  10720     1
  10709  10711     1
  10709  10720     1
  10710  10715     1
  10710  10716     1
  10710  10724     1
  10710  10725     1
  10711  10721     1
  10711  10722     1
  10712  10717     1
  10712  10715     1
  10712  10716     1
  10712  10720     1
  10713  10717     1
  10713  10715     1
  10713  10716     1
  10713  10720     1
  10715  10718     1
  10715  10719     1
  10716  10718     1
  10716  10719     1
  10721  10726     1
  10721  10724     1
  10721  10725     1
  10722  10726     1
  10722  10724     1
  10722  10725     1
  10724  10727     1
  10724  10728     1
  10725  10727     1
  10725  10728     1
  10730  10737     1
  10730  10738     1
  10731  10736     1
  10731  10734     1
  10731  10735     1
  10732  10736     1
  10732  10734     1
  10732  10735     1
  10734  10758     1
  10734  10739     1
  10734  10737     1
  10734  10738     1
  10735  10758     1
  10735  10739     1
  10735  10737     1
  10735  10738     1
  10736  10741     1
  10736  10742     1
  10736  10750     1
  10736  10751     1
  10737  10740     1
  10737  10749     1
  10738  10740     1
  10738  10749     1
  10739  10744     1
  10739  10745     1
  10739  10753     1
  10739  10754     1
  10740  10750     1
  10740  10751     1
  10741  10749     1
  10741  10746     1
  10741  10744     1
  10741  10745     1
  10742  10749     1
  10742  10746     1
  10742  10744     1
  10742  10745     1
  10744  10747     1
  10744  10748     1
  10745  10747     1
  10745  10748     1
  10750  10755     1
  10750  10753     1
  10750  10754     1
  10751  10755     1
  10751  10753     1
  10751  10754     1
  10753  10756     1
  10753  10757     1
  10754  10756     1
  10754  10757     1
  10759  10766     1
  10759  10767     1
  10760  10765     1
  10760  10763     1
  10760  10764     1
  10761  10765     1
  10761  10763     1
  10761  10764     1
  10763  10768     1
  10763  10766     1
  10763  10767     1
  10763  10787     1
  10764  10768     1
  10764  10766     1
  10764  10767     1
  10764  10787     1
  10765  10770     1
  10765  10771     1
  10765  10779     1
  10765  10780     1
  10766  10769     1
  10766  10778     1
  10767  10769     1
  10767  10778     1
  10768  10773     1
  10768  10774     1
  10768  10782     1
  10768  10783     1
  10769  10779     1
  10769  10780     1
  10770  10775     1
  10770  10773     1
  10770  10774     1
  10770  10778     1
  10771  10775     1
  10771  10773     1
  10771  10774     1
  10771  10778     1
  10773  10776     1
  10773  10777     1
  10774  10776     1
  10774  10777     1
  10779  10784     1
  10779  10782     1
  10779  10783     1
  10780  10784     1
  10780  10782     1
  10780  10783     1
  10782  10785     1
  10782  10786     1
  10783  10785     1
  10783  10786     1
  10788  10795     1
  10788  10796     1
  10789  10794     1
  10789  10792     1
  10789  10793     1
  10790  10794     1
  10790  10792     1
  10790  10793     1
  10792  10816     1
  10792  10797     1
  10792  10795     1
  10792  10796     1
  10793  10816     1
  10793  10797     1
  10793  10795     1
  10793  10796     1
  10794  10799     1
  10794  10800     1
  10794  10808     1
  10794  10809     1
  10795  10798     1
  10795  10807     1
  10796  10798     1
  10796  10807     1
  10797  10802     1
  10797  10803     1
  10797  10811     1
  10797  10812     1
  10798  10808     1
  10798  10809     1
  10799  10807     1
  10799  10804     1
  10799  10802     1
  10799  10803     1
  10800  10807     1
  10800  10804     1
  10800  10802     1
  10800  10803     1
  10802  10805     1
  10802  10806     1
  10803  10805     1
  10803  10806     1
  10808  10813     1
  10808  10811     1
  10808  10812     1
  10809  10813     1
  10809  10811     1
  10809  10812     1
  10811  10814     1
  10811  10815     1
  10812  10814     1
  10812  10815     1
  10817  10824     1
  10817  10825     1
  10818  10823     1
  10818  10821     1
  10818  10822     1
  10819  10823     1
  10819  10821     1
  10819  10822     1
  10821  10826     1
  10821  10824     1
  10821  10825     1
  10821  10845     1
  10822  10826     1
  10822  10824     1
  10822  10825     1
  10822  10845     1
  10823  10828     1
  10823  10829     1
  10823  10837     1
  10823  10838     1
  10824  10827     1
  10824  10836     1
  10825  10827     1
  10825  10836     1
  10826  10831     1
  10826  10832     1
  10826  10840     1
  10826  10841     1
  10827  10837     1
  10827  10838     1
  10828  10833     1
  10828  10831     1
  10828  10832     1
  10828  10836     1
  10829  10833     1
  10829  10831     1
  10829  10832     1
  10829  10836     1
  10831  10834     1
  10831  10835     1
  10832  10834     1
  10832  10835     1
  10837  10842     1
  10837  10840     1
  10837  10841     1
  10838  10842     1
  10838  10840     1
  10838  10841     1
  10840  10843     1
  10840  10844     1
  10841  10843     1
  10841  10844     1
  10846  10853     1
  10846  10854     1
  10847  10852     1
  10847  10850     1
  10847  10851     1
  10848  10852     1
  10848  10850     1
  10848  10851     1
  10850  10874     1
  10850  10855     1
  10850  10853     1
  10850  10854     1
  10851  10874     1
  10851  10855     1
  10851  10853     1
  10851  10854     1
  10852  10857     1
  10852  10858     1
  10852  10866     1
  10852  10867     1
  10853  10856     1
  10853  10865     1
  10854  10856     1
  10854  10865     1
  10855  10860     1
  10855  10861     1
  10855  10869     1
  10855  10870     1
  10856  10866     1
  10856  10867     1
  10857  10865     1
  10857  10862     1
  10857  10860     1
  10857  10861     1
  10858  10865     1
  10858  10862     1
  10858  10860     1
  10858  10861     1
  10860  10863     1
  10860  10864     1
  10861  10863     1
  10861  10864     1
  10866  10871     1
  10866  10869     1
  10866  10870     1
  10867  10871     1
  10867  10869     1
  10867  10870     1
  10869  10872     1
  10869  10873     1
  10870  10872     1
  10870  10873     1
  10875  10882     1
  10875  10883     1
  10876  10881     1
  10876  10879     1
  10876  10880     1
  10877  10881     1
  10877  10879     1
  10877  10880     1
  10879  10884     1
  10879  10882     1
  10879  10883     1
  10879  10903     1
  10880  10884     1
  10880  10882     1
  10880  10883     1
  10880  10903     1
  10881  10886     1
  10881  10887     1
  10881  10895     1
  10881  10896     1
  10882  10885     1
  10882  10894     1
  10883  10885     1
  10883  10894     1
  10884  10889     1
  10884  10890     1
  10884  10898     1
  10884  10899     1
  10885  10895     1
  10885  10896     1
  10886  10891     1
  10886  10889     1
  10886  10890     1
  10886  10894     1
  10887  10891     1
  10887  10889     1
  10887  10890     1
  10887  10894     1
  10889  10892     1
  10889  10893     1
  10890  10892     1
  10890  10893     1
  10895  10900     1
  10895  10898     1
  10895  10899     1
  10896  10900     1
  10896  10898     1
  10896  10899     1
  10898  10901     1
  10898  10902     1
  10899  10901     1
  10899  10902     1
  10904  10911     1
  10904  10912     1
  10905  10910     1
  10905  10908     1
  10905  10909     1
  10906  10910     1
  10906  10908     1
  10906  10909     1
  10908  10932     1
  10908  10913     1
  10908  10911     1
  10908  10912     1
  10909  10932     1
  10909  10913     1
  10909  10911     1
  10909  10912     1
  10910  10915     1
  10910  10916     1
  10910  10924     1
  10910  10925     1
  10911  10914     1
  10911  10923     1
  10912  10914     1
  10912  10923     1
  10913  10918     1
  10913  10919     1
  10913  10927     1
  10913  10928     1
  10914  10924     1
  10914  10925     1
  10915  10923     1
  10915  10920     1
  10915  10918     1
  10915  10919     1
  10916  10923     1
  10916  10920     1
  10916  10918     1
  10916  10919     1
  10918  10921     1
  10918  10922     1
  10919  10921     1
  10919  10922     1
  10924  10929     1
  10924  10927     1
  10924  10928     1
  10925  10929     1
  10925  10927     1
  10925  10928     1
  10927  10930     1
  10927  10931     1
  10928  10930     1
  10928  10931     1
  10933  10940     1
  10933  10941     1
  10934  10939     1
  10934  10937     1
  10934  10938     1
  10935  10939     1
  10935  10937     1
  10935  10938     1
  10937  10942     1
  10937  10940     1
  10937  10941     1
  10937  10961     1
  10938  10942     1
  10938  10940     1
  10938  10941     1
  10938  10961     1
  10939  10944     1
  10939  10945     1
  10939  10953     1
  10939  10954     1
  10940  10943     1
  10940  10952     1
  10941  10943     1
  10941  10952     1
  10942  10947     1
  10942  10948     1
  10942  10956     1
  10942  10957     1
  10943  10953     1
  10943  10954     1
  10944  10949     1
  10944  10947     1
  10944  10948     1
  10944  10952     1
  10945  10949     1
  10945  10947     1
  10945  10948     1
  10945  10952     1
  10947  10950     1
  10947  10951     1
  10948  10950     1
  10948  10951     1
  10953  10958     1
  10953  10956     1
  10953  10957     1
  10954  10958     1
  10954  10956     1
  10954  10957     1
  10956  10959     1
  10956  10960     1
  10957  10959     1
  10957  10960     1
  10962  10969     1
  10962  10970     1
  10963  10968     1
  10963  10966     1
  10963  10967     1
  10964  10968     1
  10964  10966     1
  10964  10967     1
  10966  10990     1
  10966  10971     1
  10966  10969     1
  10966  10970     1
  10967  10990     1
  10967  10971     1
  10967  10969     1
  10967  10970     1
  10968  10973     1
  10968  10974     1
  10968  10982     1
  10968  10983     1
  10969  10972     1
  10969  10981     1
  10970  10972     1
  10970  10981     1
  10971  10976     1
  10971  10977     1
  10971  10985     1
  10971  10986     1
  10972  10982     1
  10972  10983     1
  10973  10981     1
  10973  10978     1
  10973  10976     1
  10973  10977     1
  10974  10981     1
  10974  10978     1
  10974  10976     1
  10974  10977     1
  10976  10979     1
  10976  10980     1
  10977  10979     1
  10977  10980     1
  10982  10987     1
  10982  10985     1
  10982  10986     1
  10983  10987     1
  10983  10985     1
  10983  10986     1
  10985  10988     1
  10985  10989     1
  10986  10988     1
  10986  10989     1
  10991  10998     1
  10991  10999     1
  10992  10997     1
  10992  10995     1
  10992  10996     1
  10993  10997     1
  10993  10995     1
  10993  10996     1
  10995  11000     1
  10995  10998     1
  10995  10999     1
  10995  11019     1
  10996  11000     1
  10996  10998     1
  10996  10999     1
  10996  11019     1
  10997  11002     1
  10997  11003     1
  10997  11011     1
  10997  11012     1
  10998  11001     1
  10998  11010     1
  10999  11001     1
  10999  11010     1
  11000  11005     1
  11000  11006     1
  11000  11014     1
  11000  11015     1
  11001  11011     1
  11001  11012     1
  11002  11007     1
  11002  11005     1
  11002  11006     1
  11002  11010     1
  11003  11007     1
  11003  11005     1
  11003  11006     1
  11003  11010     1
  11005  11008     1
  11005  11009     1
  11006  11008     1
  11006  11009     1
  11011  11016     1
  11011  11014     1
  11011  11015     1
  11012  11016     1
  11012  11014     1
  11012  11015     1
  11014  11017     1
  11014  11018     1
  11015  11017     1
  11015  11018     1
  11020  11027     1
  11020  11028     1
  11021  11026     1
  11021  11024     1
  11021  11025     1
  11022  11026     1
  11022  11024     1
  11022  11025     1
  11024  11048     1
  11024  11029     1
  11024  11027     1
  11024  11028     1
  11025  11048     1
  11025  11029     1
  11025  11027     1
  11025  11028     1
  11026  11031     1
  11026  11032     1
  11026  11040     1
  11026  11041     1
  11027  11030     1
  11027  11039     1
  11028  11030     1
  11028  11039     1
  11029  11034     1
  11029  11035     1
  11029  11043     1
  11029  11044     1
  11030  11040     1
  11030  11041     1
  11031  11039     1
  11031  11036     1
  11031  11034     1
  11031  11035     1
  11032  11039     1
  11032  11036     1
  11032  11034     1
  11032  11035     1
  11034  11037     1
  11034  11038     1
  11035  11037     1
  11035  11038     1
  11040  11045     1
  11040  11043     1
  11040  11044     1
  11041  11045     1
  11041  11043     1
  11041  11044     1
  11043  11046     1
  11043  11047     1
  11044  11046     1
  11044  11047     1
  11049  11056     1
  11049  11057     1
  11050  11055     1
  11050  11053     1
  11050  11054     1
  11051  11055     1
  11051  11053     1
  11051  11054     1
  11053  11058     1
  11053  11056     1
  11053  11057     1
  11053  11077     1
  11054  11058     1
  11054  11056     1
  11054  11057     1
  11054  11077     1
  11055  11060     1
  11055  11061     1
  11055  11069     1
  11055  11070     1
  11056  11059     1
  11056  11068     1
  11057  11059     1
  11057  11068     1
  11058  11063     1
  11058  11064     1
  11058  11072     1
  11058  11073     1
  11059  11069     1
  11059  11070     1
  11060  11065     1
  11060  11063     1
  11060  11064     1
  11060  11068     1
  11061  11065     1
  11061  11063     1
  11061  11064     1
  11061  11068     1
  11063  11066     1
  11063  11067     1
  11064  11066     1
  11064  11067     1
  11069  11074     1
  11069  11072     1
  11069  11073     1
  11070  11074     1
  11070  11072     1
  11070  11073     1
  11072  11075     1
  11072  11076     1
  11073  11075     1
  11073  11076     1

[ angles ]
;    ai     aj     ak funct         c0         c1         c2         c3
      1      2     14     1   111.0400475 552.288000
      1      5     17     1   111.0400475 552.288000
      1      8     11     1   111.0400475 552.288000
      2      1      5     1   112.3500484 533.878400
      2      1      8     1   112.3500484 533.878400
      2     14     26     1   111.5100476 526.347200
      5      1      8     1   112.3500484 533.878400
      5     17     20     1   111.5100476 526.347200
      8     11     23     1   111.5100476 526.347200
     11     23     86     1   107.9700462 569.024000
     14     26    115     1   107.9700462 569.024000
     17     20     57     1   107.9700462 569.024000
     20     57     48     1   112.4800480 524.673600
     23     86     77     1   112.4800480 524.673600
     26    115    106     1   112.4800480 524.673600
     29     30     42     1   111.0400475 552.288000
     29     33     45     1   111.0400475 552.288000
     29     36     39     1   111.0400475 552.288000
     30     29     33     1   112.3500484 533.878400
     30     29     36     1   112.3500484 533.878400
     30     42     54     1   111.5100476 526.347200
     33     29     36     1   112.3500484 533.878400
     33     45     51     1   111.5100476 526.347200
     36     39     48     1   111.5100476 526.347200
     39     48     57     1   107.9700462 569.024000
     42     54    173     1   107.9700462 569.024000
     45     51    144     1   107.9700462 569.024000
     51    144    135     1   112.4800480 524.673600
     54    173    164     1   112.4800480 524.673600
     58     59     71     1   111.0400475 552.288000
     58     62     74     1   111.0400475 552.288000
     58     65     68     1   111.0400475 552.288000
     59     58     62     1   112.3500484 533.878400
     59     58     65     1   112.3500484 533.878400
     59     71     83     1   111.5100476 526.347200
     62     58     65     1   112.3500484 533.878400
     62     74     80     1   111.5100476 526.347200
     65     68     77     1   111.5100476 526.347200
     68     77     86     1   107.9700462 569.024000
     71     83    231     1   107.9700462 569.024000
     74     80    202     1   107.9700462 569.024000
     80    202    193     1   112.4800480 524.673600
     83    231    222     1   112.4800480 524.673600
     87     88    100     1   111.0400475 552.288000
     87     91    103     1   111.0400475 552.288000
     87     94     97     1   111.0400475 552.288000
     88     87     91     1   112.3500484 533.878400
     88     87     94     1   112.3500484 533.878400
     88    100    112     1   111.5100476 526.347200
     91     87     94     1   112.3500484 533.878400
     91    103    109     1   111.5100476 526.347200
     94     97    106     1   111.5100476 526.347200
     97    106    115     1   107.9700462 569.024000
    100    112    289     1   107.9700462 569.024000
    103    109    260     1   107.9700462 569.024000
    109    260    251     1   112.4800480 524.673600
    112    289    280     1   112.4800480 524.673600
    116    117    129     1   111.0400475 552.288000
    116    120    132     1   111.0400475 552.288000
    116    123    126     1   111.0400475 552.288000
    117    116    120     1   112.3500484 533.878400
    117    116    123     1   112.3500484 533.878400
    117    129    141     1   111.5100476 526.347200
    120    116    123     1   112.3500484 533.878400
    120    132    138     1   111.5100476 526.347200
    123    126    135     1   111.5100476 526.347200
    126    135    144     1   107.9700462 569.024000
    129    141    347     1   107.9700462 569.024000
    132    138    318     1   107.9700462 569.024000
    138    318    309     1   112.4800480 524.673600
    141    347    338     1   112.4800480 524.673600
    145    146    158     1   111.0400475 552.288000
    145    149    161     1   111.0400475 552.288000
    145    152    155     1   111.0400475 552.288000
    146    145    149     1   112.3500484 533.878400
    146    145    152     1   112.3500484 533.878400
    146    158    170     1   111.5100476 526.347200
    149    145    152     1   112.3500484 533.878400
    149    161    167     1   111.5100476 526.347200
    152    155    164     1   111.5100476 526.347200
    155    164    173     1   107.9700462 569.024000
    158    170    405     1   107.9700462 569.024000
    161    167    376     1   107.9700462 569.024000
    167    376    367     1   112.4800480 524.673600
    170    405    396     1   112.4800480 524.673600
    174    175    187     1   111.0400475 552.288000
    174    178    190     1   111.0400475 552.288000
    174    181    184     1   111.0400475 552.288000
    175    174    178     1   112.3500484 533.878400
    175    174    181     1   112.3500484 533.878400
    175    187    199     1   111.5100476 526.347200
    178    174    181     1   112.3500484 533.878400
    178    190    196     1   111.5100476 526.347200
    181    184    193     1   111.5100476 526.347200
    184    193    202     1   107.9700462 569.024000
    187    199    463     1   107.9700462 569.024000
    190    196    434     1   107.9700462 569.024000
    196    434    425     1   112.4800480 524.673600
    199    463    454     1   112.4800480 524.673600
    203    204    216     1   111.0400475 552.288000
    203    207    219     1   111.0400475 552.288000
    203    210    213     1   111.0400475 552.288000
    204    203    207     1   112.3500484 533.878400
    204    203    210     1   112.3500484 533.878400
    204    216    228     1   111.5100476 526.347200
    207    203    210     1   112.3500484 533.878400
    207    219    225     1   111.5100476 526.347200
    210    213    222     1   111.5100476 526.347200
    213    222    231     1   107.9700462 569.024000
    216    228    521     1   107.9700462 569.024000
    219    225    492     1   107.9700462 569.024000
    225    492    483     1   112.4800480 524.673600
    228    521    512     1   112.4800480 524.673600
    232    233    245     1   111.0400475 552.288000
    232    236    248     1   111.0400475 552.288000
    232    239    242     1   111.0400475 552.288000
    233    232    236     1   112.3500484 533.878400
    233    232    239     1   112.3500484 533.878400
    233    245    257     1   111.5100476 526.347200
    236    232    239     1   112.3500484 533.878400
    236    248    254     1   111.5100476 526.347200
    239    242    251     1   111.5100476 526.347200
    242    251    260     1   107.9700462 569.024000
    245    257    579     1   107.9700462 569.024000
    248    254    550     1   107.9700462 569.024000
    254    550    541     1   112.4800480 524.673600
    257    579    570     1   112.4800480 524.673600
    261    262    274     1   111.0400475 552.288000
    261    265    277     1   111.0400475 552.288000
    261    268    271     1   111.0400475 552.288000
    262    261    265     1   112.3500484 533.878400
    262    261    268     1   112.3500484 533.878400
    262    274    286     1   111.5100476 526.347200
    265    261    268     1   112.3500484 533.878400
    265    277    283     1   111.5100476 526.347200
    268    271    280     1   111.5100476 526.347200
    271    280    289     1   107.9700462 569.024000
    274    286    637     1   107.9700462 569.024000
    277    283    608     1   107.9700462 569.024000
    283    608    599     1   112.4800480 524.673600
    286    637    628     1   112.4800480 524.673600
    290    291    303     1   111.0400475 552.288000
    290    294    306     1   111.0400475 552.288000
    290    297    300     1   111.0400475 552.288000
    291    290    294     1   112.3500484 533.878400
    291    290    297     1   112.3500484 533.878400
    291    303    315     1   111.5100476 526.347200
    294    290    297     1   112.3500484 533.878400
    294    306    312     1   111.5100476 526.347200
    297    300    309     1   111.5100476 526.347200
    300    309    318     1   107.9700462 569.024000
    303    315    695     1   107.9700462 569.024000
    306    312    666     1   107.9700462 569.024000
    312    666    657     1   112.4800480 524.673600
    315    695    686     1   112.4800480 524.673600
    319    320    332     1   111.0400475 552.288000
    319    323    335     1   111.0400475 552.288000
    319    326    329     1   111.0400475 552.288000
    320    319    323     1   112.3500484 533.878400
    320    319    326     1   112.3500484 533.878400
    320    332    344     1   111.5100476 526.347200
    323    319    326     1   112.3500484 533.878400
    323    335    341     1   111.5100476 526.347200
    326    329    338     1   111.5100476 526.347200
    329    338    347     1   107.9700462 569.024000
    332    344    753     1   107.9700462 569.024000
    335    341    724     1   107.9700462 569.024000
    341    724    715     1   112.4800480 524.673600
    344    753    744     1   112.4800480 524.673600
    348    349    361     1   111.0400475 552.288000
    348    352    364     1   111.0400475 552.288000
    348    355    358     1   111.0400475 552.288000
    349    348    352     1   112.3500484 533.878400
    349    348    355     1   112.3500484 533.878400
    349    361    373     1   111.5100476 526.347200
    352    348    355     1   112.3500484 533.878400
    352    364    370     1   111.5100476 526.347200
    355    358    367     1   111.5100476 526.347200
    358    367    376     1   107.9700462 569.024000
    361    373    811     1   107.9700462 569.024000
    364    370    782     1   107.9700462 569.024000
    370    782    773     1   112.4800480 524.673600
    373    811    802     1   112.4800480 524.673600
    377    378    390     1   111.0400475 552.288000
    377    381    393     1   111.0400475 552.288000
    377    384    387     1   111.0400475 552.288000
    378    377    381     1   112.3500484 533.878400
    378    377    384     1   112.3500484 533.878400
    378    390    402     1   111.5100476 526.347200
    381    377    384     1   112.3500484 533.878400
    381    393    399     1   111.5100476 526.347200
    384    387    396     1   111.5100476 526.347200
    387    396    405     1   107.9700462 569.024000
    390    402    869     1   107.9700462 569.024000
    393    399    840     1   107.9700462 569.024000
    399    840    831     1   112.4800480 524.673600
    402    869    860     1   112.4800480 524.673600
    406    407    419     1   111.0400475 552.288000
    406    410    422     1   111.0400475 552.288000
    406    413    416     1   111.0400475 552.288000
    407    406    410     1   112.3500484 533.878400
    407    406    413     1   112.3500484 533.878400
    407    419    431     1   111.5100476 526.347200
    410    406    413     1   112.3500484 533.878400
    410    422    428     1   111.5100476 526.347200
    413    416    425     1   111.5100476 526.347200
    416    425    434     1   107.9700462 569.024000
    419    431    927     1   107.9700462 569.024000
    422    428    898     1   107.9700462 569.024000
    428    898    889     1   112.4800480 524.673600
    431    927    918     1   112.4800480 524.673600
    435    436    448     1   111.0400475 552.288000
    435    439    451     1   111.0400475 552.288000
    435    442    445     1   111.0400475 552.288000
    436    435    439     1   112.3500484 533.878400
    436    435    442     1   112.3500484 533.878400
    436    448    460     1   111.5100476 526.347200
    439    435    442     1   112.3500484 533.878400
    439    451    457     1   111.5100476 526.347200
    442    445    454     1   111.5100476 526.347200
    445    454    463     1   107.9700462 569.024000
    448    460    985     1   107.9700462 569.024000
    451    457    956     1   107.9700462 569.024000
    457    956    947     1   112.4800480 524.673600
    460    985    976     1   112.4800480 524.673600
    464    465    477     1   111.0400475 552.288000
    464    468    480     1   111.0400475 552.288000
    464    471    474     1   111.0400475 552.288000
    465    464    468     1   112.3500484 533.878400
    465    464    471     1   112.3500484 533.878400
    465    477    489     1   111.5100476 526.347200
    468    464    471     1   112.3500484 533.878400
    468    480    486     1   111.5100476 526.347200
    471    474    483     1   111.5100476 526.347200
    474    483    492     1   107.9700462 569.024000
    477    489   1043     1   107.9700462 569.024000
    480    486   1014     1   107.9700462 569.024000
    486   1014   1005     1   112.4800480 524.673600
    489   1043   1034     1   112.4800480 524.673600
    493    494    506     1   111.0400475 552.288000
    493    497    509     1   111.0400475 552.288000
    493    500    503     1   111.0400475 552.288000
    494    493    497     1   112.3500484 533.878400
    494    493    500     1   112.3500484 533.878400
    494    506    518     1   111.5100476 526.347200
    497    493    500     1   112.3500484 533.878400
    497    509    515     1   111.5100476 526.347200
    500    503    512     1   111.5100476 526.347200
    503    512    521     1   107.9700462 569.024000
    506    518   1101     1   107.9700462 569.024000
    509    515   1072     1   107.9700462 569.024000
    515   1072   1063     1   112.4800480 524.673600
    518   1101   1092     1   112.4800480 524.673600
    522    523    535     1   111.0400475 552.288000
    522    526    538     1   111.0400475 552.288000
    522    529    532     1   111.0400475 552.288000
    523    522    526     1   112.3500484 533.878400
    523    522    529     1   112.3500484 533.878400
    523    535    547     1   111.5100476 526.347200
    526    522    529     1   112.3500484 533.878400
    526    538    544     1   111.5100476 526.347200
    529    532    541     1   111.5100476 526.347200
    532    541    550     1   107.9700462 569.024000
    535    547   1159     1   107.9700462 569.024000
    538    544   1130     1   107.9700462 569.024000
    544   1130   1121     1   112.4800480 524.673600
    547   1159   1150     1   112.4800480 524.673600
    551    552    564     1   111.0400475 552.288000
    551    555    567     1   111.0400475 552.288000
    551    558    561     1   111.0400475 552.288000
    552    551    555     1   112.3500484 533.878400
    552    551    558     1   112.3500484 533.878400
    552    564    576     1   111.5100476 526.347200
    555    551    558     1   112.3500484 533.878400
    555    567    573     1   111.5100476 526.347200
    558    561    570     1   111.5100476 526.347200
    561    570    579     1   107.9700462 569.024000
    564    576   1217     1   107.9700462 569.024000
    567    573   1188     1   107.9700462 569.024000
    573   1188   1179     1   112.4800480 524.673600
    576   1217   1208     1   112.4800480 524.673600
    580    581    593     1   111.0400475 552.288000
    580    584    596     1   111.0400475 552.288000
    580    587    590     1   111.0400475 552.288000
    581    580    584     1   112.3500484 533.878400
    581    580    587     1   112.3500484 533.878400
    581    593    605     1   111.5100476 526.347200
    584    580    587     1   112.3500484 533.878400
    584    596    602     1   111.5100476 526.347200
    587    590    599     1   111.5100476 526.347200
    590    599    608     1   107.9700462 569.024000
    593    605   1275     1   107.9700462 569.024000
    596    602   1246     1   107.9700462 569.024000
    602   1246   1237     1   112.4800480 524.673600
    605   1275   1266     1   112.4800480 524.673600
    609    610    622     1   111.0400475 552.288000
    609    613    625     1   111.0400475 552.288000
    609    616    619     1   111.0400475 552.288000
    610    609    613     1   112.3500484 533.878400
    610    609    616     1   112.3500484 533.878400
    610    622    634     1   111.5100476 526.347200
    613    609    616     1   112.3500484 533.878400
    613    625    631     1   111.5100476 526.347200
    616    619    628     1   111.5100476 526.347200
    619    628    637     1   107.9700462 569.024000
    622    634   1333     1   107.9700462 569.024000
    625    631   1304     1   107.9700462 569.024000
    631   1304   1295     1   112.4800480 524.673600
    634   1333   1324     1   112.4800480 524.673600
    638    639    651     1   111.0400475 552.288000
    638    642    654     1   111.0400475 552.288000
    638    645    648     1   111.0400475 552.288000
    639    638    642     1   112.3500484 533.878400
    639    638    645     1   112.3500484 533.878400
    639    651    663     1   111.5100476 526.347200
    642    638    645     1   112.3500484 533.878400
    642    654    660     1   111.5100476 526.347200
    645    648    657     1   111.5100476 526.347200
    648    657    666     1   107.9700462 569.024000
    651    663   1391     1   107.9700462 569.024000
    654    660   1362     1   107.9700462 569.024000
    660   1362   1353     1   112.4800480 524.673600
    663   1391   1382     1   112.4800480 524.673600
    667    668    680     1   111.0400475 552.288000
    667    671    683     1   111.0400475 552.288000
    667    674    677     1   111.0400475 552.288000
    668    667    671     1   112.3500484 533.878400
    668    667    674     1   112.3500484 533.878400
    668    680    692     1   111.5100476 526.347200
    671    667    674     1   112.3500484 533.878400
    671    683    689     1   111.5100476 526.347200
    674    677    686     1   111.5100476 526.347200
    677    686    695     1   107.9700462 569.024000
    680    692   1449     1   107.9700462 569.024000
    683    689   1420     1   107.9700462 569.024000
    689   1420   1411     1   112.4800480 524.673600
    692   1449   1440     1   112.4800480 524.673600
    696    697    709     1   111.0400475 552.288000
    696    700    712     1   111.0400475 552.288000
    696    703    706     1   111.0400475 552.288000
    697    696    700     1   112.3500484 533.878400
    697    696    703     1   112.3500484 533.878400
    697    709    721     1   111.5100476 526.347200
    700    696    703     1   112.3500484 533.878400
    700    712    718     1   111.5100476 526.347200
    703    706    715     1   111.5100476 526.347200
    706    715    724     1   107.9700462 569.024000
    709    721   1507     1   107.9700462 569.024000
    712    718   1478     1   107.9700462 569.024000
    718   1478   1469     1   112.4800480 524.673600
    721   1507   1498     1   112.4800480 524.673600
    725    726    738     1   111.0400475 552.288000
    725    729    741     1   111.0400475 552.288000
    725    732    735     1   111.0400475 552.288000
    726    725    729     1   112.3500484 533.878400
    726    725    732     1   112.3500484 533.878400
    726    738    750     1   111.5100476 526.347200
    729    725    732     1   112.3500484 533.878400
    729    741    747     1   111.5100476 526.347200
    732    735    744     1   111.5100476 526.347200
    735    744    753     1   107.9700462 569.024000
    738    750   1565     1   107.9700462 569.024000
    741    747   1536     1   107.9700462 569.024000
    747   1536   1527     1   112.4800480 524.673600
    750   1565   1556     1   112.4800480 524.673600
    754    755    767     1   111.0400475 552.288000
    754    758    770     1   111.0400475 552.288000
    754    761    764     1   111.0400475 552.288000
    755    754    758     1   112.3500484 533.878400
    755    754    761     1   112.3500484 533.878400
    755    767    779     1   111.5100476 526.347200
    758    754    761     1   112.3500484 533.878400
    758    770    776     1   111.5100476 526.347200
    761    764    773     1   111.5100476 526.347200
    764    773    782     1   107.9700462 569.024000
    767    779   1623     1   107.9700462 569.024000
    770    776   1594     1   107.9700462 569.024000
    776   1594   1585     1   112.4800480 524.673600
    779   1623   1614     1   112.4800480 524.673600
    783    784    796     1   111.0400475 552.288000
    783    787    799     1   111.0400475 552.288000
    783    790    793     1   111.0400475 552.288000
    784    783    787     1   112.3500484 533.878400
    784    783    790     1   112.3500484 533.878400
    784    796    808     1   111.5100476 526.347200
    787    783    790     1   112.3500484 533.878400
    787    799    805     1   111.5100476 526.347200
    790    793    802     1   111.5100476 526.347200
    793    802    811     1   107.9700462 569.024000
    796    808   1681     1   107.9700462 569.024000
    799    805   1652     1   107.9700462 569.024000
    805   1652   1643     1   112.4800480 524.673600
    808   1681   1672     1   112.4800480 524.673600
    812    813    825     1   111.0400475 552.288000
    812    816    828     1   111.0400475 552.288000
    812    819    822     1   111.0400475 552.288000
    813    812    816     1   112.3500484 533.878400
    813    812    819     1   112.3500484 533.878400
    813    825    837     1   111.5100476 526.347200
    816    812    819     1   112.3500484 533.878400
    816    828    834     1   111.5100476 526.347200
    819    822    831     1   111.5100476 526.347200
    822    831    840     1   107.9700462 569.024000
    825    837   1739     1   107.9700462 569.024000
    828    834   1710     1   107.9700462 569.024000
    834   1710   1701     1   112.4800480 524.673600
    837   1739   1730     1   112.4800480 524.673600
    841    842    854     1   111.0400475 552.288000
    841    845    857     1   111.0400475 552.288000
    841    848    851     1   111.0400475 552.288000
    842    841    845     1   112.3500484 533.878400
    842    841    848     1   112.3500484 533.878400
    842    854    866     1   111.5100476 526.347200
    845    841    848     1   112.3500484 533.878400
    845    857    863     1   111.5100476 526.347200
    848    851    860     1   111.5100476 526.347200
    851    860    869     1   107.9700462 569.024000
    854    866   1797     1   107.9700462 569.024000
    857    863   1768     1   107.9700462 569.024000
    863   1768   1759     1   112.4800480 524.673600
    866   1797   1788     1   112.4800480 524.673600
    870    871    883     1   111.0400475 552.288000
    870    874    886     1   111.0400475 552.288000
    870    877    880     1   111.0400475 552.288000
    871    870    874     1   112.3500484 533.878400
    871    870    877     1   112.3500484 533.878400
    871    883    895     1   111.5100476 526.347200
    874    870    877     1   112.3500484 533.878400
    874    886    892     1   111.5100476 526.347200
    877    880    889     1   111.5100476 526.347200
    880    889    898     1   107.9700462 569.024000
    883    895   1855     1   107.9700462 569.024000
    886    892   1826     1   107.9700462 569.024000
    892   1826   1817     1   112.4800480 524.673600
    895   1855   1846     1   112.4800480 524.673600
    899    900    912     1   111.0400475 552.288000
    899    903    915     1   111.0400475 552.288000
    899    906    909     1   111.0400475 552.288000
    900    899    903     1   112.3500484 533.878400
    900    899    906     1   112.3500484 533.878400
    900    912    924     1   111.5100476 526.347200
    903    899    906     1   112.3500484 533.878400
    903    915    921     1   111.5100476 526.347200
    906    909    918     1   111.5100476 526.347200
    909    918    927     1   107.9700462 569.024000
    912    924   1913     1   107.9700462 569.024000
    915    921   1884     1   107.9700462 569.024000
    921   1884   1875     1   112.4800480 524.673600
    924   1913   1904     1   112.4800480 524.673600
    928    929    941     1   111.0400475 552.288000
    928    932    944     1   111.0400475 552.288000
    928    935    938     1   111.0400475 552.288000
    929    928    932     1   112.3500484 533.878400
    929    928    935     1   112.3500484 533.878400
    929    941    953     1   111.5100476 526.347200
    932    928    935     1   112.3500484 533.878400
    932    944    950     1   111.5100476 526.347200
    935    938    947     1   111.5100476 526.347200
    938    947    956     1   107.9700462 569.024000
    941    953   1971     1   107.9700462 569.024000
    944    950   1942     1   107.9700462 569.024000
    950   1942   1933     1   112.4800480 524.673600
    953   1971   1962     1   112.4800480 524.673600
    957    958    970     1   111.0400475 552.288000
    957    961    973     1   111.0400475 552.288000
    957    964    967     1   111.0400475 552.288000
    958    957    961     1   112.3500484 533.878400
    958    957    964     1   112.3500484 533.878400
    958    970    982     1   111.5100476 526.347200
    961    957    964     1   112.3500484 533.878400
    961    973    979     1   111.5100476 526.347200
    964    967    976     1   111.5100476 526.347200
    967    976    985     1   107.9700462 569.024000
    970    982   2029     1   107.9700462 569.024000
    973    979   2000     1   107.9700462 569.024000
    979   2000   1991     1   112.4800480 524.673600
    982   2029   2020     1   112.4800480 524.673600
    986    987    999     1   111.0400475 552.288000
    986    990   1002     1   111.0400475 552.288000
    986    993    996     1   111.0400475 552.288000
    987    986    990     1   112.3500484 533.878400
    987    986    993     1   112.3500484 533.878400
    987    999   1011     1   111.5100476 526.347200
    990    986    993     1   112.3500484 533.878400
    990   1002   1008     1   111.5100476 526.347200
    993    996   1005     1   111.5100476 526.347200
    996   1005   1014     1   107.9700462 569.024000
    999   1011   2087     1   107.9700462 569.024000
   1002   1008   2058     1   107.9700462 569.024000
   1008   2058   2049     1   112.4800480 524.673600
   1011   2087   2078     1   112.4800480 524.673600
   1015   1016   1028     1   111.0400475 552.288000
   1015   1019   1031     1   111.0400475 552.288000
   1015   1022   1025     1   111.0400475 552.288000
   1016   1015   1019     1   112.3500484 533.878400
   1016   1015   1022     1   112.3500484 533.878400
   1016   1028   1040     1   111.5100476 526.347200
   1019   1015   1022     1   112.3500484 533.878400
   1019   1031   1037     1   111.5100476 526.347200
   1022   1025   1034     1   111.5100476 526.347200
   1025   1034   1043     1   107.9700462 569.024000
   1028   1040   2145     1   107.9700462 569.024000
   1031   1037   2116     1   107.9700462 569.024000
   1037   2116   2107     1   112.4800480 524.673600
   1040   2145   2136     1   112.4800480 524.673600
   1044   1045   1057     1   111.0400475 552.288000
   1044   1048   1060     1   111.0400475 552.288000
   1044   1051   1054     1   111.0400475 552.288000
   1045   1044   1048     1   112.3500484 533.878400
   1045   1044   1051     1   112.3500484 533.878400
   1045   1057   1069     1   111.5100476 526.347200
   1048   1044   1051     1   112.3500484 533.878400
   1048   1060   1066     1   111.5100476 526.347200
   1051   1054   1063     1   111.5100476 526.347200
   1054   1063   1072     1   107.9700462 569.024000
   1057   1069   2203     1   107.9700462 569.024000
   1060   1066   2174     1   107.9700462 569.024000
   1066   2174   2165     1   112.4800480 524.673600
   1069   2203   2194     1   112.4800480 524.673600
   1073   1074   1086     1   111.0400475 552.288000
   1073   1077   1089     1   111.0400475 552.288000
   1073   1080   1083     1   111.0400475 552.288000
   1074   1073   1077     1   112.3500484 533.878400
   1074   1073   1080     1   112.3500484 533.878400
   1074   1086   1098     1   111.5100476 526.347200
   1077   1073   1080     1   112.3500484 533.878400
   1077   1089   1095     1   111.5100476 526.347200
   1080   1083   1092     1   111.5100476 526.347200
   1083   1092   1101     1   107.9700462 569.024000
   1086   1098   2261     1   107.9700462 569.024000
   1089   1095   2232     1   107.9700462 569.024000
   1095   2232   2223     1   112.4800480 524.673600
   1098   2261   2252     1   112.4800480 524.673600
   1102   1103   1115     1   111.0400475 552.288000
   1102   1106   1118     1   111.0400475 552.288000
   1102   1109   1112     1   111.0400475 552.288000
   1103   1102   1106     1   112.3500484 533.878400
   1103   1102   1109     1   112.3500484 533.878400
   1103   1115   1127     1   111.5100476 526.347200
   1106   1102   1109     1   112.3500484 533.878400
   1106   1118   1124     1   111.5100476 526.347200
   1109   1112   1121     1   111.5100476 526.347200
   1112   1121   1130     1   107.9700462 569.024000
   1115   1127   2319     1   107.9700462 569.024000
   1118   1124   2290     1   107.9700462 569.024000
   1124   2290   2281     1   112.4800480 524.673600
   1127   2319   2310     1   112.4800480 524.673600
   1131   1132   1144     1   111.0400475 552.288000
   1131   1135   1147     1   111.0400475 552.288000
   1131   1138   1141     1   111.0400475 552.288000
   1132   1131   1135     1   112.3500484 533.878400
   1132   1131   1138     1   112.3500484 533.878400
   1132   1144   1156     1   111.5100476 526.347200
   1135   1131   1138     1   112.3500484 533.878400
   1135   1147   1153     1   111.5100476 526.347200
   1138   1141   1150     1   111.5100476 526.347200
   1141   1150   1159     1   107.9700462 569.024000
   1144   1156   2377     1   107.9700462 569.024000
   1147   1153   2348     1   107.9700462 569.024000
   1153   2348   2339     1   112.4800480 524.673600
   1156   2377   2368     1   112.4800480 524.673600
   1160   1161   1173     1   111.0400475 552.288000
   1160   1164   1176     1   111.0400475 552.288000
   1160   1167   1170     1   111.0400475 552.288000
   1161   1160   1164     1   112.3500484 533.878400
   1161   1160   1167     1   112.3500484 533.878400
   1161   1173   1185     1   111.5100476 526.347200
   1164   1160   1167     1   112.3500484 533.878400
   1164   1176   1182     1   111.5100476 526.347200
   1167   1170   1179     1   111.5100476 526.347200
   1170   1179   1188     1   107.9700462 569.024000
   1173   1185   2435     1   107.9700462 569.024000
   1176   1182   2406     1   107.9700462 569.024000
   1182   2406   2397     1   112.4800480 524.673600
   1185   2435   2426     1   112.4800480 524.673600
   1189   1190   1202     1   111.0400475 552.288000
   1189   1193   1205     1   111.0400475 552.288000
   1189   1196   1199     1   111.0400475 552.288000
   1190   1189   1193     1   112.3500484 533.878400
   1190   1189   1196     1   112.3500484 533.878400
   1190   1202   1214     1   111.5100476 526.347200
   1193   1189   1196     1   112.3500484 533.878400
   1193   1205   1211     1   111.5100476 526.347200
   1196   1199   1208     1   111.5100476 526.347200
   1199   1208   1217     1   107.9700462 569.024000
   1202   1214   2493     1   107.9700462 569.024000
   1205   1211   2464     1   107.9700462 569.024000
   1211   2464   2455     1   112.4800480 524.673600
   1214   2493   2484     1   112.4800480 524.673600
   1218   1219   1231     1   111.0400475 552.288000
   1218   1222   1234     1   111.0400475 552.288000
   1218   1225   1228     1   111.0400475 552.288000
   1219   1218   1222     1   112.3500484 533.878400
   1219   1218   1225     1   112.3500484 533.878400
   1219   1231   1243     1   111.5100476 526.347200
   1222   1218   1225     1   112.3500484 533.878400
   1222   1234   1240     1   111.5100476 526.347200
   1225   1228   1237     1   111.5100476 526.347200
   1228   1237   1246     1   107.9700462 569.024000
   1231   1243   2551     1   107.9700462 569.024000
   1234   1240   2522     1   107.9700462 569.024000
   1240   2522   2513     1   112.4800480 524.673600
   1243   2551   2542     1   112.4800480 524.673600
   1247   1248   1260     1   111.0400475 552.288000
   1247   1251   1263     1   111.0400475 552.288000
   1247   1254   1257     1   111.0400475 552.288000
   1248   1247   1251     1   112.3500484 533.878400
   1248   1247   1254     1   112.3500484 533.878400
   1248   1260   1272     1   111.5100476 526.347200
   1251   1247   1254     1   112.3500484 533.878400
   1251   1263   1269     1   111.5100476 526.347200
   1254   1257   1266     1   111.5100476 526.347200
   1257   1266   1275     1   107.9700462 569.024000
   1260   1272   2609     1   107.9700462 569.024000
   1263   1269   2580     1   107.9700462 569.024000
   1269   2580   2571     1   112.4800480 524.673600
   1272   2609   2600     1   112.4800480 524.673600
   1276   1277   1289     1   111.0400475 552.288000
   1276   1280   1292     1   111.0400475 552.288000
   1276   1283   1286     1   111.0400475 552.288000
   1277   1276   1280     1   112.3500484 533.878400
   1277   1276   1283     1   112.3500484 533.878400
   1277   1289   1301     1   111.5100476 526.347200
   1280   1276   1283     1   112.3500484 533.878400
   1280   1292   1298     1   111.5100476 526.347200
   1283   1286   1295     1   111.5100476 526.347200
   1286   1295   1304     1   107.9700462 569.024000
   1289   1301   2667     1   107.9700462 569.024000
   1292   1298   2638     1   107.9700462 569.024000
   1298   2638   2629     1   112.4800480 524.673600
   1301   2667   2658     1   112.4800480 524.673600
   1305   1306   1318     1   111.0400475 552.288000
   1305   1309   1321     1   111.0400475 552.288000
   1305   1312   1315     1   111.0400475 552.288000
   1306   1305   1309     1   112.3500484 533.878400
   1306   1305   1312     1   112.3500484 533.878400
   1306   1318   1330     1   111.5100476 526.347200
   1309   1305   1312     1   112.3500484 533.878400
   1309   1321   1327     1   111.5100476 526.347200
   1312   1315   1324     1   111.5100476 526.347200
   1315   1324   1333     1   107.9700462 569.024000
   1318   1330   2725     1   107.9700462 569.024000
   1321   1327   2696     1   107.9700462 569.024000
   1327   2696   2687     1   112.4800480 524.673600
   1330   2725   2716     1   112.4800480 524.673600
   1334   1335   1347     1   111.0400475 552.288000
   1334   1338   1350     1   111.0400475 552.288000
   1334   1341   1344     1   111.0400475 552.288000
   1335   1334   1338     1   112.3500484 533.878400
   1335   1334   1341     1   112.3500484 533.878400
   1335   1347   1359     1   111.5100476 526.347200
   1338   1334   1341     1   112.3500484 533.878400
   1338   1350   1356     1   111.5100476 526.347200
   1341   1344   1353     1   111.5100476 526.347200
   1344   1353   1362     1   107.9700462 569.024000
   1347   1359   2783     1   107.9700462 569.024000
   1350   1356   2754     1   107.9700462 569.024000
   1356   2754   2745     1   112.4800480 524.673600
   1359   2783   2774     1   112.4800480 524.673600
   1363   1364   1376     1   111.0400475 552.288000
   1363   1367   1379     1   111.0400475 552.288000
   1363   1370   1373     1   111.0400475 552.288000
   1364   1363   1367     1   112.3500484 533.878400
   1364   1363   1370     1   112.3500484 533.878400
   1364   1376   1388     1   111.5100476 526.347200
   1367   1363   1370     1   112.3500484 533.878400
   1367   1379   1385     1   111.5100476 526.347200
   1370   1373   1382     1   111.5100476 526.347200
   1373   1382   1391     1   107.9700462 569.024000
   1376   1388   2841     1   107.9700462 569.024000
   1379   1385   2812     1   107.9700462 569.024000
   1385   2812   2803     1   112.4800480 524.673600
   1388   2841   2832     1   112.4800480 524.673600
   1392   1393   1405     1   111.0400475 552.288000
   1392   1396   1408     1   111.0400475 552.288000
   1392   1399   1402     1   111.0400475 552.288000
   1393   1392   1396     1   112.3500484 533.878400
   1393   1392   1399     1   112.3500484 533.878400
   1393   1405   1417     1   111.5100476 526.347200
   1396   1392   1399     1   112.3500484 533.878400
   1396   1408   1414     1   111.5100476 526.347200
   1399   1402   1411     1   111.5100476 526.347200
   1402   1411   1420     1   107.9700462 569.024000
   1405   1417   2899     1   107.9700462 569.024000
   1408   1414   2870     1   107.9700462 569.024000
   1414   2870   2861     1   112.4800480 524.673600
   1417   2899   2890     1   112.4800480 524.673600
   1421   1422   1434     1   111.0400475 552.288000
   1421   1425   1437     1   111.0400475 552.288000
   1421   1428   1431     1   111.0400475 552.288000
   1422   1421   1425     1   112.3500484 533.878400
   1422   1421   1428     1   112.3500484 533.878400
   1422   1434   1446     1   111.5100476 526.347200
   1425   1421   1428     1   112.3500484 533.878400
   1425   1437   1443     1   111.5100476 526.347200
   1428   1431   1440     1   111.5100476 526.347200
   1431   1440   1449     1   107.9700462 569.024000
   1434   1446   2957     1   107.9700462 569.024000
   1437   1443   2928     1   107.9700462 569.024000
   1443   2928   2919     1   112.4800480 524.673600
   1446   2957   2948     1   112.4800480 524.673600
   1450   1451   1463     1   111.0400475 552.288000
   1450   1454   1466     1   111.0400475 552.288000
   1450   1457   1460     1   111.0400475 552.288000
   1451   1450   1454     1   112.3500484 533.878400
   1451   1450   1457     1   112.3500484 533.878400
   1451   1463   1475     1   111.5100476 526.347200
   1454   1450   1457     1   112.3500484 533.878400
   1454   1466   1472     1   111.5100476 526.347200
   1457   1460   1469     1   111.5100476 526.347200
   1460   1469   1478     1   107.9700462 569.024000
   1463   1475   3015     1   107.9700462 569.024000
   1466   1472   2986     1   107.9700462 569.024000
   1472   2986   2977     1   112.4800480 524.673600
   1475   3015   3006     1   112.4800480 524.673600
   1479   1480   1492     1   111.0400475 552.288000
   1479   1483   1495     1   111.0400475 552.288000
   1479   1486   1489     1   111.0400475 552.288000
   1480   1479   1483     1   112.3500484 533.878400
   1480   1479   1486     1   112.3500484 533.878400
   1480   1492   1504     1   111.5100476 526.347200
   1483   1479   1486     1   112.3500484 533.878400
   1483   1495   1501     1   111.5100476 526.347200
   1486   1489   1498     1   111.5100476 526.347200
   1489   1498   1507     1   107.9700462 569.024000
   1492   1504   3073     1   107.9700462 569.024000
   1495   1501   3044     1   107.9700462 569.024000
   1501   3044   3035     1   112.4800480 524.673600
   1504   3073   3064     1   112.4800480 524.673600
   1508   1509   1521     1   111.0400475 552.288000
   1508   1512   1524     1   111.0400475 552.288000
   1508   1515   1518     1   111.0400475 552.288000
   1509   1508   1512     1   112.3500484 533.878400
   1509   1508   1515     1   112.3500484 533.878400
   1509   1521   1533     1   111.5100476 526.347200
   1512   1508   1515     1   112.3500484 533.878400
   1512   1524   1530     1   111.5100476 526.347200
   1515   1518   1527     1   111.5100476 526.347200
   1518   1527   1536     1   107.9700462 569.024000
   1521   1533   3131     1   107.9700462 569.024000
   1524   1530   3102     1   107.9700462 569.024000
   1530   3102   3093     1   112.4800480 524.673600
   1533   3131   3122     1   112.4800480 524.673600
   1537   1538   1550     1   111.0400475 552.288000
   1537   1541   1553     1   111.0400475 552.288000
   1537   1544   1547     1   111.0400475 552.288000
   1538   1537   1541     1   112.3500484 533.878400
   1538   1537   1544     1   112.3500484 533.878400
   1538   1550   1562     1   111.5100476 526.347200
   1541   1537   1544     1   112.3500484 533.878400
   1541   1553   1559     1   111.5100476 526.347200
   1544   1547   1556     1   111.5100476 526.347200
   1547   1556   1565     1   107.9700462 569.024000
   1550   1562   3189     1   107.9700462 569.024000
   1553   1559   3160     1   107.9700462 569.024000
   1559   3160   3151     1   112.4800480 524.673600
   1562   3189   3180     1   112.4800480 524.673600
   1566   1567   1579     1   111.0400475 552.288000
   1566   1570   1582     1   111.0400475 552.288000
   1566   1573   1576     1   111.0400475 552.288000
   1567   1566   1570     1   112.3500484 533.878400
   1567   1566   1573     1   112.3500484 533.878400
   1567   1579   1591     1   111.5100476 526.347200
   1570   1566   1573     1   112.3500484 533.878400
   1570   1582   1588     1   111.5100476 526.347200
   1573   1576   1585     1   111.5100476 526.347200
   1576   1585   1594     1   107.9700462 569.024000
   1579   1591   3247     1   107.9700462 569.024000
   1582   1588   3218     1   107.9700462 569.024000
   1588   3218   3209     1   112.4800480 524.673600
   1591   3247   3238     1   112.4800480 524.673600
   1595   1596   1608     1   111.0400475 552.288000
   1595   1599   1611     1   111.0400475 552.288000
   1595   1602   1605     1   111.0400475 552.288000
   1596   1595   1599     1   112.3500484 533.878400
   1596   1595   1602     1   112.3500484 533.878400
   1596   1608   1620     1   111.5100476 526.347200
   1599   1595   1602     1   112.3500484 533.878400
   1599   1611   1617     1   111.5100476 526.347200
   1602   1605   1614     1   111.5100476 526.347200
   1605   1614   1623     1   107.9700462 569.024000
   1608   1620   3305     1   107.9700462 569.024000
   1611   1617   3276     1   107.9700462 569.024000
   1617   3276   3267     1   112.4800480 524.673600
   1620   3305   3296     1   112.4800480 524.673600
   1624   1625   1637     1   111.0400475 552.288000
   1624   1628   1640     1   111.0400475 552.288000
   1624   1631   1634     1   111.0400475 552.288000
   1625   1624   1628     1   112.3500484 533.878400
   1625   1624   1631     1   112.3500484 533.878400
   1625   1637   1649     1   111.5100476 526.347200
   1628   1624   1631     1   112.3500484 533.878400
   1628   1640   1646     1   111.5100476 526.347200
   1631   1634   1643     1   111.5100476 526.347200
   1634   1643   1652     1   107.9700462 569.024000
   1637   1649   3363     1   107.9700462 569.024000
   1640   1646   3334     1   107.9700462 569.024000
   1646   3334   3325     1   112.4800480 524.673600
   1649   3363   3354     1   112.4800480 524.673600
   1653   1654   1666     1   111.0400475 552.288000
   1653   1657   1669     1   111.0400475 552.288000
   1653   1660   1663     1   111.0400475 552.288000
   1654   1653   1657     1   112.3500484 533.878400
   1654   1653   1660     1   112.3500484 533.878400
   1654   1666   1678     1   111.5100476 526.347200
   1657   1653   1660     1   112.3500484 533.878400
   1657   1669   1675     1   111.5100476 526.347200
   1660   1663   1672     1   111.5100476 526.347200
   1663   1672   1681     1   107.9700462 569.024000
   1666   1678   3421     1   107.9700462 569.024000
   1669   1675   3392     1   107.9700462 569.024000
   1675   3392   3383     1   112.4800480 524.673600
   1678   3421   3412     1   112.4800480 524.673600
   1682   1683   1695     1   111.0400475 552.288000
   1682   1686   1698     1   111.0400475 552.288000
   1682   1689   1692     1   111.0400475 552.288000
   1683   1682   1686     1   112.3500484 533.878400
   1683   1682   1689     1   112.3500484 533.878400
   1683   1695   1707     1   111.5100476 526.347200
   1686   1682   1689     1   112.3500484 533.878400
   1686   1698   1704     1   111.5100476 526.347200
   1689   1692   1701     1   111.5100476 526.347200
   1692   1701   1710     1   107.9700462 569.024000
   1695   1707   3479     1   107.9700462 569.024000
   1698   1704   3450     1   107.9700462 569.024000
   1704   3450   3441     1   112.4800480 524.673600
   1707   3479   3470     1   112.4800480 524.673600
   1711   1712   1724     1   111.0400475 552.288000
   1711   1715   1727     1   111.0400475 552.288000
   1711   1718   1721     1   111.0400475 552.288000
   1712   1711   1715     1   112.3500484 533.878400
   1712   1711   1718     1   112.3500484 533.878400
   1712   1724   1736     1   111.5100476 526.347200
   1715   1711   1718     1   112.3500484 533.878400
   1715   1727   1733     1   111.5100476 526.347200
   1718   1721   1730     1   111.5100476 526.347200
   1721   1730   1739     1   107.9700462 569.024000
   1724   1736   3537     1   107.9700462 569.024000
   1727   1733   3508     1   107.9700462 569.024000
   1733   3508   3499     1   112.4800480 524.673600
   1736   3537   3528     1   112.4800480 524.673600
   1740   1741   1753     1   111.0400475 552.288000
   1740   1744   1756     1   111.0400475 552.288000
   1740   1747   1750     1   111.0400475 552.288000
   1741   1740   1744     1   112.3500484 533.878400
   1741   1740   1747     1   112.3500484 533.878400
   1741   1753   1765     1   111.5100476 526.347200
   1744   1740   1747     1   112.3500484 533.878400
   1744   1756   1762     1   111.5100476 526.347200
   1747   1750   1759     1   111.5100476 526.347200
   1750   1759   1768     1   107.9700462 569.024000
   1753   1765   3595     1   107.9700462 569.024000
   1756   1762   3566     1   107.9700462 569.024000
   1762   3566   3557     1   112.4800480 524.673600
   1765   3595   3586     1   112.4800480 524.673600
   1769   1770   1782     1   111.0400475 552.288000
   1769   1773   1785     1   111.0400475 552.288000
   1769   1776   1779     1   111.0400475 552.288000
   1770   1769   1773     1   112.3500484 533.878400
   1770   1769   1776     1   112.3500484 533.878400
   1770   1782   1794     1   111.5100476 526.347200
   1773   1769   1776     1   112.3500484 533.878400
   1773   1785   1791     1   111.5100476 526.347200
   1776   1779   1788     1   111.5100476 526.347200
   1779   1788   1797     1   107.9700462 569.024000
   1782   1794   3653     1   107.9700462 569.024000
   1785   1791   3624     1   107.9700462 569.024000
   1791   3624   3615     1   112.4800480 524.673600
   1794   3653   3644     1   112.4800480 524.673600
   1798   1799   1811     1   111.0400475 552.288000
   1798   1802   1814     1   111.0400475 552.288000
   1798   1805   1808     1   111.0400475 552.288000
   1799   1798   1802     1   112.3500484 533.878400
   1799   1798   1805     1   112.3500484 533.878400
   1799   1811   1823     1   111.5100476 526.347200
   1802   1798   1805     1   112.3500484 533.878400
   1802   1814   1820     1   111.5100476 526.347200
   1805   1808   1817     1   111.5100476 526.347200
   1808   1817   1826     1   107.9700462 569.024000
   1811   1823   3711     1   107.9700462 569.024000
   1814   1820   3682     1   107.9700462 569.024000
   1820   3682   3673     1   112.4800480 524.673600
   1823   3711   3702     1   112.4800480 524.673600
   1827   1828   1840     1   111.0400475 552.288000
   1827   1831   1843     1   111.0400475 552.288000
   1827   1834   1837     1   111.0400475 552.288000
   1828   1827   1831     1   112.3500484 533.878400
   1828   1827   1834     1   112.3500484 533.878400
   1828   1840   1852     1   111.5100476 526.347200
   1831   1827   1834     1   112.3500484 533.878400
   1831   1843   1849     1   111.5100476 526.347200
   1834   1837   1846     1   111.5100476 526.347200
   1837   1846   1855     1   107.9700462 569.024000
   1840   1852   3769     1   107.9700462 569.024000
   1843   1849   3740     1   107.9700462 569.024000
   1849   3740   3731     1   112.4800480 524.673600
   1852   3769   3760     1   112.4800480 524.673600
   1856   1857   1869     1   111.0400475 552.288000
   1856   1860   1872     1   111.0400475 552.288000
   1856   1863   1866     1   111.0400475 552.288000
   1857   1856   1860     1   112.3500484 533.878400
   1857   1856   1863     1   112.3500484 533.878400
   1857   1869   1881     1   111.5100476 526.347200
   1860   1856   1863     1   112.3500484 533.878400
   1860   1872   1878     1   111.5100476 526.347200
   1863   1866   1875     1   111.5100476 526.347200
   1866   1875   1884     1   107.9700462 569.024000
   1869   1881   3827     1   107.9700462 569.024000
   1872   1878   3798     1   107.9700462 569.024000
   1878   3798   3789     1   112.4800480 524.673600
   1881   3827   3818     1   112.4800480 524.673600
   1885   1886   1898     1   111.0400475 552.288000
   1885   1889   1901     1   111.0400475 552.288000
   1885   1892   1895     1   111.0400475 552.288000
   1886   1885   1889     1   112.3500484 533.878400
   1886   1885   1892     1   112.3500484 533.878400
   1886   1898   1910     1   111.5100476 526.347200
   1889   1885   1892     1   112.3500484 533.878400
   1889   1901   1907     1   111.5100476 526.347200
   1892   1895   1904     1   111.5100476 526.347200
   1895   1904   1913     1   107.9700462 569.024000
   1898   1910   3885     1   107.9700462 569.024000
   1901   1907   3856     1   107.9700462 569.024000
   1907   3856   3847     1   112.4800480 524.673600
   1910   3885   3876     1   112.4800480 524.673600
   1914   1915   1927     1   111.0400475 552.288000
   1914   1918   1930     1   111.0400475 552.288000
   1914   1921   1924     1   111.0400475 552.288000
   1915   1914   1918     1   112.3500484 533.878400
   1915   1914   1921     1   112.3500484 533.878400
   1915   1927   1939     1   111.5100476 526.347200
   1918   1914   1921     1   112.3500484 533.878400
   1918   1930   1936     1   111.5100476 526.347200
   1921   1924   1933     1   111.5100476 526.347200
   1924   1933   1942     1   107.9700462 569.024000
   1927   1939   3943     1   107.9700462 569.024000
   1930   1936   3914     1   107.9700462 569.024000
   1936   3914   3905     1   112.4800480 524.673600
   1939   3943   3934     1   112.4800480 524.673600
   1943   1944   1956     1   111.0400475 552.288000
   1943   1947   1959     1   111.0400475 552.288000
   1943   1950   1953     1   111.0400475 552.288000
   1944   1943   1947     1   112.3500484 533.878400
   1944   1943   1950     1   112.3500484 533.878400
   1944   1956   1968     1   111.5100476 526.347200
   1947   1943   1950     1   112.3500484 533.878400
   1947   1959   1965     1   111.5100476 526.347200
   1950   1953   1962     1   111.5100476 526.347200
   1953   1962   1971     1   107.9700462 569.024000
   1956   1968   4001     1   107.9700462 569.024000
   1959   1965   3972     1   107.9700462 569.024000
   1965   3972   3963     1   112.4800480 524.673600
   1968   4001   3992     1   112.4800480 524.673600
   1972   1973   1985     1   111.0400475 552.288000
   1972   1976   1988     1   111.0400475 552.288000
   1972   1979   1982     1   111.0400475 552.288000
   1973   1972   1976     1   112.3500484 533.878400
   1973   1972   1979     1   112.3500484 533.878400
   1973   1985   1997     1   111.5100476 526.347200
   1976   1972   1979     1   112.3500484 533.878400
   1976   1988   1994     1   111.5100476 526.347200
   1979   1982   1991     1   111.5100476 526.347200
   1982   1991   2000     1   107.9700462 569.024000
   1985   1997   4059     1   107.9700462 569.024000
   1988   1994   4030     1   107.9700462 569.024000
   1994   4030   4021     1   112.4800480 524.673600
   1997   4059   4050     1   112.4800480 524.673600
   2001   2002   2014     1   111.0400475 552.288000
   2001   2005   2017     1   111.0400475 552.288000
   2001   2008   2011     1   111.0400475 552.288000
   2002   2001   2005     1   112.3500484 533.878400
   2002   2001   2008     1   112.3500484 533.878400
   2002   2014   2026     1   111.5100476 526.347200
   2005   2001   2008     1   112.3500484 533.878400
   2005   2017   2023     1   111.5100476 526.347200
   2008   2011   2020     1   111.5100476 526.347200
   2011   2020   2029     1   107.9700462 569.024000
   2014   2026   4117     1   107.9700462 569.024000
   2017   2023   4088     1   107.9700462 569.024000
   2023   4088   4079     1   112.4800480 524.673600
   2026   4117   4108     1   112.4800480 524.673600
   2030   2031   2043     1   111.0400475 552.288000
   2030   2034   2046     1   111.0400475 552.288000
   2030   2037   2040     1   111.0400475 552.288000
   2031   2030   2034     1   112.3500484 533.878400
   2031   2030   2037     1   112.3500484 533.878400
   2031   2043   2055     1   111.5100476 526.347200
   2034   2030   2037     1   112.3500484 533.878400
   2034   2046   2052     1   111.5100476 526.347200
   2037   2040   2049     1   111.5100476 526.347200
   2040   2049   2058     1   107.9700462 569.024000
   2043   2055   4175     1   107.9700462 569.024000
   2046   2052   4146     1   107.9700462 569.024000
   2052   4146   4137     1   112.4800480 524.673600
   2055   4175   4166     1   112.4800480 524.673600
   2059   2060   2072     1   111.0400475 552.288000
   2059   2063   2075     1   111.0400475 552.288000
   2059   2066   2069     1   111.0400475 552.288000
   2060   2059   2063     1   112.3500484 533.878400
   2060   2059   2066     1   112.3500484 533.878400
   2060   2072   2084     1   111.5100476 526.347200
   2063   2059   2066     1   112.3500484 533.878400
   2063   2075   2081     1   111.5100476 526.347200
   2066   2069   2078     1   111.5100476 526.347200
   2069   2078   2087     1   107.9700462 569.024000
   2072   2084   4233     1   107.9700462 569.024000
   2075   2081   4204     1   107.9700462 569.024000
   2081   4204   4195     1   112.4800480 524.673600
   2084   4233   4224     1   112.4800480 524.673600
   2088   2089   2101     1   111.0400475 552.288000
   2088   2092   2104     1   111.0400475 552.288000
   2088   2095   2098     1   111.0400475 552.288000
   2089   2088   2092     1   112.3500484 533.878400
   2089   2088   2095     1   112.3500484 533.878400
   2089   2101   2113     1   111.5100476 526.347200
   2092   2088   2095     1   112.3500484 533.878400
   2092   2104   2110     1   111.5100476 526.347200
   2095   2098   2107     1   111.5100476 526.347200
   2098   2107   2116     1   107.9700462 569.024000
   2101   2113   4291     1   107.9700462 569.024000
   2104   2110   4262     1   107.9700462 569.024000
   2110   4262   4253     1   112.4800480 524.673600
   2113   4291   4282     1   112.4800480 524.673600
   2117   2118   2130     1   111.0400475 552.288000
   2117   2121   2133     1   111.0400475 552.288000
   2117   2124   2127     1   111.0400475 552.288000
   2118   2117   2121     1   112.3500484 533.878400
   2118   2117   2124     1   112.3500484 533.878400
   2118   2130   2142     1   111.5100476 526.347200
   2121   2117   2124     1   112.3500484 533.878400
   2121   2133   2139     1   111.5100476 526.347200
   2124   2127   2136     1   111.5100476 526.347200
   2127   2136   2145     1   107.9700462 569.024000
   2130   2142   4349     1   107.9700462 569.024000
   2133   2139   4320     1   107.9700462 569.024000
   2139   4320   4311     1   112.4800480 524.673600
   2142   4349   4340     1   112.4800480 524.673600
   2146   2147   2159     1   111.0400475 552.288000
   2146   2150   2162     1   111.0400475 552.288000
   2146   2153   2156     1   111.0400475 552.288000
   2147   2146   2150     1   112.3500484 533.878400
   2147   2146   2153     1   112.3500484 533.878400
   2147   2159   2171     1   111.5100476 526.347200
   2150   2146   2153     1   112.3500484 533.878400
   2150   2162   2168     1   111.5100476 526.347200
   2153   2156   2165     1   111.5100476 526.347200
   2156   2165   2174     1   107.9700462 569.024000
   2159   2171   4407     1   107.9700462 569.024000
   2162   2168   4378     1   107.9700462 569.024000
   2168   4378   4369     1   112.4800480 524.673600
   2171   4407   4398     1   112.4800480 524.673600
   2175   2176   2188     1   111.0400475 552.288000
   2175   2179   2191     1   111.0400475 552.288000
   2175   2182   2185     1   111.0400475 552.288000
   2176   2175   2179     1   112.3500484 533.878400
   2176   2175   2182     1   112.3500484 533.878400
   2176   2188   2200     1   111.5100476 526.347200
   2179   2175   2182     1   112.3500484 533.878400
   2179   2191   2197     1   111.5100476 526.347200
   2182   2185   2194     1   111.5100476 526.347200
   2185   2194   2203     1   107.9700462 569.024000
   2188   2200   4465     1   107.9700462 569.024000
   2191   2197   4436     1   107.9700462 569.024000
   2197   4436   4427     1   112.4800480 524.673600
   2200   4465   4456     1   112.4800480 524.673600
   2204   2205   2217     1   111.0400475 552.288000
   2204   2208   2220     1   111.0400475 552.288000
   2204   2211   2214     1   111.0400475 552.288000
   2205   2204   2208     1   112.3500484 533.878400
   2205   2204   2211     1   112.3500484 533.878400
   2205   2217   2229     1   111.5100476 526.347200
   2208   2204   2211     1   112.3500484 533.878400
   2208   2220   2226     1   111.5100476 526.347200
   2211   2214   2223     1   111.5100476 526.347200
   2214   2223   2232     1   107.9700462 569.024000
   2217   2229   4523     1   107.9700462 569.024000
   2220   2226   4494     1   107.9700462 569.024000
   2226   4494   4485     1   112.4800480 524.673600
   2229   4523   4514     1   112.4800480 524.673600
   2233   2234   2246     1   111.0400475 552.288000
   2233   2237   2249     1   111.0400475 552.288000
   2233   2240   2243     1   111.0400475 552.288000
   2234   2233   2237     1   112.3500484 533.878400
   2234   2233   2240     1   112.3500484 533.878400
   2234   2246   2258     1   111.5100476 526.347200
   2237   2233   2240     1   112.3500484 533.878400
   2237   2249   2255     1   111.5100476 526.347200
   2240   2243   2252     1   111.5100476 526.347200
   2243   2252   2261     1   107.9700462 569.024000
   2246   2258   4581     1   107.9700462 569.024000
   2249   2255   4552     1   107.9700462 569.024000
   2255   4552   4543     1   112.4800480 524.673600
   2258   4581   4572     1   112.4800480 524.673600
   2262   2263   2275     1   111.0400475 552.288000
   2262   2266   2278     1   111.0400475 552.288000
   2262   2269   2272     1   111.0400475 552.288000
   2263   2262   2266     1   112.3500484 533.878400
   2263   2262   2269     1   112.3500484 533.878400
   2263   2275   2287     1   111.5100476 526.347200
   2266   2262   2269     1   112.3500484 533.878400
   2266   2278   2284     1   111.5100476 526.347200
   2269   2272   2281     1   111.5100476 526.347200
   2272   2281   2290     1   107.9700462 569.024000
   2275   2287   4639     1   107.9700462 569.024000
   2278   2284   4610     1   107.9700462 569.024000
   2284   4610   4601     1   112.4800480 524.673600
   2287   4639   4630     1   112.4800480 524.673600
   2291   2292   2304     1   111.0400475 552.288000
   2291   2295   2307     1   111.0400475 552.288000
   2291   2298   2301     1   111.0400475 552.288000
   2292   2291   2295     1   112.3500484 533.878400
   2292   2291   2298     1   112.3500484 533.878400
   2292   2304   2316     1   111.5100476 526.347200
   2295   2291   2298     1   112.3500484 533.878400
   2295   2307   2313     1   111.5100476 526.347200
   2298   2301   2310     1   111.5100476 526.347200
   2301   2310   2319     1   107.9700462 569.024000
   2304   2316   4697     1   107.9700462 569.024000
   2307   2313   4668     1   107.9700462 569.024000
   2313   4668   4659     1   112.4800480 524.673600
   2316   4697   4688     1   112.4800480 524.673600
   2320   2321   2333     1   111.0400475 552.288000
   2320   2324   2336     1   111.0400475 552.288000
   2320   2327   2330     1   111.0400475 552.288000
   2321   2320   2324     1   112.3500484 533.878400
   2321   2320   2327     1   112.3500484 533.878400
   2321   2333   2345     1   111.5100476 526.347200
   2324   2320   2327     1   112.3500484 533.878400
   2324   2336   2342     1   111.5100476 526.347200
   2327   2330   2339     1   111.5100476 526.347200
   2330   2339   2348     1   107.9700462 569.024000
   2333   2345   4755     1   107.9700462 569.024000
   2336   2342   4726     1   107.9700462 569.024000
   2342   4726   4717     1   112.4800480 524.673600
   2345   4755   4746     1   112.4800480 524.673600
   2349   2350   2362     1   111.0400475 552.288000
   2349   2353   2365     1   111.0400475 552.288000
   2349   2356   2359     1   111.0400475 552.288000
   2350   2349   2353     1   112.3500484 533.878400
   2350   2349   2356     1   112.3500484 533.878400
   2350   2362   2374     1   111.5100476 526.347200
   2353   2349   2356     1   112.3500484 533.878400
   2353   2365   2371     1   111.5100476 526.347200
   2356   2359   2368     1   111.5100476 526.347200
   2359   2368   2377     1   107.9700462 569.024000
   2362   2374   4813     1   107.9700462 569.024000
   2365   2371   4784     1   107.9700462 569.024000
   2371   4784   4775     1   112.4800480 524.673600
   2374   4813   4804     1   112.4800480 524.673600
   2378   2379   2391     1   111.0400475 552.288000
   2378   2382   2394     1   111.0400475 552.288000
   2378   2385   2388     1   111.0400475 552.288000
   2379   2378   2382     1   112.3500484 533.878400
   2379   2378   2385     1   112.3500484 533.878400
   2379   2391   2403     1   111.5100476 526.347200
   2382   2378   2385     1   112.3500484 533.878400
   2382   2394   2400     1   111.5100476 526.347200
   2385   2388   2397     1   111.5100476 526.347200
   2388   2397   2406     1   107.9700462 569.024000
   2391   2403   4871     1   107.9700462 569.024000
   2394   2400   4842     1   107.9700462 569.024000
   2400   4842   4833     1   112.4800480 524.673600
   2403   4871   4862     1   112.4800480 524.673600
   2407   2408   2420     1   111.0400475 552.288000
   2407   2411   2423     1   111.0400475 552.288000
   2407   2414   2417     1   111.0400475 552.288000
   2408   2407   2411     1   112.3500484 533.878400
   2408   2407   2414     1   112.3500484 533.878400
   2408   2420   2432     1   111.5100476 526.347200
   2411   2407   2414     1   112.3500484 533.878400
   2411   2423   2429     1   111.5100476 526.347200
   2414   2417   2426     1   111.5100476 526.347200
   2417   2426   2435     1   107.9700462 569.024000
   2420   2432   4929     1   107.9700462 569.024000
   2423   2429   4900     1   107.9700462 569.024000
   2429   4900   4891     1   112.4800480 524.673600
   2432   4929   4920     1   112.4800480 524.673600
   2436   2437   2449     1   111.0400475 552.288000
   2436   2440   2452     1   111.0400475 552.288000
   2436   2443   2446     1   111.0400475 552.288000
   2437   2436   2440     1   112.3500484 533.878400
   2437   2436   2443     1   112.3500484 533.878400
   2437   2449   2461     1   111.5100476 526.347200
   2440   2436   2443     1   112.3500484 533.878400
   2440   2452   2458     1   111.5100476 526.347200
   2443   2446   2455     1   111.5100476 526.347200
   2446   2455   2464     1   107.9700462 569.024000
   2449   2461   4987     1   107.9700462 569.024000
   2452   2458   4958     1   107.9700462 569.024000
   2458   4958   4949     1   112.4800480 524.673600
   2461   4987   4978     1   112.4800480 524.673600
   2465   2466   2478     1   111.0400475 552.288000
   2465   2469   2481     1   111.0400475 552.288000
   2465   2472   2475     1   111.0400475 552.288000
   2466   2465   2469     1   112.3500484 533.878400
   2466   2465   2472     1   112.3500484 533.878400
   2466   2478   2490     1   111.5100476 526.347200
   2469   2465   2472     1   112.3500484 533.878400
   2469   2481   2487     1   111.5100476 526.347200
   2472   2475   2484     1   111.5100476 526.347200
   2475   2484   2493     1   107.9700462 569.024000
   2478   2490   5045     1   107.9700462 569.024000
   2481   2487   5016     1   107.9700462 569.024000
   2487   5016   5007     1   112.4800480 524.673600
   2490   5045   5036     1   112.4800480 524.673600
   2494   2495   2507     1   111.0400475 552.288000
   2494   2498   2510     1   111.0400475 552.288000
   2494   2501   2504     1   111.0400475 552.288000
   2495   2494   2498     1   112.3500484 533.878400
   2495   2494   2501     1   112.3500484 533.878400
   2495   2507   2519     1   111.5100476 526.347200
   2498   2494   2501     1   112.3500484 533.878400
   2498   2510   2516     1   111.5100476 526.347200
   2501   2504   2513     1   111.5100476 526.347200
   2504   2513   2522     1   107.9700462 569.024000
   2507   2519   5103     1   107.9700462 569.024000
   2510   2516   5074     1   107.9700462 569.024000
   2516   5074   5065     1   112.4800480 524.673600
   2519   5103   5094     1   112.4800480 524.673600
   2523   2524   2536     1   111.0400475 552.288000
   2523   2527   2539     1   111.0400475 552.288000
   2523   2530   2533     1   111.0400475 552.288000
   2524   2523   2527     1   112.3500484 533.878400
   2524   2523   2530     1   112.3500484 533.878400
   2524   2536   2548     1   111.5100476 526.347200
   2527   2523   2530     1   112.3500484 533.878400
   2527   2539   2545     1   111.5100476 526.347200
   2530   2533   2542     1   111.5100476 526.347200
   2533   2542   2551     1   107.9700462 569.024000
   2536   2548   5161     1   107.9700462 569.024000
   2539   2545   5132     1   107.9700462 569.024000
   2545   5132   5123     1   112.4800480 524.673600
   2548   5161   5152     1   112.4800480 524.673600
   2552   2553   2565     1   111.0400475 552.288000
   2552   2556   2568     1   111.0400475 552.288000
   2552   2559   2562     1   111.0400475 552.288000
   2553   2552   2556     1   112.3500484 533.878400
   2553   2552   2559     1   112.3500484 533.878400
   2553   2565   2577     1   111.5100476 526.347200
   2556   2552   2559     1   112.3500484 533.878400
   2556   2568   2574     1   111.5100476 526.347200
   2559   2562   2571     1   111.5100476 526.347200
   2562   2571   2580     1   107.9700462 569.024000
   2565   2577   5219     1   107.9700462 569.024000
   2568   2574   5190     1   107.9700462 569.024000
   2574   5190   5181     1   112.4800480 524.673600
   2577   5219   5210     1   112.4800480 524.673600
   2581   2582   2594     1   111.0400475 552.288000
   2581   2585   2597     1   111.0400475 552.288000
   2581   2588   2591     1   111.0400475 552.288000
   2582   2581   2585     1   112.3500484 533.878400
   2582   2581   2588     1   112.3500484 533.878400
   2582   2594   2606     1   111.5100476 526.347200
   2585   2581   2588     1   112.3500484 533.878400
   2585   2597   2603     1   111.5100476 526.347200
   2588   2591   2600     1   111.5100476 526.347200
   2591   2600   2609     1   107.9700462 569.024000
   2594   2606   5277     1   107.9700462 569.024000
   2597   2603   5248     1   107.9700462 569.024000
   2603   5248   5239     1   112.4800480 524.673600
   2606   5277   5268     1   112.4800480 524.673600
   2610   2611   2623     1   111.0400475 552.288000
   2610   2614   2626     1   111.0400475 552.288000
   2610   2617   2620     1   111.0400475 552.288000
   2611   2610   2614     1   112.3500484 533.878400
   2611   2610   2617     1   112.3500484 533.878400
   2611   2623   2635     1   111.5100476 526.347200
   2614   2610   2617     1   112.3500484 533.878400
   2614   2626   2632     1   111.5100476 526.347200
   2617   2620   2629     1   111.5100476 526.347200
   2620   2629   2638     1   107.9700462 569.024000
   2623   2635   5335     1   107.9700462 569.024000
   2626   2632   5306     1   107.9700462 569.024000
   2632   5306   5297     1   112.4800480 524.673600
   2635   5335   5326     1   112.4800480 524.673600
   2639   2640   2652     1   111.0400475 552.288000
   2639   2643   2655     1   111.0400475 552.288000
   2639   2646   2649     1   111.0400475 552.288000
   2640   2639   2643     1   112.3500484 533.878400
   2640   2639   2646     1   112.3500484 533.878400
   2640   2652   2664     1   111.5100476 526.347200
   2643   2639   2646     1   112.3500484 533.878400
   2643   2655   2661     1   111.5100476 526.347200
   2646   2649   2658     1   111.5100476 526.347200
   2649   2658   2667     1   107.9700462 569.024000
   2652   2664   5393     1   107.9700462 569.024000
   2655   2661   5364     1   107.9700462 569.024000
   2661   5364   5355     1   112.4800480 524.673600
   2664   5393   5384     1   112.4800480 524.673600
   2668   2669   2681     1   111.0400475 552.288000
   2668   2672   2684     1   111.0400475 552.288000
   2668   2675   2678     1   111.0400475 552.288000
   2669   2668   2672     1   112.3500484 533.878400
   2669   2668   2675     1   112.3500484 533.878400
   2669   2681   2693     1   111.5100476 526.347200
   2672   2668   2675     1   112.3500484 533.878400
   2672   2684   2690     1   111.5100476 526.347200
   2675   2678   2687     1   111.5100476 526.347200
   2678   2687   2696     1   107.9700462 569.024000
   2681   2693   5451     1   107.9700462 569.024000
   2684   2690   5422     1   107.9700462 569.024000
   2690   5422   5413     1   112.4800480 524.673600
   2693   5451   5442     1   112.4800480 524.673600
   2697   2698   2710     1   111.0400475 552.288000
   2697   2701   2713     1   111.0400475 552.288000
   2697   2704   2707     1   111.0400475 552.288000
   2698   2697   2701     1   112.3500484 533.878400
   2698   2697   2704     1   112.3500484 533.878400
   2698   2710   2722     1   111.5100476 526.347200
   2701   2697   2704     1   112.3500484 533.878400
   2701   2713   2719     1   111.5100476 526.347200
   2704   2707   2716     1   111.5100476 526.347200
   2707   2716   2725     1   107.9700462 569.024000
   2710   2722   5509     1   107.9700462 569.024000
   2713   2719   5480     1   107.9700462 569.024000
   2719   5480   5471     1   112.4800480 524.673600
   2722   5509   5500     1   112.4800480 524.673600
   2726   2727   2739     1   111.0400475 552.288000
   2726   2730   2742     1   111.0400475 552.288000
   2726   2733   2736     1   111.0400475 552.288000
   2727   2726   2730     1   112.3500484 533.878400
   2727   2726   2733     1   112.3500484 533.878400
   2727   2739   2751     1   111.5100476 526.347200
   2730   2726   2733     1   112.3500484 533.878400
   2730   2742   2748     1   111.5100476 526.347200
   2733   2736   2745     1   111.5100476 526.347200
   2736   2745   2754     1   107.9700462 569.024000
   2739   2751   5567     1   107.9700462 569.024000
   2742   2748   5538     1   107.9700462 569.024000
   2748   5538   5510     1   112.4800480 524.673600
   2751   5567   5539     1   112.4800480 524.673600
   2755   2756   2768     1   111.0400475 552.288000
   2755   2759   2771     1   111.0400475 552.288000
   2755   2762   2765     1   111.0400475 552.288000
   2756   2755   2759     1   112.3500484 533.878400
   2756   2755   2762     1   112.3500484 533.878400
   2756   2768   2780     1   111.5100476 526.347200
   2759   2755   2762     1   112.3500484 533.878400
   2759   2771   2777     1   111.5100476 526.347200
   2762   2765   2774     1   111.5100476 526.347200
   2765   2774   2783     1   107.9700462 569.024000
   2768   2780   5625     1   107.9700462 569.024000
   2771   2777   5596     1   107.9700462 569.024000
   2777   5596   5568     1   112.4800480 524.673600
   2780   5625   5597     1   112.4800480 524.673600
   2784   2785   2797     1   111.0400475 552.288000
   2784   2788   2800     1   111.0400475 552.288000
   2784   2791   2794     1   111.0400475 552.288000
   2785   2784   2788     1   112.3500484 533.878400
   2785   2784   2791     1   112.3500484 533.878400
   2785   2797   2809     1   111.5100476 526.347200
   2788   2784   2791     1   112.3500484 533.878400
   2788   2800   2806     1   111.5100476 526.347200
   2791   2794   2803     1   111.5100476 526.347200
   2794   2803   2812     1   107.9700462 569.024000
   2797   2809   5683     1   107.9700462 569.024000
   2800   2806   5654     1   107.9700462 569.024000
   2806   5654   5626     1   112.4800480 524.673600
   2809   5683   5655     1   112.4800480 524.673600
   2813   2814   2826     1   111.0400475 552.288000
   2813   2817   2829     1   111.0400475 552.288000
   2813   2820   2823     1   111.0400475 552.288000
   2814   2813   2817     1   112.3500484 533.878400
   2814   2813   2820     1   112.3500484 533.878400
   2814   2826   2838     1   111.5100476 526.347200
   2817   2813   2820     1   112.3500484 533.878400
   2817   2829   2835     1   111.5100476 526.347200
   2820   2823   2832     1   111.5100476 526.347200
   2823   2832   2841     1   107.9700462 569.024000
   2826   2838   5741     1   107.9700462 569.024000
   2829   2835   5712     1   107.9700462 569.024000
   2835   5712   5684     1   112.4800480 524.673600
   2838   5741   5713     1   112.4800480 524.673600
   2842   2843   2855     1   111.0400475 552.288000
   2842   2846   2858     1   111.0400475 552.288000
   2842   2849   2852     1   111.0400475 552.288000
   2843   2842   2846     1   112.3500484 533.878400
   2843   2842   2849     1   112.3500484 533.878400
   2843   2855   2867     1   111.5100476 526.347200
   2846   2842   2849     1   112.3500484 533.878400
   2846   2858   2864     1   111.5100476 526.347200
   2849   2852   2861     1   111.5100476 526.347200
   2852   2861   2870     1   107.9700462 569.024000
   2855   2867   5799     1   107.9700462 569.024000
   2858   2864   5770     1   107.9700462 569.024000
   2864   5770   5742     1   112.4800480 524.673600
   2867   5799   5771     1   112.4800480 524.673600
   2871   2872   2884     1   111.0400475 552.288000
   2871   2875   2887     1   111.0400475 552.288000
   2871   2878   2881     1   111.0400475 552.288000
   2872   2871   2875     1   112.3500484 533.878400
   2872   2871   2878     1   112.3500484 533.878400
   2872   2884   2896     1   111.5100476 526.347200
   2875   2871   2878     1   112.3500484 533.878400
   2875   2887   2893     1   111.5100476 526.347200
   2878   2881   2890     1   111.5100476 526.347200
   2881   2890   2899     1   107.9700462 569.024000
   2884   2896   5857     1   107.9700462 569.024000
   2887   2893   5828     1   107.9700462 569.024000
   2893   5828   5800     1   112.4800480 524.673600
   2896   5857   5829     1   112.4800480 524.673600
   2900   2901   2913     1   111.0400475 552.288000
   2900   2904   2916     1   111.0400475 552.288000
   2900   2907   2910     1   111.0400475 552.288000
   2901   2900   2904     1   112.3500484 533.878400
   2901   2900   2907     1   112.3500484 533.878400
   2901   2913   2925     1   111.5100476 526.347200
   2904   2900   2907     1   112.3500484 533.878400
   2904   2916   2922     1   111.5100476 526.347200
   2907   2910   2919     1   111.5100476 526.347200
   2910   2919   2928     1   107.9700462 569.024000
   2913   2925   5915     1   107.9700462 569.024000
   2916   2922   5886     1   107.9700462 569.024000
   2922   5886   5858     1   112.4800480 524.673600
   2925   5915   5887     1   112.4800480 524.673600
   2929   2930   2942     1   111.0400475 552.288000
   2929   2933   2945     1   111.0400475 552.288000
   2929   2936   2939     1   111.0400475 552.288000
   2930   2929   2933     1   112.3500484 533.878400
   2930   2929   2936     1   112.3500484 533.878400
   2930   2942   2954     1   111.5100476 526.347200
   2933   2929   2936     1   112.3500484 533.878400
   2933   2945   2951     1   111.5100476 526.347200
   2936   2939   2948     1   111.5100476 526.347200
   2939   2948   2957     1   107.9700462 569.024000
   2942   2954   5973     1   107.9700462 569.024000
   2945   2951   5944     1   107.9700462 569.024000
   2951   5944   5916     1   112.4800480 524.673600
   2954   5973   5945     1   112.4800480 524.673600
   2958   2959   2971     1   111.0400475 552.288000
   2958   2962   2974     1   111.0400475 552.288000
   2958   2965   2968     1   111.0400475 552.288000
   2959   2958   2962     1   112.3500484 533.878400
   2959   2958   2965     1   112.3500484 533.878400
   2959   2971   2983     1   111.5100476 526.347200
   2962   2958   2965     1   112.3500484 533.878400
   2962   2974   2980     1   111.5100476 526.347200
   2965   2968   2977     1   111.5100476 526.347200
   2968   2977   2986     1   107.9700462 569.024000
   2971   2983   6031     1   107.9700462 569.024000
   2974   2980   6002     1   107.9700462 569.024000
   2980   6002   5974     1   112.4800480 524.673600
   2983   6031   6003     1   112.4800480 524.673600
   2987   2988   3000     1   111.0400475 552.288000
   2987   2991   3003     1   111.0400475 552.288000
   2987   2994   2997     1   111.0400475 552.288000
   2988   2987   2991     1   112.3500484 533.878400
   2988   2987   2994     1   112.3500484 533.878400
   2988   3000   3012     1   111.5100476 526.347200
   2991   2987   2994     1   112.3500484 533.878400
   2991   3003   3009     1   111.5100476 526.347200
   2994   2997   3006     1   111.5100476 526.347200
   2997   3006   3015     1   107.9700462 569.024000
   3000   3012   6089     1   107.9700462 569.024000
   3003   3009   6060     1   107.9700462 569.024000
   3009   6060   6032     1   112.4800480 524.673600
   3012   6089   6061     1   112.4800480 524.673600
   3016   3017   3029     1   111.0400475 552.288000
   3016   3020   3032     1   111.0400475 552.288000
   3016   3023   3026     1   111.0400475 552.288000
   3017   3016   3020     1   112.3500484 533.878400
   3017   3016   3023     1   112.3500484 533.878400
   3017   3029   3041     1   111.5100476 526.347200
   3020   3016   3023     1   112.3500484 533.878400
   3020   3032   3038     1   111.5100476 526.347200
   3023   3026   3035     1   111.5100476 526.347200
   3026   3035   3044     1   107.9700462 569.024000
   3029   3041   6147     1   107.9700462 569.024000
   3032   3038   6118     1   107.9700462 569.024000
   3038   6118   6090     1   112.4800480 524.673600
   3041   6147   6119     1   112.4800480 524.673600
   3045   3046   3058     1   111.0400475 552.288000
   3045   3049   3061     1   111.0400475 552.288000
   3045   3052   3055     1   111.0400475 552.288000
   3046   3045   3049     1   112.3500484 533.878400
   3046   3045   3052     1   112.3500484 533.878400
   3046   3058   3070     1   111.5100476 526.347200
   3049   3045   3052     1   112.3500484 533.878400
   3049   3061   3067     1   111.5100476 526.347200
   3052   3055   3064     1   111.5100476 526.347200
   3055   3064   3073     1   107.9700462 569.024000
   3058   3070   6205     1   107.9700462 569.024000
   3061   3067   6176     1   107.9700462 569.024000
   3067   6176   6148     1   112.4800480 524.673600
   3070   6205   6177     1   112.4800480 524.673600
   3074   3075   3087     1   111.0400475 552.288000
   3074   3078   3090     1   111.0400475 552.288000
   3074   3081   3084     1   111.0400475 552.288000
   3075   3074   3078     1   112.3500484 533.878400
   3075   3074   3081     1   112.3500484 533.878400
   3075   3087   3099     1   111.5100476 526.347200
   3078   3074   3081     1   112.3500484 533.878400
   3078   3090   3096     1   111.5100476 526.347200
   3081   3084   3093     1   111.5100476 526.347200
   3084   3093   3102     1   107.9700462 569.024000
   3087   3099   6263     1   107.9700462 569.024000
   3090   3096   6234     1   107.9700462 569.024000
   3096   6234   6206     1   112.4800480 524.673600
   3099   6263   6235     1   112.4800480 524.673600
   3103   3104   3116     1   111.0400475 552.288000
   3103   3107   3119     1   111.0400475 552.288000
   3103   3110   3113     1   111.0400475 552.288000
   3104   3103   3107     1   112.3500484 533.878400
   3104   3103   3110     1   112.3500484 533.878400
   3104   3116   3128     1   111.5100476 526.347200
   3107   3103   3110     1   112.3500484 533.878400
   3107   3119   3125     1   111.5100476 526.347200
   3110   3113   3122     1   111.5100476 526.347200
   3113   3122   3131     1   107.9700462 569.024000
   3116   3128   6321     1   107.9700462 569.024000
   3119   3125   6292     1   107.9700462 569.024000
   3125   6292   6264     1   112.4800480 524.673600
   3128   6321   6293     1   112.4800480 524.673600
   3132   3133   3145     1   111.0400475 552.288000
   3132   3136   3148     1   111.0400475 552.288000
   3132   3139   3142     1   111.0400475 552.288000
   3133   3132   3136     1   112.3500484 533.878400
   3133   3132   3139     1   112.3500484 533.878400
   3133   3145   3157     1   111.5100476 526.347200
   3136   3132   3139     1   112.3500484 533.878400
   3136   3148   3154     1   111.5100476 526.347200
   3139   3142   3151     1   111.5100476 526.347200
   3142   3151   3160     1   107.9700462 569.024000
   3145   3157   6379     1   107.9700462 569.024000
   3148   3154   6350     1   107.9700462 569.024000
   3154   6350   6322     1   112.4800480 524.673600
   3157   6379   6351     1   112.4800480 524.673600
   3161   3162   3174     1   111.0400475 552.288000
   3161   3165   3177     1   111.0400475 552.288000
   3161   3168   3171     1   111.0400475 552.288000
   3162   3161   3165     1   112.3500484 533.878400
   3162   3161   3168     1   112.3500484 533.878400
   3162   3174   3186     1   111.5100476 526.347200
   3165   3161   3168     1   112.3500484 533.878400
   3165   3177   3183     1   111.5100476 526.347200
   3168   3171   3180     1   111.5100476 526.347200
   3171   3180   3189     1   107.9700462 569.024000
   3174   3186   6437     1   107.9700462 569.024000
   3177   3183   6408     1   107.9700462 569.024000
   3183   6408   6380     1   112.4800480 524.673600
   3186   6437   6409     1   112.4800480 524.673600
   3190   3191   3203     1   111.0400475 552.288000
   3190   3194   3206     1   111.0400475 552.288000
   3190   3197   3200     1   111.0400475 552.288000
   3191   3190   3194     1   112.3500484 533.878400
   3191   3190   3197     1   112.3500484 533.878400
   3191   3203   3215     1   111.5100476 526.347200
   3194   3190   3197     1   112.3500484 533.878400
   3194   3206   3212     1   111.5100476 526.347200
   3197   3200   3209     1   111.5100476 526.347200
   3200   3209   3218     1   107.9700462 569.024000
   3203   3215   6495     1   107.9700462 569.024000
   3206   3212   6466     1   107.9700462 569.024000
   3212   6466   6438     1   112.4800480 524.673600
   3215   6495   6467     1   112.4800480 524.673600
   3219   3220   3232     1   111.0400475 552.288000
   3219   3223   3235     1   111.0400475 552.288000
   3219   3226   3229     1   111.0400475 552.288000
   3220   3219   3223     1   112.3500484 533.878400
   3220   3219   3226     1   112.3500484 533.878400
   3220   3232   3244     1   111.5100476 526.347200
   3223   3219   3226     1   112.3500484 533.878400
   3223   3235   3241     1   111.5100476 526.347200
   3226   3229   3238     1   111.5100476 526.347200
   3229   3238   3247     1   107.9700462 569.024000
   3232   3244   6553     1   107.9700462 569.024000
   3235   3241   6524     1   107.9700462 569.024000
   3241   6524   6496     1   112.4800480 524.673600
   3244   6553   6525     1   112.4800480 524.673600
   3248   3249   3261     1   111.0400475 552.288000
   3248   3252   3264     1   111.0400475 552.288000
   3248   3255   3258     1   111.0400475 552.288000
   3249   3248   3252     1   112.3500484 533.878400
   3249   3248   3255     1   112.3500484 533.878400
   3249   3261   3273     1   111.5100476 526.347200
   3252   3248   3255     1   112.3500484 533.878400
   3252   3264   3270     1   111.5100476 526.347200
   3255   3258   3267     1   111.5100476 526.347200
   3258   3267   3276     1   107.9700462 569.024000
   3261   3273   6611     1   107.9700462 569.024000
   3264   3270   6582     1   107.9700462 569.024000
   3270   6582   6554     1   112.4800480 524.673600
   3273   6611   6583     1   112.4800480 524.673600
   3277   3278   3290     1   111.0400475 552.288000
   3277   3281   3293     1   111.0400475 552.288000
   3277   3284   3287     1   111.0400475 552.288000
   3278   3277   3281     1   112.3500484 533.878400
   3278   3277   3284     1   112.3500484 533.878400
   3278   3290   3302     1   111.5100476 526.347200
   3281   3277   3284     1   112.3500484 533.878400
   3281   3293   3299     1   111.5100476 526.347200
   3284   3287   3296     1   111.5100476 526.347200
   3287   3296   3305     1   107.9700462 569.024000
   3290   3302   6669     1   107.9700462 569.024000
   3293   3299   6640     1   107.9700462 569.024000
   3299   6640   6612     1   112.4800480 524.673600
   3302   6669   6641     1   112.4800480 524.673600
   3306   3307   3319     1   111.0400475 552.288000
   3306   3310   3322     1   111.0400475 552.288000
   3306   3313   3316     1   111.0400475 552.288000
   3307   3306   3310     1   112.3500484 533.878400
   3307   3306   3313     1   112.3500484 533.878400
   3307   3319   3331     1   111.5100476 526.347200
   3310   3306   3313     1   112.3500484 533.878400
   3310   3322   3328     1   111.5100476 526.347200
   3313   3316   3325     1   111.5100476 526.347200
   3316   3325   3334     1   107.9700462 569.024000
   3319   3331   6727     1   107.9700462 569.024000
   3322   3328   6698     1   107.9700462 569.024000
   3328   6698   6670     1   112.4800480 524.673600
   3331   6727   6699     1   112.4800480 524.673600
   3335   3336   3348     1   111.0400475 552.288000
   3335   3339   3351     1   111.0400475 552.288000
   3335   3342   3345     1   111.0400475 552.288000
   3336   3335   3339     1   112.3500484 533.878400
   3336   3335   3342     1   112.3500484 533.878400
   3336   3348   3360     1   111.5100476 526.347200
   3339   3335   3342     1   112.3500484 533.878400
   3339   3351   3357     1   111.5100476 526.347200
   3342   3345   3354     1   111.5100476 526.347200
   3345   3354   3363     1   107.9700462 569.024000
   3348   3360   6785     1   107.9700462 569.024000
   3351   3357   6756     1   107.9700462 569.024000
   3357   6756   6728     1   112.4800480 524.673600
   3360   6785   6757     1   112.4800480 524.673600
   3364   3365   3377     1   111.0400475 552.288000
   3364   3368   3380     1   111.0400475 552.288000
   3364   3371   3374     1   111.0400475 552.288000
   3365   3364   3368     1   112.3500484 533.878400
   3365   3364   3371     1   112.3500484 533.878400
   3365   3377   3389     1   111.5100476 526.347200
   3368   3364   3371     1   112.3500484 533.878400
   3368   3380   3386     1   111.5100476 526.347200
   3371   3374   3383     1   111.5100476 526.347200
   3374   3383   3392     1   107.9700462 569.024000
   3377   3389   6843     1   107.9700462 569.024000
   3380   3386   6814     1   107.9700462 569.024000
   3386   6814   6786     1   112.4800480 524.673600
   3389   6843   6815     1   112.4800480 524.673600
   3393   3394   3406     1   111.0400475 552.288000
   3393   3397   3409     1   111.0400475 552.288000
   3393   3400   3403     1   111.0400475 552.288000
   3394   3393   3397     1   112.3500484 533.878400
   3394   3393   3400     1   112.3500484 533.878400
   3394   3406   3418     1   111.5100476 526.347200
   3397   3393   3400     1   112.3500484 533.878400
   3397   3409   3415     1   111.5100476 526.347200
   3400   3403   3412     1   111.5100476 526.347200
   3403   3412   3421     1   107.9700462 569.024000
   3406   3418   6901     1   107.9700462 569.024000
   3409   3415   6872     1   107.9700462 569.024000
   3415   6872   6844     1   112.4800480 524.673600
   3418   6901   6873     1   112.4800480 524.673600
   3422   3423   3435     1   111.0400475 552.288000
   3422   3426   3438     1   111.0400475 552.288000
   3422   3429   3432     1   111.0400475 552.288000
   3423   3422   3426     1   112.3500484 533.878400
   3423   3422   3429     1   112.3500484 533.878400
   3423   3435   3447     1   111.5100476 526.347200
   3426   3422   3429     1   112.3500484 533.878400
   3426   3438   3444     1   111.5100476 526.347200
   3429   3432   3441     1   111.5100476 526.347200
   3432   3441   3450     1   107.9700462 569.024000
   3435   3447   6959     1   107.9700462 569.024000
   3438   3444   6930     1   107.9700462 569.024000
   3444   6930   6902     1   112.4800480 524.673600
   3447   6959   6931     1   112.4800480 524.673600
   3451   3452   3464     1   111.0400475 552.288000
   3451   3455   3467     1   111.0400475 552.288000
   3451   3458   3461     1   111.0400475 552.288000
   3452   3451   3455     1   112.3500484 533.878400
   3452   3451   3458     1   112.3500484 533.878400
   3452   3464   3476     1   111.5100476 526.347200
   3455   3451   3458     1   112.3500484 533.878400
   3455   3467   3473     1   111.5100476 526.347200
   3458   3461   3470     1   111.5100476 526.347200
   3461   3470   3479     1   107.9700462 569.024000
   3464   3476   7017     1   107.9700462 569.024000
   3467   3473   6988     1   107.9700462 569.024000
   3473   6988   6960     1   112.4800480 524.673600
   3476   7017   6989     1   112.4800480 524.673600
   3480   3481   3493     1   111.0400475 552.288000
   3480   3484   3496     1   111.0400475 552.288000
   3480   3487   3490     1   111.0400475 552.288000
   3481   3480   3484     1   112.3500484 533.878400
   3481   3480   3487     1   112.3500484 533.878400
   3481   3493   3505     1   111.5100476 526.347200
   3484   3480   3487     1   112.3500484 533.878400
   3484   3496   3502     1   111.5100476 526.347200
   3487   3490   3499     1   111.5100476 526.347200
   3490   3499   3508     1   107.9700462 569.024000
   3493   3505   7075     1   107.9700462 569.024000
   3496   3502   7046     1   107.9700462 569.024000
   3502   7046   7018     1   112.4800480 524.673600
   3505   7075   7047     1   112.4800480 524.673600
   3509   3510   3522     1   111.0400475 552.288000
   3509   3513   3525     1   111.0400475 552.288000
   3509   3516   3519     1   111.0400475 552.288000
   3510   3509   3513     1   112.3500484 533.878400
   3510   3509   3516     1   112.3500484 533.878400
   3510   3522   3534     1   111.5100476 526.347200
   3513   3509   3516     1   112.3500484 533.878400
   3513   3525   3531     1   111.5100476 526.347200
   3516   3519   3528     1   111.5100476 526.347200
   3519   3528   3537     1   107.9700462 569.024000
   3522   3534   7133     1   107.9700462 569.024000
   3525   3531   7104     1   107.9700462 569.024000
   3531   7104   7076     1   112.4800480 524.673600
   3534   7133   7105     1   112.4800480 524.673600
   3538   3539   3551     1   111.0400475 552.288000
   3538   3542   3554     1   111.0400475 552.288000
   3538   3545   3548     1   111.0400475 552.288000
   3539   3538   3542     1   112.3500484 533.878400
   3539   3538   3545     1   112.3500484 533.878400
   3539   3551   3563     1   111.5100476 526.347200
   3542   3538   3545     1   112.3500484 533.878400
   3542   3554   3560     1   111.5100476 526.347200
   3545   3548   3557     1   111.5100476 526.347200
   3548   3557   3566     1   107.9700462 569.024000
   3551   3563   7191     1   107.9700462 569.024000
   3554   3560   7162     1   107.9700462 569.024000
   3560   7162   7134     1   112.4800480 524.673600
   3563   7191   7163     1   112.4800480 524.673600
   3567   3568   3580     1   111.0400475 552.288000
   3567   3571   3583     1   111.0400475 552.288000
   3567   3574   3577     1   111.0400475 552.288000
   3568   3567   3571     1   112.3500484 533.878400
   3568   3567   3574     1   112.3500484 533.878400
   3568   3580   3592     1   111.5100476 526.347200
   3571   3567   3574     1   112.3500484 533.878400
   3571   3583   3589     1   111.5100476 526.347200
   3574   3577   3586     1   111.5100476 526.347200
   3577   3586   3595     1   107.9700462 569.024000
   3580   3592   7249     1   107.9700462 569.024000
   3583   3589   7220     1   107.9700462 569.024000
   3589   7220   7192     1   112.4800480 524.673600
   3592   7249   7221     1   112.4800480 524.673600
   3596   3597   3609     1   111.0400475 552.288000
   3596   3600   3612     1   111.0400475 552.288000
   3596   3603   3606     1   111.0400475 552.288000
   3597   3596   3600     1   112.3500484 533.878400
   3597   3596   3603     1   112.3500484 533.878400
   3597   3609   3621     1   111.5100476 526.347200
   3600   3596   3603     1   112.3500484 533.878400
   3600   3612   3618     1   111.5100476 526.347200
   3603   3606   3615     1   111.5100476 526.347200
   3606   3615   3624     1   107.9700462 569.024000
   3609   3621   7307     1   107.9700462 569.024000
   3612   3618   7278     1   107.9700462 569.024000
   3618   7278   7250     1   112.4800480 524.673600
   3621   7307   7279     1   112.4800480 524.673600
   3625   3626   3638     1   111.0400475 552.288000
   3625   3629   3641     1   111.0400475 552.288000
   3625   3632   3635     1   111.0400475 552.288000
   3626   3625   3629     1   112.3500484 533.878400
   3626   3625   3632     1   112.3500484 533.878400
   3626   3638   3650     1   111.5100476 526.347200
   3629   3625   3632     1   112.3500484 533.878400
   3629   3641   3647     1   111.5100476 526.347200
   3632   3635   3644     1   111.5100476 526.347200
   3635   3644   3653     1   107.9700462 569.024000
   3638   3650   7365     1   107.9700462 569.024000
   3641   3647   7336     1   107.9700462 569.024000
   3647   7336   7308     1   112.4800480 524.673600
   3650   7365   7337     1   112.4800480 524.673600
   3654   3655   3667     1   111.0400475 552.288000
   3654   3658   3670     1   111.0400475 552.288000
   3654   3661   3664     1   111.0400475 552.288000
   3655   3654   3658     1   112.3500484 533.878400
   3655   3654   3661     1   112.3500484 533.878400
   3655   3667   3679     1   111.5100476 526.347200
   3658   3654   3661     1   112.3500484 533.878400
   3658   3670   3676     1   111.5100476 526.347200
   3661   3664   3673     1   111.5100476 526.347200
   3664   3673   3682     1   107.9700462 569.024000
   3667   3679   7423     1   107.9700462 569.024000
   3670   3676   7394     1   107.9700462 569.024000
   3676   7394   7366     1   112.4800480 524.673600
   3679   7423   7395     1   112.4800480 524.673600
   3683   3684   3696     1   111.0400475 552.288000
   3683   3687   3699     1   111.0400475 552.288000
   3683   3690   3693     1   111.0400475 552.288000
   3684   3683   3687     1   112.3500484 533.878400
   3684   3683   3690     1   112.3500484 533.878400
   3684   3696   3708     1   111.5100476 526.347200
   3687   3683   3690     1   112.3500484 533.878400
   3687   3699   3705     1   111.5100476 526.347200
   3690   3693   3702     1   111.5100476 526.347200
   3693   3702   3711     1   107.9700462 569.024000
   3696   3708   7481     1   107.9700462 569.024000
   3699   3705   7452     1   107.9700462 569.024000
   3705   7452   7424     1   112.4800480 524.673600
   3708   7481   7453     1   112.4800480 524.673600
   3712   3713   3725     1   111.0400475 552.288000
   3712   3716   3728     1   111.0400475 552.288000
   3712   3719   3722     1   111.0400475 552.288000
   3713   3712   3716     1   112.3500484 533.878400
   3713   3712   3719     1   112.3500484 533.878400
   3713   3725   3737     1   111.5100476 526.347200
   3716   3712   3719     1   112.3500484 533.878400
   3716   3728   3734     1   111.5100476 526.347200
   3719   3722   3731     1   111.5100476 526.347200
   3722   3731   3740     1   107.9700462 569.024000
   3725   3737   7539     1   107.9700462 569.024000
   3728   3734   7510     1   107.9700462 569.024000
   3734   7510   7482     1   112.4800480 524.673600
   3737   7539   7511     1   112.4800480 524.673600
   3741   3742   3754     1   111.0400475 552.288000
   3741   3745   3757     1   111.0400475 552.288000
   3741   3748   3751     1   111.0400475 552.288000
   3742   3741   3745     1   112.3500484 533.878400
   3742   3741   3748     1   112.3500484 533.878400
   3742   3754   3766     1   111.5100476 526.347200
   3745   3741   3748     1   112.3500484 533.878400
   3745   3757   3763     1   111.5100476 526.347200
   3748   3751   3760     1   111.5100476 526.347200
   3751   3760   3769     1   107.9700462 569.024000
   3754   3766   7597     1   107.9700462 569.024000
   3757   3763   7568     1   107.9700462 569.024000
   3763   7568   7540     1   112.4800480 524.673600
   3766   7597   7569     1   112.4800480 524.673600
   3770   3771   3783     1   111.0400475 552.288000
   3770   3774   3786     1   111.0400475 552.288000
   3770   3777   3780     1   111.0400475 552.288000
   3771   3770   3774     1   112.3500484 533.878400
   3771   3770   3777     1   112.3500484 533.878400
   3771   3783   3795     1   111.5100476 526.347200
   3774   3770   3777     1   112.3500484 533.878400
   3774   3786   3792     1   111.5100476 526.347200
   3777   3780   3789     1   111.5100476 526.347200
   3780   3789   3798     1   107.9700462 569.024000
   3783   3795   7655     1   107.9700462 569.024000
   3786   3792   7626     1   107.9700462 569.024000
   3792   7626   7598     1   112.4800480 524.673600
   3795   7655   7627     1   112.4800480 524.673600
   3799   3800   3812     1   111.0400475 552.288000
   3799   3803   3815     1   111.0400475 552.288000
   3799   3806   3809     1   111.0400475 552.288000
   3800   3799   3803     1   112.3500484 533.878400
   3800   3799   3806     1   112.3500484 533.878400
   3800   3812   3824     1   111.5100476 526.347200
   3803   3799   3806     1   112.3500484 533.878400
   3803   3815   3821     1   111.5100476 526.347200
   3806   3809   3818     1   111.5100476 526.347200
   3809   3818   3827     1   107.9700462 569.024000
   3812   3824   7713     1   107.9700462 569.024000
   3815   3821   7684     1   107.9700462 569.024000
   3821   7684   7656     1   112.4800480 524.673600
   3824   7713   7685     1   112.4800480 524.673600
   3828   3829   3841     1   111.0400475 552.288000
   3828   3832   3844     1   111.0400475 552.288000
   3828   3835   3838     1   111.0400475 552.288000
   3829   3828   3832     1   112.3500484 533.878400
   3829   3828   3835     1   112.3500484 533.878400
   3829   3841   3853     1   111.5100476 526.347200
   3832   3828   3835     1   112.3500484 533.878400
   3832   3844   3850     1   111.5100476 526.347200
   3835   3838   3847     1   111.5100476 526.347200
   3838   3847   3856     1   107.9700462 569.024000
   3841   3853   7771     1   107.9700462 569.024000
   3844   3850   7742     1   107.9700462 569.024000
   3850   7742   7714     1   112.4800480 524.673600
   3853   7771   7743     1   112.4800480 524.673600
   3857   3858   3870     1   111.0400475 552.288000
   3857   3861   3873     1   111.0400475 552.288000
   3857   3864   3867     1   111.0400475 552.288000
   3858   3857   3861     1   112.3500484 533.878400
   3858   3857   3864     1   112.3500484 533.878400
   3858   3870   3882     1   111.5100476 526.347200
   3861   3857   3864     1   112.3500484 533.878400
   3861   3873   3879     1   111.5100476 526.347200
   3864   3867   3876     1   111.5100476 526.347200
   3867   3876   3885     1   107.9700462 569.024000
   3870   3882   7829     1   107.9700462 569.024000
   3873   3879   7800     1   107.9700462 569.024000
   3879   7800   7772     1   112.4800480 524.673600
   3882   7829   7801     1   112.4800480 524.673600
   3886   3887   3899     1   111.0400475 552.288000
   3886   3890   3902     1   111.0400475 552.288000
   3886   3893   3896     1   111.0400475 552.288000
   3887   3886   3890     1   112.3500484 533.878400
   3887   3886   3893     1   112.3500484 533.878400
   3887   3899   3911     1   111.5100476 526.347200
   3890   3886   3893     1   112.3500484 533.878400
   3890   3902   3908     1   111.5100476 526.347200
   3893   3896   3905     1   111.5100476 526.347200
   3896   3905   3914     1   107.9700462 569.024000
   3899   3911   7887     1   107.9700462 569.024000
   3902   3908   7858     1   107.9700462 569.024000
   3908   7858   7830     1   112.4800480 524.673600
   3911   7887   7859     1   112.4800480 524.673600
   3915   3916   3928     1   111.0400475 552.288000
   3915   3919   3931     1   111.0400475 552.288000
   3915   3922   3925     1   111.0400475 552.288000
   3916   3915   3919     1   112.3500484 533.878400
   3916   3915   3922     1   112.3500484 533.878400
   3916   3928   3940     1   111.5100476 526.347200
   3919   3915   3922     1   112.3500484 533.878400
   3919   3931   3937     1   111.5100476 526.347200
   3922   3925   3934     1   111.5100476 526.347200
   3925   3934   3943     1   107.9700462 569.024000
   3928   3940   7945     1   107.9700462 569.024000
   3931   3937   7916     1   107.9700462 569.024000
   3937   7916   7888     1   112.4800480 524.673600
   3940   7945   7917     1   112.4800480 524.673600
   3944   3945   3957     1   111.0400475 552.288000
   3944   3948   3960     1   111.0400475 552.288000
   3944   3951   3954     1   111.0400475 552.288000
   3945   3944   3948     1   112.3500484 533.878400
   3945   3944   3951     1   112.3500484 533.878400
   3945   3957   3969     1   111.5100476 526.347200
   3948   3944   3951     1   112.3500484 533.878400
   3948   3960   3966     1   111.5100476 526.347200
   3951   3954   3963     1   111.5100476 526.347200
   3954   3963   3972     1   107.9700462 569.024000
   3957   3969   8003     1   107.9700462 569.024000
   3960   3966   7974     1   107.9700462 569.024000
   3966   7974   7946     1   112.4800480 524.673600
   3969   8003   7975     1   112.4800480 524.673600
   3973   3974   3986     1   111.0400475 552.288000
   3973   3977   3989     1   111.0400475 552.288000
   3973   3980   3983     1   111.0400475 552.288000
   3974   3973   3977     1   112.3500484 533.878400
   3974   3973   3980     1   112.3500484 533.878400
   3974   3986   3998     1   111.5100476 526.347200
   3977   3973   3980     1   112.3500484 533.878400
   3977   3989   3995     1   111.5100476 526.347200
   3980   3983   3992     1   111.5100476 526.347200
   3983   3992   4001     1   107.9700462 569.024000
   3986   3998   8061     1   107.9700462 569.024000
   3989   3995   8032     1   107.9700462 569.024000
   3995   8032   8004     1   112.4800480 524.673600
   3998   8061   8033     1   112.4800480 524.673600
   4002   4003   4015     1   111.0400475 552.288000
   4002   4006   4018     1   111.0400475 552.288000
   4002   4009   4012     1   111.0400475 552.288000
   4003   4002   4006     1   112.3500484 533.878400
   4003   4002   4009     1   112.3500484 533.878400
   4003   4015   4027     1   111.5100476 526.347200
   4006   4002   4009     1   112.3500484 533.878400
   4006   4018   4024     1   111.5100476 526.347200
   4009   4012   4021     1   111.5100476 526.347200
   4012   4021   4030     1   107.9700462 569.024000
   4015   4027   8119     1   107.9700462 569.024000
   4018   4024   8090     1   107.9700462 569.024000
   4024   8090   8062     1   112.4800480 524.673600
   4027   8119   8091     1   112.4800480 524.673600
   4031   4032   4044     1   111.0400475 552.288000
   4031   4035   4047     1   111.0400475 552.288000
   4031   4038   4041     1   111.0400475 552.288000
   4032   4031   4035     1   112.3500484 533.878400
   4032   4031   4038     1   112.3500484 533.878400
   4032   4044   4056     1   111.5100476 526.347200
   4035   4031   4038     1   112.3500484 533.878400
   4035   4047   4053     1   111.5100476 526.347200
   4038   4041   4050     1   111.5100476 526.347200
   4041   4050   4059     1   107.9700462 569.024000
   4044   4056   8177     1   107.9700462 569.024000
   4047   4053   8148     1   107.9700462 569.024000
   4053   8148   8120     1   112.4800480 524.673600
   4056   8177   8149     1   112.4800480 524.673600
   4060   4061   4073     1   111.0400475 552.288000
   4060   4064   4076     1   111.0400475 552.288000
   4060   4067   4070     1   111.0400475 552.288000
   4061   4060   4064     1   112.3500484 533.878400
   4061   4060   4067     1   112.3500484 533.878400
   4061   4073   4085     1   111.5100476 526.347200
   4064   4060   4067     1   112.3500484 533.878400
   4064   4076   4082     1   111.5100476 526.347200
   4067   4070   4079     1   111.5100476 526.347200
   4070   4079   4088     1   107.9700462 569.024000
   4073   4085   8235     1   107.9700462 569.024000
   4076   4082   8206     1   107.9700462 569.024000
   4082   8206   8178     1   112.4800480 524.673600
   4085   8235   8207     1   112.4800480 524.673600
   4089   4090   4102     1   111.0400475 552.288000
   4089   4093   4105     1   111.0400475 552.288000
   4089   4096   4099     1   111.0400475 552.288000
   4090   4089   4093     1   112.3500484 533.878400
   4090   4089   4096     1   112.3500484 533.878400
   4090   4102   4114     1   111.5100476 526.347200
   4093   4089   4096     1   112.3500484 533.878400
   4093   4105   4111     1   111.5100476 526.347200
   4096   4099   4108     1   111.5100476 526.347200
   4099   4108   4117     1   107.9700462 569.024000
   4102   4114   8293     1   107.9700462 569.024000
   4105   4111   8264     1   107.9700462 569.024000
   4111   8264   8236     1   112.4800480 524.673600
   4114   8293   8265     1   112.4800480 524.673600
   4118   4119   4131     1   111.0400475 552.288000
   4118   4122   4134     1   111.0400475 552.288000
   4118   4125   4128     1   111.0400475 552.288000
   4119   4118   4122     1   112.3500484 533.878400
   4119   4118   4125     1   112.3500484 533.878400
   4119   4131   4143     1   111.5100476 526.347200
   4122   4118   4125     1   112.3500484 533.878400
   4122   4134   4140     1   111.5100476 526.347200
   4125   4128   4137     1   111.5100476 526.347200
   4128   4137   4146     1   107.9700462 569.024000
   4131   4143   8351     1   107.9700462 569.024000
   4134   4140   8322     1   107.9700462 569.024000
   4140   8322   8294     1   112.4800480 524.673600
   4143   8351   8323     1   112.4800480 524.673600
   4147   4148   4160     1   111.0400475 552.288000
   4147   4151   4163     1   111.0400475 552.288000
   4147   4154   4157     1   111.0400475 552.288000
   4148   4147   4151     1   112.3500484 533.878400
   4148   4147   4154     1   112.3500484 533.878400
   4148   4160   4172     1   111.5100476 526.347200
   4151   4147   4154     1   112.3500484 533.878400
   4151   4163   4169     1   111.5100476 526.347200
   4154   4157   4166     1   111.5100476 526.347200
   4157   4166   4175     1   107.9700462 569.024000
   4160   4172   8409     1   107.9700462 569.024000
   4163   4169   8380     1   107.9700462 569.024000
   4169   8380   8352     1   112.4800480 524.673600
   4172   8409   8381     1   112.4800480 524.673600
   4176   4177   4189     1   111.0400475 552.288000
   4176   4180   4192     1   111.0400475 552.288000
   4176   4183   4186     1   111.0400475 552.288000
   4177   4176   4180     1   112.3500484 533.878400
   4177   4176   4183     1   112.3500484 533.878400
   4177   4189   4201     1   111.5100476 526.347200
   4180   4176   4183     1   112.3500484 533.878400
   4180   4192   4198     1   111.5100476 526.347200
   4183   4186   4195     1   111.5100476 526.347200
   4186   4195   4204     1   107.9700462 569.024000
   4189   4201   8467     1   107.9700462 569.024000
   4192   4198   8438     1   107.9700462 569.024000
   4198   8438   8410     1   112.4800480 524.673600
   4201   8467   8439     1   112.4800480 524.673600
   4205   4206   4218     1   111.0400475 552.288000
   4205   4209   4221     1   111.0400475 552.288000
   4205   4212   4215     1   111.0400475 552.288000
   4206   4205   4209     1   112.3500484 533.878400
   4206   4205   4212     1   112.3500484 533.878400
   4206   4218   4230     1   111.5100476 526.347200
   4209   4205   4212     1   112.3500484 533.878400
   4209   4221   4227     1   111.5100476 526.347200
   4212   4215   4224     1   111.5100476 526.347200
   4215   4224   4233     1   107.9700462 569.024000
   4218   4230   8525     1   107.9700462 569.024000
   4221   4227   8496     1   107.9700462 569.024000
   4227   8496   8468     1   112.4800480 524.673600
   4230   8525   8497     1   112.4800480 524.673600
   4234   4235   4247     1   111.0400475 552.288000
   4234   4238   4250     1   111.0400475 552.288000
   4234   4241   4244     1   111.0400475 552.288000
   4235   4234   4238     1   112.3500484 533.878400
   4235   4234   4241     1   112.3500484 533.878400
   4235   4247   4259     1   111.5100476 526.347200
   4238   4234   4241     1   112.3500484 533.878400
   4238   4250   4256     1   111.5100476 526.347200
   4241   4244   4253     1   111.5100476 526.347200
   4244   4253   4262     1   107.9700462 569.024000
   4247   4259   8583     1   107.9700462 569.024000
   4250   4256   8554     1   107.9700462 569.024000
   4256   8554   8526     1   112.4800480 524.673600
   4259   8583   8555     1   112.4800480 524.673600
   4263   4264   4276     1   111.0400475 552.288000
   4263   4267   4279     1   111.0400475 552.288000
   4263   4270   4273     1   111.0400475 552.288000
   4264   4263   4267     1   112.3500484 533.878400
   4264   4263   4270     1   112.3500484 533.878400
   4264   4276   4288     1   111.5100476 526.347200
   4267   4263   4270     1   112.3500484 533.878400
   4267   4279   4285     1   111.5100476 526.347200
   4270   4273   4282     1   111.5100476 526.347200
   4273   4282   4291     1   107.9700462 569.024000
   4276   4288   8641     1   107.9700462 569.024000
   4279   4285   8612     1   107.9700462 569.024000
   4285   8612   8584     1   112.4800480 524.673600
   4288   8641   8613     1   112.4800480 524.673600
   4292   4293   4305     1   111.0400475 552.288000
   4292   4296   4308     1   111.0400475 552.288000
   4292   4299   4302     1   111.0400475 552.288000
   4293   4292   4296     1   112.3500484 533.878400
   4293   4292   4299     1   112.3500484 533.878400
   4293   4305   4317     1   111.5100476 526.347200
   4296   4292   4299     1   112.3500484 533.878400
   4296   4308   4314     1   111.5100476 526.347200
   4299   4302   4311     1   111.5100476 526.347200
   4302   4311   4320     1   107.9700462 569.024000
   4305   4317   8699     1   107.9700462 569.024000
   4308   4314   8670     1   107.9700462 569.024000
   4314   8670   8642     1   112.4800480 524.673600
   4317   8699   8671     1   112.4800480 524.673600
   4321   4322   4334     1   111.0400475 552.288000
   4321   4325   4337     1   111.0400475 552.288000
   4321   4328   4331     1   111.0400475 552.288000
   4322   4321   4325     1   112.3500484 533.878400
   4322   4321   4328     1   112.3500484 533.878400
   4322   4334   4346     1   111.5100476 526.347200
   4325   4321   4328     1   112.3500484 533.878400
   4325   4337   4343     1   111.5100476 526.347200
   4328   4331   4340     1   111.5100476 526.347200
   4331   4340   4349     1   107.9700462 569.024000
   4334   4346   8757     1   107.9700462 569.024000
   4337   4343   8728     1   107.9700462 569.024000
   4343   8728   8700     1   112.4800480 524.673600
   4346   8757   8729     1   112.4800480 524.673600
   4350   4351   4363     1   111.0400475 552.288000
   4350   4354   4366     1   111.0400475 552.288000
   4350   4357   4360     1   111.0400475 552.288000
   4351   4350   4354     1   112.3500484 533.878400
   4351   4350   4357     1   112.3500484 533.878400
   4351   4363   4375     1   111.5100476 526.347200
   4354   4350   4357     1   112.3500484 533.878400
   4354   4366   4372     1   111.5100476 526.347200
   4357   4360   4369     1   111.5100476 526.347200
   4360   4369   4378     1   107.9700462 569.024000
   4363   4375   8815     1   107.9700462 569.024000
   4366   4372   8786     1   107.9700462 569.024000
   4372   8786   8758     1   112.4800480 524.673600
   4375   8815   8787     1   112.4800480 524.673600
   4379   4380   4392     1   111.0400475 552.288000
   4379   4383   4395     1   111.0400475 552.288000
   4379   4386   4389     1   111.0400475 552.288000
   4380   4379   4383     1   112.3500484 533.878400
   4380   4379   4386     1   112.3500484 533.878400
   4380   4392   4404     1   111.5100476 526.347200
   4383   4379   4386     1   112.3500484 533.878400
   4383   4395   4401     1   111.5100476 526.347200
   4386   4389   4398     1   111.5100476 526.347200
   4389   4398   4407     1   107.9700462 569.024000
   4392   4404   8873     1   107.9700462 569.024000
   4395   4401   8844     1   107.9700462 569.024000
   4401   8844   8816     1   112.4800480 524.673600
   4404   8873   8845     1   112.4800480 524.673600
   4408   4409   4421     1   111.0400475 552.288000
   4408   4412   4424     1   111.0400475 552.288000
   4408   4415   4418     1   111.0400475 552.288000
   4409   4408   4412     1   112.3500484 533.878400
   4409   4408   4415     1   112.3500484 533.878400
   4409   4421   4433     1   111.5100476 526.347200
   4412   4408   4415     1   112.3500484 533.878400
   4412   4424   4430     1   111.5100476 526.347200
   4415   4418   4427     1   111.5100476 526.347200
   4418   4427   4436     1   107.9700462 569.024000
   4421   4433   8931     1   107.9700462 569.024000
   4424   4430   8902     1   107.9700462 569.024000
   4430   8902   8874     1   112.4800480 524.673600
   4433   8931   8903     1   112.4800480 524.673600
   4437   4438   4450     1   111.0400475 552.288000
   4437   4441   4453     1   111.0400475 552.288000
   4437   4444   4447     1   111.0400475 552.288000
   4438   4437   4441     1   112.3500484 533.878400
   4438   4437   4444     1   112.3500484 533.878400
   4438   4450   4462     1   111.5100476 526.347200
   4441   4437   4444     1   112.3500484 533.878400
   4441   4453   4459     1   111.5100476 526.347200
   4444   4447   4456     1   111.5100476 526.347200
   4447   4456   4465     1   107.9700462 569.024000
   4450   4462   8989     1   107.9700462 569.024000
   4453   4459   8960     1   107.9700462 569.024000
   4459   8960   8932     1   112.4800480 524.673600
   4462   8989   8961     1   112.4800480 524.673600
   4466   4467   4479     1   111.0400475 552.288000
   4466   4470   4482     1   111.0400475 552.288000
   4466   4473   4476     1   111.0400475 552.288000
   4467   4466   4470     1   112.3500484 533.878400
   4467   4466   4473     1   112.3500484 533.878400
   4467   4479   4491     1   111.5100476 526.347200
   4470   4466   4473     1   112.3500484 533.878400
   4470   4482   4488     1   111.5100476 526.347200
   4473   4476   4485     1   111.5100476 526.347200
   4476   4485   4494     1   107.9700462 569.024000
   4479   4491   9047     1   107.9700462 569.024000
   4482   4488   9018     1   107.9700462 569.024000
   4488   9018   8990     1   112.4800480 524.673600
   4491   9047   9019     1   112.4800480 524.673600
   4495   4496   4508     1   111.0400475 552.288000
   4495   4499   4511     1   111.0400475 552.288000
   4495   4502   4505     1   111.0400475 552.288000
   4496   4495   4499     1   112.3500484 533.878400
   4496   4495   4502     1   112.3500484 533.878400
   4496   4508   4520     1   111.5100476 526.347200
   4499   4495   4502     1   112.3500484 533.878400
   4499   4511   4517     1   111.5100476 526.347200
   4502   4505   4514     1   111.5100476 526.347200
   4505   4514   4523     1   107.9700462 569.024000
   4508   4520   9105     1   107.9700462 569.024000
   4511   4517   9076     1   107.9700462 569.024000
   4517   9076   9048     1   112.4800480 524.673600
   4520   9105   9077     1   112.4800480 524.673600
   4524   4525   4537     1   111.0400475 552.288000
   4524   4528   4540     1   111.0400475 552.288000
   4524   4531   4534     1   111.0400475 552.288000
   4525   4524   4528     1   112.3500484 533.878400
   4525   4524   4531     1   112.3500484 533.878400
   4525   4537   4549     1   111.5100476 526.347200
   4528   4524   4531     1   112.3500484 533.878400
   4528   4540   4546     1   111.5100476 526.347200
   4531   4534   4543     1   111.5100476 526.347200
   4534   4543   4552     1   107.9700462 569.024000
   4537   4549   9163     1   107.9700462 569.024000
   4540   4546   9134     1   107.9700462 569.024000
   4546   9134   9106     1   112.4800480 524.673600
   4549   9163   9135     1   112.4800480 524.673600
   4553   4554   4566     1   111.0400475 552.288000
   4553   4557   4569     1   111.0400475 552.288000
   4553   4560   4563     1   111.0400475 552.288000
   4554   4553   4557     1   112.3500484 533.878400
   4554   4553   4560     1   112.3500484 533.878400
   4554   4566   4578     1   111.5100476 526.347200
   4557   4553   4560     1   112.3500484 533.878400
   4557   4569   4575     1   111.5100476 526.347200
   4560   4563   4572     1   111.5100476 526.347200
   4563   4572   4581     1   107.9700462 569.024000
   4566   4578   9221     1   107.9700462 569.024000
   4569   4575   9192     1   107.9700462 569.024000
   4575   9192   9164     1   112.4800480 524.673600
   4578   9221   9193     1   112.4800480 524.673600
   4582   4583   4595     1   111.0400475 552.288000
   4582   4586   4598     1   111.0400475 552.288000
   4582   4589   4592     1   111.0400475 552.288000
   4583   4582   4586     1   112.3500484 533.878400
   4583   4582   4589     1   112.3500484 533.878400
   4583   4595   4607     1   111.5100476 526.347200
   4586   4582   4589     1   112.3500484 533.878400
   4586   4598   4604     1   111.5100476 526.347200
   4589   4592   4601     1   111.5100476 526.347200
   4592   4601   4610     1   107.9700462 569.024000
   4595   4607   9279     1   107.9700462 569.024000
   4598   4604   9250     1   107.9700462 569.024000
   4604   9250   9222     1   112.4800480 524.673600
   4607   9279   9251     1   112.4800480 524.673600
   4611   4612   4624     1   111.0400475 552.288000
   4611   4615   4627     1   111.0400475 552.288000
   4611   4618   4621     1   111.0400475 552.288000
   4612   4611   4615     1   112.3500484 533.878400
   4612   4611   4618     1   112.3500484 533.878400
   4612   4624   4636     1   111.5100476 526.347200
   4615   4611   4618     1   112.3500484 533.878400
   4615   4627   4633     1   111.5100476 526.347200
   4618   4621   4630     1   111.5100476 526.347200
   4621   4630   4639     1   107.9700462 569.024000
   4624   4636   9337     1   107.9700462 569.024000
   4627   4633   9308     1   107.9700462 569.024000
   4633   9308   9280     1   112.4800480 524.673600
   4636   9337   9309     1   112.4800480 524.673600
   4640   4641   4653     1   111.0400475 552.288000
   4640   4644   4656     1   111.0400475 552.288000
   4640   4647   4650     1   111.0400475 552.288000
   4641   4640   4644     1   112.3500484 533.878400
   4641   4640   4647     1   112.3500484 533.878400
   4641   4653   4665     1   111.5100476 526.347200
   4644   4640   4647     1   112.3500484 533.878400
   4644   4656   4662     1   111.5100476 526.347200
   4647   4650   4659     1   111.5100476 526.347200
   4650   4659   4668     1   107.9700462 569.024000
   4653   4665   9395     1   107.9700462 569.024000
   4656   4662   9366     1   107.9700462 569.024000
   4662   9366   9338     1   112.4800480 524.673600
   4665   9395   9367     1   112.4800480 524.673600
   4669   4670   4682     1   111.0400475 552.288000
   4669   4673   4685     1   111.0400475 552.288000
   4669   4676   4679     1   111.0400475 552.288000
   4670   4669   4673     1   112.3500484 533.878400
   4670   4669   4676     1   112.3500484 533.878400
   4670   4682   4694     1   111.5100476 526.347200
   4673   4669   4676     1   112.3500484 533.878400
   4673   4685   4691     1   111.5100476 526.347200
   4676   4679   4688     1   111.5100476 526.347200
   4679   4688   4697     1   107.9700462 569.024000
   4682   4694   9453     1   107.9700462 569.024000
   4685   4691   9424     1   107.9700462 569.024000
   4691   9424   9396     1   112.4800480 524.673600
   4694   9453   9425     1   112.4800480 524.673600
   4698   4699   4711     1   111.0400475 552.288000
   4698   4702   4714     1   111.0400475 552.288000
   4698   4705   4708     1   111.0400475 552.288000
   4699   4698   4702     1   112.3500484 533.878400
   4699   4698   4705     1   112.3500484 533.878400
   4699   4711   4723     1   111.5100476 526.347200
   4702   4698   4705     1   112.3500484 533.878400
   4702   4714   4720     1   111.5100476 526.347200
   4705   4708   4717     1   111.5100476 526.347200
   4708   4717   4726     1   107.9700462 569.024000
   4711   4723   9511     1   107.9700462 569.024000
   4714   4720   9482     1   107.9700462 569.024000
   4720   9482   9454     1   112.4800480 524.673600
   4723   9511   9483     1   112.4800480 524.673600
   4727   4728   4740     1   111.0400475 552.288000
   4727   4731   4743     1   111.0400475 552.288000
   4727   4734   4737     1   111.0400475 552.288000
   4728   4727   4731     1   112.3500484 533.878400
   4728   4727   4734     1   112.3500484 533.878400
   4728   4740   4752     1   111.5100476 526.347200
   4731   4727   4734     1   112.3500484 533.878400
   4731   4743   4749     1   111.5100476 526.347200
   4734   4737   4746     1   111.5100476 526.347200
   4737   4746   4755     1   107.9700462 569.024000
   4740   4752   9569     1   107.9700462 569.024000
   4743   4749   9540     1   107.9700462 569.024000
   4749   9540   9512     1   112.4800480 524.673600
   4752   9569   9541     1   112.4800480 524.673600
   4756   4757   4769     1   111.0400475 552.288000
   4756   4760   4772     1   111.0400475 552.288000
   4756   4763   4766     1   111.0400475 552.288000
   4757   4756   4760     1   112.3500484 533.878400
   4757   4756   4763     1   112.3500484 533.878400
   4757   4769   4781     1   111.5100476 526.347200
   4760   4756   4763     1   112.3500484 533.878400
   4760   4772   4778     1   111.5100476 526.347200
   4763   4766   4775     1   111.5100476 526.347200
   4766   4775   4784     1   107.9700462 569.024000
   4769   4781   9627     1   107.9700462 569.024000
   4772   4778   9598     1   107.9700462 569.024000
   4778   9598   9570     1   112.4800480 524.673600
   4781   9627   9599     1   112.4800480 524.673600
   4785   4786   4798     1   111.0400475 552.288000
   4785   4789   4801     1   111.0400475 552.288000
   4785   4792   4795     1   111.0400475 552.288000
   4786   4785   4789     1   112.3500484 533.878400
   4786   4785   4792     1   112.3500484 533.878400
   4786   4798   4810     1   111.5100476 526.347200
   4789   4785   4792     1   112.3500484 533.878400
   4789   4801   4807     1   111.5100476 526.347200
   4792   4795   4804     1   111.5100476 526.347200
   4795   4804   4813     1   107.9700462 569.024000
   4798   4810   9685     1   107.9700462 569.024000
   4801   4807   9656     1   107.9700462 569.024000
   4807   9656   9628     1   112.4800480 524.673600
   4810   9685   9657     1   112.4800480 524.673600
   4814   4815   4827     1   111.0400475 552.288000
   4814   4818   4830     1   111.0400475 552.288000
   4814   4821   4824     1   111.0400475 552.288000
   4815   4814   4818     1   112.3500484 533.878400
   4815   4814   4821     1   112.3500484 533.878400
   4815   4827   4839     1   111.5100476 526.347200
   4818   4814   4821     1   112.3500484 533.878400
   4818   4830   4836     1   111.5100476 526.347200
   4821   4824   4833     1   111.5100476 526.347200
   4824   4833   4842     1   107.9700462 569.024000
   4827   4839   9743     1   107.9700462 569.024000
   4830   4836   9714     1   107.9700462 569.024000
   4836   9714   9686     1   112.4800480 524.673600
   4839   9743   9715     1   112.4800480 524.673600
   4843   4844   4856     1   111.0400475 552.288000
   4843   4847   4859     1   111.0400475 552.288000
   4843   4850   4853     1   111.0400475 552.288000
   4844   4843   4847     1   112.3500484 533.878400
   4844   4843   4850     1   112.3500484 533.878400
   4844   4856   4868     1   111.5100476 526.347200
   4847   4843   4850     1   112.3500484 533.878400
   4847   4859   4865     1   111.5100476 526.347200
   4850   4853   4862     1   111.5100476 526.347200
   4853   4862   4871     1   107.9700462 569.024000
   4856   4868   9801     1   107.9700462 569.024000
   4859   4865   9772     1   107.9700462 569.024000
   4865   9772   9744     1   112.4800480 524.673600
   4868   9801   9773     1   112.4800480 524.673600
   4872   4873   4885     1   111.0400475 552.288000
   4872   4876   4888     1   111.0400475 552.288000
   4872   4879   4882     1   111.0400475 552.288000
   4873   4872   4876     1   112.3500484 533.878400
   4873   4872   4879     1   112.3500484 533.878400
   4873   4885   4897     1   111.5100476 526.347200
   4876   4872   4879     1   112.3500484 533.878400
   4876   4888   4894     1   111.5100476 526.347200
   4879   4882   4891     1   111.5100476 526.347200
   4882   4891   4900     1   107.9700462 569.024000
   4885   4897   9859     1   107.9700462 569.024000
   4888   4894   9830     1   107.9700462 569.024000
   4894   9830   9802     1   112.4800480 524.673600
   4897   9859   9831     1   112.4800480 524.673600
   4901   4902   4914     1   111.0400475 552.288000
   4901   4905   4917     1   111.0400475 552.288000
   4901   4908   4911     1   111.0400475 552.288000
   4902   4901   4905     1   112.3500484 533.878400
   4902   4901   4908     1   112.3500484 533.878400
   4902   4914   4926     1   111.5100476 526.347200
   4905   4901   4908     1   112.3500484 533.878400
   4905   4917   4923     1   111.5100476 526.347200
   4908   4911   4920     1   111.5100476 526.347200
   4911   4920   4929     1   107.9700462 569.024000
   4914   4926   9917     1   107.9700462 569.024000
   4917   4923   9888     1   107.9700462 569.024000
   4923   9888   9860     1   112.4800480 524.673600
   4926   9917   9889     1   112.4800480 524.673600
   4930   4931   4943     1   111.0400475 552.288000
   4930   4934   4946     1   111.0400475 552.288000
   4930   4937   4940     1   111.0400475 552.288000
   4931   4930   4934     1   112.3500484 533.878400
   4931   4930   4937     1   112.3500484 533.878400
   4931   4943   4955     1   111.5100476 526.347200
   4934   4930   4937     1   112.3500484 533.878400
   4934   4946   4952     1   111.5100476 526.347200
   4937   4940   4949     1   111.5100476 526.347200
   4940   4949   4958     1   107.9700462 569.024000
   4943   4955   9975     1   107.9700462 569.024000
   4946   4952   9946     1   107.9700462 569.024000
   4952   9946   9918     1   112.4800480 524.673600
   4955   9975   9947     1   112.4800480 524.673600
   4959   4960   4972     1   111.0400475 552.288000
   4959   4963   4975     1   111.0400475 552.288000
   4959   4966   4969     1   111.0400475 552.288000
   4960   4959   4963     1   112.3500484 533.878400
   4960   4959   4966     1   112.3500484 533.878400
   4960   4972   4984     1   111.5100476 526.347200
   4963   4959   4966     1   112.3500484 533.878400
   4963   4975   4981     1   111.5100476 526.347200
   4966   4969   4978     1   111.5100476 526.347200
   4969   4978   4987     1   107.9700462 569.024000
   4972   4984  10033     1   107.9700462 569.024000
   4975   4981  10004     1   107.9700462 569.024000
   4981  10004   9976     1   112.4800480 524.673600
   4984  10033  10005     1   112.4800480 524.673600
   4988   4989   5001     1   111.0400475 552.288000
   4988   4992   5004     1   111.0400475 552.288000
   4988   4995   4998     1   111.0400475 552.288000
   4989   4988   4992     1   112.3500484 533.878400
   4989   4988   4995     1   112.3500484 533.878400
   4989   5001   5013     1   111.5100476 526.347200
   4992   4988   4995     1   112.3500484 533.878400
   4992   5004   5010     1   111.5100476 526.347200
   4995   4998   5007     1   111.5100476 526.347200
   4998   5007   5016     1   107.9700462 569.024000
   5001   5013  10091     1   107.9700462 569.024000
   5004   5010  10062     1   107.9700462 569.024000
   5010  10062  10034     1   112.4800480 524.673600
   5013  10091  10063     1   112.4800480 524.673600
   5017   5018   5030     1   111.0400475 552.288000
   5017   5021   5033     1   111.0400475 552.288000
   5017   5024   5027     1   111.0400475 552.288000
   5018   5017   5021     1   112.3500484 533.878400
   5018   5017   5024     1   112.3500484 533.878400
   5018   5030   5042     1   111.5100476 526.347200
   5021   5017   5024     1   112.3500484 533.878400
   5021   5033   5039     1   111.5100476 526.347200
   5024   5027   5036     1   111.5100476 526.347200
   5027   5036   5045     1   107.9700462 569.024000
   5030   5042  10149     1   107.9700462 569.024000
   5033   5039  10120     1   107.9700462 569.024000
   5039  10120  10092     1   112.4800480 524.673600
   5042  10149  10121     1   112.4800480 524.673600
   5046   5047   5059     1   111.0400475 552.288000
   5046   5050   5062     1   111.0400475 552.288000
   5046   5053   5056     1   111.0400475 552.288000
   5047   5046   5050     1   112.3500484 533.878400
   5047   5046   5053     1   112.3500484 533.878400
   5047   5059   5071     1   111.5100476 526.347200
   5050   5046   5053     1   112.3500484 533.878400
   5050   5062   5068     1   111.5100476 526.347200
   5053   5056   5065     1   111.5100476 526.347200
   5056   5065   5074     1   107.9700462 569.024000
   5059   5071  10207     1   107.9700462 569.024000
   5062   5068  10178     1   107.9700462 569.024000
   5068  10178  10150     1   112.4800480 524.673600
   5071  10207  10179     1   112.4800480 524.673600
   5075   5076   5088     1   111.0400475 552.288000
   5075   5079   5091     1   111.0400475 552.288000
   5075   5082   5085     1   111.0400475 552.288000
   5076   5075   5079     1   112.3500484 533.878400
   5076   5075   5082     1   112.3500484 533.878400
   5076   5088   5100     1   111.5100476 526.347200
   5079   5075   5082     1   112.3500484 533.878400
   5079   5091   5097     1   111.5100476 526.347200
   5082   5085   5094     1   111.5100476 526.347200
   5085   5094   5103     1   107.9700462 569.024000
   5088   5100  10265     1   107.9700462 569.024000
   5091   5097  10236     1   107.9700462 569.024000
   5097  10236  10208     1   112.4800480 524.673600
   5100  10265  10237     1   112.4800480 524.673600
   5104   5105   5117     1   111.0400475 552.288000
   5104   5108   5120     1   111.0400475 552.288000
   5104   5111   5114     1   111.0400475 552.288000
   5105   5104   5108     1   112.3500484 533.878400
   5105   5104   5111     1   112.3500484 533.878400
   5105   5117   5129     1   111.5100476 526.347200
   5108   5104   5111     1   112.3500484 533.878400
   5108   5120   5126     1   111.5100476 526.347200
   5111   5114   5123     1   111.5100476 526.347200
   5114   5123   5132     1   107.9700462 569.024000
   5117   5129  10323     1   107.9700462 569.024000
   5120   5126  10294     1   107.9700462 569.024000
   5126  10294  10266     1   112.4800480 524.673600
   5129  10323  10295     1   112.4800480 524.673600
   5133   5134   5146     1   111.0400475 552.288000
   5133   5137   5149     1   111.0400475 552.288000
   5133   5140   5143     1   111.0400475 552.288000
   5134   5133   5137     1   112.3500484 533.878400
   5134   5133   5140     1   112.3500484 533.878400
   5134   5146   5158     1   111.5100476 526.347200
   5137   5133   5140     1   112.3500484 533.878400
   5137   5149   5155     1   111.5100476 526.347200
   5140   5143   5152     1   111.5100476 526.347200
   5143   5152   5161     1   107.9700462 569.024000
   5146   5158  10381     1   107.9700462 569.024000
   5149   5155  10352     1   107.9700462 569.024000
   5155  10352  10324     1   112.4800480 524.673600
   5158  10381  10353     1   112.4800480 524.673600
   5162   5163   5175     1   111.0400475 552.288000
   5162   5166   5178     1   111.0400475 552.288000
   5162   5169   5172     1   111.0400475 552.288000
   5163   5162   5166     1   112.3500484 533.878400
   5163   5162   5169     1   112.3500484 533.878400
   5163   5175   5187     1   111.5100476 526.347200
   5166   5162   5169     1   112.3500484 533.878400
   5166   5178   5184     1   111.5100476 526.347200
   5169   5172   5181     1   111.5100476 526.347200
   5172   5181   5190     1   107.9700462 569.024000
   5175   5187  10439     1   107.9700462 569.024000
   5178   5184  10410     1   107.9700462 569.024000
   5184  10410  10382     1   112.4800480 524.673600
   5187  10439  10411     1   112.4800480 524.673600
   5191   5192   5204     1   111.0400475 552.288000
   5191   5195   5207     1   111.0400475 552.288000
   5191   5198   5201     1   111.0400475 552.288000
   5192   5191   5195     1   112.3500484 533.878400
   5192   5191   5198     1   112.3500484 533.878400
   5192   5204   5216     1   111.5100476 526.347200
   5195   5191   5198     1   112.3500484 533.878400
   5195   5207   5213     1   111.5100476 526.347200
   5198   5201   5210     1   111.5100476 526.347200
   5201   5210   5219     1   107.9700462 569.024000
   5204   5216  10497     1   107.9700462 569.024000
   5207   5213  10468     1   107.9700462 569.024000
   5213  10468  10440     1   112.4800480 524.673600
   5216  10497  10469     1   112.4800480 524.673600
   5220   5221   5233     1   111.0400475 552.288000
   5220   5224   5236     1   111.0400475 552.288000
   5220   5227   5230     1   111.0400475 552.288000
   5221   5220   5224     1   112.3500484 533.878400
   5221   5220   5227     1   112.3500484 533.878400
   5221   5233   5245     1   111.5100476 526.347200
   5224   5220   5227     1   112.3500484 533.878400
   5224   5236   5242     1   111.5100476 526.347200
   5227   5230   5239     1   111.5100476 526.347200
   5230   5239   5248     1   107.9700462 569.024000
   5233   5245  10555     1   107.9700462 569.024000
   5236   5242  10526     1   107.9700462 569.024000
   5242  10526  10498     1   112.4800480 524.673600
   5245  10555  10527     1   112.4800480 524.673600
   5249   5250   5262     1   111.0400475 552.288000
   5249   5253   5265     1   111.0400475 552.288000
   5249   5256   5259     1   111.0400475 552.288000
   5250   5249   5253     1   112.3500484 533.878400
   5250   5249   5256     1   112.3500484 533.878400
   5250   5262   5274     1   111.5100476 526.347200
   5253   5249   5256     1   112.3500484 533.878400
   5253   5265   5271     1   111.5100476 526.347200
   5256   5259   5268     1   111.5100476 526.347200
   5259   5268   5277     1   107.9700462 569.024000
   5262   5274  10613     1   107.9700462 569.024000
   5265   5271  10584     1   107.9700462 569.024000
   5271  10584  10556     1   112.4800480 524.673600
   5274  10613  10585     1   112.4800480 524.673600
   5278   5279   5291     1   111.0400475 552.288000
   5278   5282   5294     1   111.0400475 552.288000
   5278   5285   5288     1   111.0400475 552.288000
   5279   5278   5282     1   112.3500484 533.878400
   5279   5278   5285     1   112.3500484 533.878400
   5279   5291   5303     1   111.5100476 526.347200
   5282   5278   5285     1   112.3500484 533.878400
   5282   5294   5300     1   111.5100476 526.347200
   5285   5288   5297     1   111.5100476 526.347200
   5288   5297   5306     1   107.9700462 569.024000
   5291   5303  10671     1   107.9700462 569.024000
   5294   5300  10642     1   107.9700462 569.024000
   5300  10642  10614     1   112.4800480 524.673600
   5303  10671  10643     1   112.4800480 524.673600
   5307   5308   5320     1   111.0400475 552.288000
   5307   5311   5323     1   111.0400475 552.288000
   5307   5314   5317     1   111.0400475 552.288000
   5308   5307   5311     1   112.3500484 533.878400
   5308   5307   5314     1   112.3500484 533.878400
   5308   5320   5332     1   111.5100476 526.347200
   5311   5307   5314     1   112.3500484 533.878400
   5311   5323   5329     1   111.5100476 526.347200
   5314   5317   5326     1   111.5100476 526.347200
   5317   5326   5335     1   107.9700462 569.024000
   5320   5332  10729     1   107.9700462 569.024000
   5323   5329  10700     1   107.9700462 569.024000
   5329  10700  10672     1   112.4800480 524.673600
   5332  10729  10701     1   112.4800480 524.673600
   5336   5337   5349     1   111.0400475 552.288000
   5336   5340   5352     1   111.0400475 552.288000
   5336   5343   5346     1   111.0400475 552.288000
   5337   5336   5340     1   112.3500484 533.878400
   5337   5336   5343     1   112.3500484 533.878400
   5337   5349   5361     1   111.5100476 526.347200
   5340   5336   5343     1   112.3500484 533.878400
   5340   5352   5358     1   111.5100476 526.347200
   5343   5346   5355     1   111.5100476 526.347200
   5346   5355   5364     1   107.9700462 569.024000
   5349   5361  10787     1   107.9700462 569.024000
   5352   5358  10758     1   107.9700462 569.024000
   5358  10758  10730     1   112.4800480 524.673600
   5361  10787  10759     1   112.4800480 524.673600
   5365   5366   5378     1   111.0400475 552.288000
   5365   5369   5381     1   111.0400475 552.288000
   5365   5372   5375     1   111.0400475 552.288000
   5366   5365   5369     1   112.3500484 533.878400
   5366   5365   5372     1   112.3500484 533.878400
   5366   5378   5390     1   111.5100476 526.347200
   5369   5365   5372     1   112.3500484 533.878400
   5369   5381   5387     1   111.5100476 526.347200
   5372   5375   5384     1   111.5100476 526.347200
   5375   5384   5393     1   107.9700462 569.024000
   5378   5390  10845     1   107.9700462 569.024000
   5381   5387  10816     1   107.9700462 569.024000
   5387  10816  10788     1   112.4800480 524.673600
   5390  10845  10817     1   112.4800480 524.673600
   5394   5395   5407     1   111.0400475 552.288000
   5394   5398   5410     1   111.0400475 552.288000
   5394   5401   5404     1   111.0400475 552.288000
   5395   5394   5398     1   112.3500484 533.878400
   5395   5394   5401     1   112.3500484 533.878400
   5395   5407   5419     1   111.5100476 526.347200
   5398   5394   5401     1   112.3500484 533.878400
   5398   5410   5416     1   111.5100476 526.347200
   5401   5404   5413     1   111.5100476 526.347200
   5404   5413   5422     1   107.9700462 569.024000
   5407   5419  10903     1   107.9700462 569.024000
   5410   5416  10874     1   107.9700462 569.024000
   5416  10874  10846     1   112.4800480 524.673600
   5419  10903  10875     1   112.4800480 524.673600
   5423   5424   5436     1   111.0400475 552.288000
   5423   5427   5439     1   111.0400475 552.288000
   5423   5430   5433     1   111.0400475 552.288000
   5424   5423   5427     1   112.3500484 533.878400
   5424   5423   5430     1   112.3500484 533.878400
   5424   5436   5448     1   111.5100476 526.347200
   5427   5423   5430     1   112.3500484 533.878400
   5427   5439   5445     1   111.5100476 526.347200
   5430   5433   5442     1   111.5100476 526.347200
   5433   5442   5451     1   107.9700462 569.024000
   5436   5448  10961     1   107.9700462 569.024000
   5439   5445  10932     1   107.9700462 569.024000
   5445  10932  10904     1   112.4800480 524.673600
   5448  10961  10933     1   112.4800480 524.673600
   5452   5453   5465     1   111.0400475 552.288000
   5452   5456   5468     1   111.0400475 552.288000
   5452   5459   5462     1   111.0400475 552.288000
   5453   5452   5456     1   112.3500484 533.878400
   5453   5452   5459     1   112.3500484 533.878400
   5453   5465   5477     1   111.5100476 526.347200
   5456   5452   5459     1   112.3500484 533.878400
   5456   5468   5474     1   111.5100476 526.347200
   5459   5462   5471     1   111.5100476 526.347200
   5462   5471   5480     1   107.9700462 569.024000
   5465   5477  11019     1   107.9700462 569.024000
   5468   5474  10990     1   107.9700462 569.024000
   5474  10990  10962     1   112.4800480 524.673600
   5477  11019  10991     1   112.4800480 524.673600
   5481   5482   5494     1   111.0400475 552.288000
   5481   5485   5497     1   111.0400475 552.288000
   5481   5488   5491     1   111.0400475 552.288000
   5482   5481   5485     1   112.3500484 533.878400
   5482   5481   5488     1   112.3500484 533.878400
   5482   5494   5506     1   111.5100476 526.347200
   5485   5481   5488     1   112.3500484 533.878400
   5485   5497   5503     1   111.5100476 526.347200
   5488   5491   5500     1   111.5100476 526.347200
   5491   5500   5509     1   107.9700462 569.024000
   5494   5506  11077     1   107.9700462 569.024000
   5497   5503  11048     1   107.9700462 569.024000
   5503  11048  11020     1   112.4800480 524.673600
   5506  11077  11049     1   112.4800480 524.673600
   5510   5513   5516     1   111.5100476 526.347200
   5513   5510   5538     1   107.9700462 569.024000
   5513   5516   5519     1   111.0400475 552.288000
   5516   5519   5520     1   112.3500484 533.878400
   5516   5519   5529     1   112.3500484 533.878400
   5519   5520   5523     1   111.0400475 552.288000
   5519   5529   5532     1   111.0400475 552.288000
   5520   5519   5529     1   112.3500484 533.878400
   5520   5523   5526     1   111.0400475 529.694400
   5523   5526   5527     1   123.2000528 564.003200
   5523   5526   5528     1   123.2000528 564.003200
   5527   5526   5528     1   130.2500561 651.867200
   5529   5532   5535     1   111.0400475 529.694400
   5532   5535   5536     1   123.2000528 564.003200
   5532   5535   5537     1   123.2000528 564.003200
   5536   5535   5537     1   130.2500561 651.867200
   5539   5542   5545     1   111.5100476 526.347200
   5542   5545   5548     1   111.0400475 552.288000
   5542   5539   5567     1   107.9700462 569.024000
   5545   5548   5549     1   112.3500484 533.878400
   5545   5548   5558     1   112.3500484 533.878400
   5548   5549   5552     1   111.0400475 552.288000
   5548   5558   5561     1   111.0400475 552.288000
   5549   5552   5555     1   111.0400475 529.694400
   5549   5548   5558     1   112.3500484 533.878400
   5552   5555   5556     1   123.2000528 564.003200
   5552   5555   5557     1   123.2000528 564.003200
   5556   5555   5557     1   130.2500561 651.867200
   5558   5561   5564     1   111.0400475 529.694400
   5561   5564   5565     1   123.2000528 564.003200
   5561   5564   5566     1   123.2000528 564.003200
   5565   5564   5566     1   130.2500561 651.867200
   5568   5571   5574     1   111.5100476 526.347200
   5571   5568   5596     1   107.9700462 569.024000
   5571   5574   5577     1   111.0400475 552.288000
   5574   5577   5578     1   112.3500484 533.878400
   5574   5577   5587     1   112.3500484 533.878400
   5577   5578   5581     1   111.0400475 552.288000
   5577   5587   5590     1   111.0400475 552.288000
   5578   5577   5587     1   112.3500484 533.878400
   5578   5581   5584     1   111.0400475 529.694400
   5581   5584   5585     1   123.2000528 564.003200
   5581   5584   5586     1   123.2000528 564.003200
   5585   5584   5586     1   130.2500561 651.867200
   5587   5590   5593     1   111.0400475 529.694400
   5590   5593   5594     1   123.2000528 564.003200
   5590   5593   5595     1   123.2000528 564.003200
   5594   5593   5595     1   130.2500561 651.867200
   5597   5600   5603     1   111.5100476 526.347200
   5600   5603   5606     1   111.0400475 552.288000
   5600   5597   5625     1   107.9700462 569.024000
   5603   5606   5607     1   112.3500484 533.878400
   5603   5606   5616     1   112.3500484 533.878400
   5606   5607   5610     1   111.0400475 552.288000
   5606   5616   5619     1   111.0400475 552.288000
   5607   5610   5613     1   111.0400475 529.694400
   5607   5606   5616     1   112.3500484 533.878400
   5610   5613   5614     1   123.2000528 564.003200
   5610   5613   5615     1   123.2000528 564.003200
   5614   5613   5615     1   130.2500561 651.867200
   5616   5619   5622     1   111.0400475 529.694400
   5619   5622   5623     1   123.2000528 564.003200
   5619   5622   5624     1   123.2000528 564.003200
   5623   5622   5624     1   130.2500561 651.867200
   5626   5629   5632     1   111.5100476 526.347200
   5629   5626   5654     1   107.9700462 569.024000
   5629   5632   5635     1   111.0400475 552.288000
   5632   5635   5636     1   112.3500484 533.878400
   5632   5635   5645     1   112.3500484 533.878400
   5635   5636   5639     1   111.0400475 552.288000
   5635   5645   5648     1   111.0400475 552.288000
   5636   5635   5645     1   112.3500484 533.878400
   5636   5639   5642     1   111.0400475 529.694400
   5639   5642   5643     1   123.2000528 564.003200
   5639   5642   5644     1   123.2000528 564.003200
   5643   5642   5644     1   130.2500561 651.867200
   5645   5648   5651     1   111.0400475 529.694400
   5648   5651   5652     1   123.2000528 564.003200
   5648   5651   5653     1   123.2000528 564.003200
   5652   5651   5653     1   130.2500561 651.867200
   5655   5658   5661     1   111.5100476 526.347200
   5658   5661   5664     1   111.0400475 552.288000
   5658   5655   5683     1   107.9700462 569.024000
   5661   5664   5665     1   112.3500484 533.878400
   5661   5664   5674     1   112.3500484 533.878400
   5664   5665   5668     1   111.0400475 552.288000
   5664   5674   5677     1   111.0400475 552.288000
   5665   5668   5671     1   111.0400475 529.694400
   5665   5664   5674     1   112.3500484 533.878400
   5668   5671   5672     1   123.2000528 564.003200
   5668   5671   5673     1   123.2000528 564.003200
   5672   5671   5673     1   130.2500561 651.867200
   5674   5677   5680     1   111.0400475 529.694400
   5677   5680   5681     1   123.2000528 564.003200
   5677   5680   5682     1   123.2000528 564.003200
   5681   5680   5682     1   130.2500561 651.867200
   5684   5687   5690     1   111.5100476 526.347200
   5687   5684   5712     1   107.9700462 569.024000
   5687   5690   5693     1   111.0400475 552.288000
   5690   5693   5694     1   112.3500484 533.878400
   5690   5693   5703     1   112.3500484 533.878400
   5693   5694   5697     1   111.0400475 552.288000
   5693   5703   5706     1   111.0400475 552.288000
   5694   5693   5703     1   112.3500484 533.878400
   5694   5697   5700     1   111.0400475 529.694400
   5697   5700   5701     1   123.2000528 564.003200
   5697   5700   5702     1   123.2000528 564.003200
   5701   5700   5702     1   130.2500561 651.867200
   5703   5706   5709     1   111.0400475 529.694400
   5706   5709   5710     1   123.2000528 564.003200
   5706   5709   5711     1   123.2000528 564.003200
   5710   5709   5711     1   130.2500561 651.867200
   5713   5716   5719     1   111.5100476 526.347200
   5716   5719   5722     1   111.0400475 552.288000
   5716   5713   5741     1   107.9700462 569.024000
   5719   5722   5723     1   112.3500484 533.878400
   5719   5722   5732     1   112.3500484 533.878400
   5722   5723   5726     1   111.0400475 552.288000
   5722   5732   5735     1   111.0400475 552.288000
   5723   5726   5729     1   111.0400475 529.694400
   5723   5722   5732     1   112.3500484 533.878400
   5726   5729   5730     1   123.2000528 564.003200
   5726   5729   5731     1   123.2000528 564.003200
   5730   5729   5731     1   130.2500561 651.867200
   5732   5735   5738     1   111.0400475 529.694400
   5735   5738   5739     1   123.2000528 564.003200
   5735   5738   5740     1   123.2000528 564.003200
   5739   5738   5740     1   130.2500561 651.867200
   5742   5745   5748     1   111.5100476 526.347200
   5745   5742   5770     1   107.9700462 569.024000
   5745   5748   5751     1   111.0400475 552.288000
   5748   5751   5752     1   112.3500484 533.878400
   5748   5751   5761     1   112.3500484 533.878400
   5751   5752   5755     1   111.0400475 552.288000
   5751   5761   5764     1   111.0400475 552.288000
   5752   5751   5761     1   112.3500484 533.878400
   5752   5755   5758     1   111.0400475 529.694400
   5755   5758   5759     1   123.2000528 564.003200
   5755   5758   5760     1   123.2000528 564.003200
   5759   5758   5760     1   130.2500561 651.867200
   5761   5764   5767     1   111.0400475 529.694400
   5764   5767   5768     1   123.2000528 564.003200
   5764   5767   5769     1   123.2000528 564.003200
   5768   5767   5769     1   130.2500561 651.867200
   5771   5774   5777     1   111.5100476 526.347200
   5774   5777   5780     1   111.0400475 552.288000
   5774   5771   5799     1   107.9700462 569.024000
   5777   5780   5781     1   112.3500484 533.878400
   5777   5780   5790     1   112.3500484 533.878400
   5780   5781   5784     1   111.0400475 552.288000
   5780   5790   5793     1   111.0400475 552.288000
   5781   5784   5787     1   111.0400475 529.694400
   5781   5780   5790     1   112.3500484 533.878400
   5784   5787   5788     1   123.2000528 564.003200
   5784   5787   5789     1   123.2000528 564.003200
   5788   5787   5789     1   130.2500561 651.867200
   5790   5793   5796     1   111.0400475 529.694400
   5793   5796   5797     1   123.2000528 564.003200
   5793   5796   5798     1   123.2000528 564.003200
   5797   5796   5798     1   130.2500561 651.867200
   5800   5803   5806     1   111.5100476 526.347200
   5803   5800   5828     1   107.9700462 569.024000
   5803   5806   5809     1   111.0400475 552.288000
   5806   5809   5810     1   112.3500484 533.878400
   5806   5809   5819     1   112.3500484 533.878400
   5809   5810   5813     1   111.0400475 552.288000
   5809   5819   5822     1   111.0400475 552.288000
   5810   5809   5819     1   112.3500484 533.878400
   5810   5813   5816     1   111.0400475 529.694400
   5813   5816   5817     1   123.2000528 564.003200
   5813   5816   5818     1   123.2000528 564.003200
   5817   5816   5818     1   130.2500561 651.867200
   5819   5822   5825     1   111.0400475 529.694400
   5822   5825   5826     1   123.2000528 564.003200
   5822   5825   5827     1   123.2000528 564.003200
   5826   5825   5827     1   130.2500561 651.867200
   5829   5832   5835     1   111.5100476 526.347200
   5832   5835   5838     1   111.0400475 552.288000
   5832   5829   5857     1   107.9700462 569.024000
   5835   5838   5839     1   112.3500484 533.878400
   5835   5838   5848     1   112.3500484 533.878400
   5838   5839   5842     1   111.0400475 552.288000
   5838   5848   5851     1   111.0400475 552.288000
   5839   5842   5845     1   111.0400475 529.694400
   5839   5838   5848     1   112.3500484 533.878400
   5842   5845   5846     1   123.2000528 564.003200
   5842   5845   5847     1   123.2000528 564.003200
   5846   5845   5847     1   130.2500561 651.867200
   5848   5851   5854     1   111.0400475 529.694400
   5851   5854   5855     1   123.2000528 564.003200
   5851   5854   5856     1   123.2000528 564.003200
   5855   5854   5856     1   130.2500561 651.867200
   5858   5861   5864     1   111.5100476 526.347200
   5861   5858   5886     1   107.9700462 569.024000
   5861   5864   5867     1   111.0400475 552.288000
   5864   5867   5868     1   112.3500484 533.878400
   5864   5867   5877     1   112.3500484 533.878400
   5867   5868   5871     1   111.0400475 552.288000
   5867   5877   5880     1   111.0400475 552.288000
   5868   5867   5877     1   112.3500484 533.878400
   5868   5871   5874     1   111.0400475 529.694400
   5871   5874   5875     1   123.2000528 564.003200
   5871   5874   5876     1   123.2000528 564.003200
   5875   5874   5876     1   130.2500561 651.867200
   5877   5880   5883     1   111.0400475 529.694400
   5880   5883   5884     1   123.2000528 564.003200
   5880   5883   5885     1   123.2000528 564.003200
   5884   5883   5885     1   130.2500561 651.867200
   5887   5890   5893     1   111.5100476 526.347200
   5890   5893   5896     1   111.0400475 552.288000
   5890   5887   5915     1   107.9700462 569.024000
   5893   5896   5897     1   112.3500484 533.878400
   5893   5896   5906     1   112.3500484 533.878400
   5896   5897   5900     1   111.0400475 552.288000
   5896   5906   5909     1   111.0400475 552.288000
   5897   5900   5903     1   111.0400475 529.694400
   5897   5896   5906     1   112.3500484 533.878400
   5900   5903   5904     1   123.2000528 564.003200
   5900   5903   5905     1   123.2000528 564.003200
   5904   5903   5905     1   130.2500561 651.867200
   5906   5909   5912     1   111.0400475 529.694400
   5909   5912   5913     1   123.2000528 564.003200
   5909   5912   5914     1   123.2000528 564.003200
   5913   5912   5914     1   130.2500561 651.867200
   5916   5919   5922     1   111.5100476 526.347200
   5919   5916   5944     1   107.9700462 569.024000
   5919   5922   5925     1   111.0400475 552.288000
   5922   5925   5926     1   112.3500484 533.878400
   5922   5925   5935     1   112.3500484 533.878400
   5925   5926   5929     1   111.0400475 552.288000
   5925   5935   5938     1   111.0400475 552.288000
   5926   5925   5935     1   112.3500484 533.878400
   5926   5929   5932     1   111.0400475 529.694400
   5929   5932   5933     1   123.2000528 564.003200
   5929   5932   5934     1   123.2000528 564.003200
   5933   5932   5934     1   130.2500561 651.867200
   5935   5938   5941     1   111.0400475 529.694400
   5938   5941   5942     1   123.2000528 564.003200
   5938   5941   5943     1   123.2000528 564.003200
   5942   5941   5943     1   130.2500561 651.867200
   5945   5948   5951     1   111.5100476 526.347200
   5948   5951   5954     1   111.0400475 552.288000
   5948   5945   5973     1   107.9700462 569.024000
   5951   5954   5955     1   112.3500484 533.878400
   5951   5954   5964     1   112.3500484 533.878400
   5954   5955   5958     1   111.0400475 552.288000
   5954   5964   5967     1   111.0400475 552.288000
   5955   5958   5961     1   111.0400475 529.694400
   5955   5954   5964     1   112.3500484 533.878400
   5958   5961   5962     1   123.2000528 564.003200
   5958   5961   5963     1   123.2000528 564.003200
   5962   5961   5963     1   130.2500561 651.867200
   5964   5967   5970     1   111.0400475 529.694400
   5967   5970   5971     1   123.2000528 564.003200
   5967   5970   5972     1   123.2000528 564.003200
   5971   5970   5972     1   130.2500561 651.867200
   5974   5977   5980     1   111.5100476 526.347200
   5977   5974   6002     1   107.9700462 569.024000
   5977   5980   5983     1   111.0400475 552.288000
   5980   5983   5984     1   112.3500484 533.878400
   5980   5983   5993     1   112.3500484 533.878400
   5983   5984   5987     1   111.0400475 552.288000
   5983   5993   5996     1   111.0400475 552.288000
   5984   5983   5993     1   112.3500484 533.878400
   5984   5987   5990     1   111.0400475 529.694400
   5987   5990   5991     1   123.2000528 564.003200
   5987   5990   5992     1   123.2000528 564.003200
   5991   5990   5992     1   130.2500561 651.867200
   5993   5996   5999     1   111.0400475 529.694400
   5996   5999   6000     1   123.2000528 564.003200
   5996   5999   6001     1   123.2000528 564.003200
   6000   5999   6001     1   130.2500561 651.867200
   6003   6006   6009     1   111.5100476 526.347200
   6006   6009   6012     1   111.0400475 552.288000
   6006   6003   6031     1   107.9700462 569.024000
   6009   6012   6013     1   112.3500484 533.878400
   6009   6012   6022     1   112.3500484 533.878400
   6012   6013   6016     1   111.0400475 552.288000
   6012   6022   6025     1   111.0400475 552.288000
   6013   6016   6019     1   111.0400475 529.694400
   6013   6012   6022     1   112.3500484 533.878400
   6016   6019   6020     1   123.2000528 564.003200
   6016   6019   6021     1   123.2000528 564.003200
   6020   6019   6021     1   130.2500561 651.867200
   6022   6025   6028     1   111.0400475 529.694400
   6025   6028   6029     1   123.2000528 564.003200
   6025   6028   6030     1   123.2000528 564.003200
   6029   6028   6030     1   130.2500561 651.867200
   6032   6035   6038     1   111.5100476 526.347200
   6035   6032   6060     1   107.9700462 569.024000
   6035   6038   6041     1   111.0400475 552.288000
   6038   6041   6042     1   112.3500484 533.878400
   6038   6041   6051     1   112.3500484 533.878400
   6041   6042   6045     1   111.0400475 552.288000
   6041   6051   6054     1   111.0400475 552.288000
   6042   6041   6051     1   112.3500484 533.878400
   6042   6045   6048     1   111.0400475 529.694400
   6045   6048   6049     1   123.2000528 564.003200
   6045   6048   6050     1   123.2000528 564.003200
   6049   6048   6050     1   130.2500561 651.867200
   6051   6054   6057     1   111.0400475 529.694400
   6054   6057   6058     1   123.2000528 564.003200
   6054   6057   6059     1   123.2000528 564.003200
   6058   6057   6059     1   130.2500561 651.867200
   6061   6064   6067     1   111.5100476 526.347200
   6064   6067   6070     1   111.0400475 552.288000
   6064   6061   6089     1   107.9700462 569.024000
   6067   6070   6071     1   112.3500484 533.878400
   6067   6070   6080     1   112.3500484 533.878400
   6070   6071   6074     1   111.0400475 552.288000
   6070   6080   6083     1   111.0400475 552.288000
   6071   6074   6077     1   111.0400475 529.694400
   6071   6070   6080     1   112.3500484 533.878400
   6074   6077   6078     1   123.2000528 564.003200
   6074   6077   6079     1   123.2000528 564.003200
   6078   6077   6079     1   130.2500561 651.867200
   6080   6083   6086     1   111.0400475 529.694400
   6083   6086   6087     1   123.2000528 564.003200
   6083   6086   6088     1   123.2000528 564.003200
   6087   6086   6088     1   130.2500561 651.867200
   6090   6093   6096     1   111.5100476 526.347200
   6093   6090   6118     1   107.9700462 569.024000
   6093   6096   6099     1   111.0400475 552.288000
   6096   6099   6100     1   112.3500484 533.878400
   6096   6099   6109     1   112.3500484 533.878400
   6099   6100   6103     1   111.0400475 552.288000
   6099   6109   6112     1   111.0400475 552.288000
   6100   6099   6109     1   112.3500484 533.878400
   6100   6103   6106     1   111.0400475 529.694400
   6103   6106   6107     1   123.2000528 564.003200
   6103   6106   6108     1   123.2000528 564.003200
   6107   6106   6108     1   130.2500561 651.867200
   6109   6112   6115     1   111.0400475 529.694400
   6112   6115   6116     1   123.2000528 564.003200
   6112   6115   6117     1   123.2000528 564.003200
   6116   6115   6117     1   130.2500561 651.867200
   6119   6122   6125     1   111.5100476 526.347200
   6122   6125   6128     1   111.0400475 552.288000
   6122   6119   6147     1   107.9700462 569.024000
   6125   6128   6129     1   112.3500484 533.878400
   6125   6128   6138     1   112.3500484 533.878400
   6128   6129   6132     1   111.0400475 552.288000
   6128   6138   6141     1   111.0400475 552.288000
   6129   6132   6135     1   111.0400475 529.694400
   6129   6128   6138     1   112.3500484 533.878400
   6132   6135   6136     1   123.2000528 564.003200
   6132   6135   6137     1   123.2000528 564.003200
   6136   6135   6137     1   130.2500561 651.867200
   6138   6141   6144     1   111.0400475 529.694400
   6141   6144   6145     1   123.2000528 564.003200
   6141   6144   6146     1   123.2000528 564.003200
   6145   6144   6146     1   130.2500561 651.867200
   6148   6151   6154     1   111.5100476 526.347200
   6151   6148   6176     1   107.9700462 569.024000
   6151   6154   6157     1   111.0400475 552.288000
   6154   6157   6158     1   112.3500484 533.878400
   6154   6157   6167     1   112.3500484 533.878400
   6157   6158   6161     1   111.0400475 552.288000
   6157   6167   6170     1   111.0400475 552.288000
   6158   6157   6167     1   112.3500484 533.878400
   6158   6161   6164     1   111.0400475 529.694400
   6161   6164   6165     1   123.2000528 564.003200
   6161   6164   6166     1   123.2000528 564.003200
   6165   6164   6166     1   130.2500561 651.867200
   6167   6170   6173     1   111.0400475 529.694400
   6170   6173   6174     1   123.2000528 564.003200
   6170   6173   6175     1   123.2000528 564.003200
   6174   6173   6175     1   130.2500561 651.867200
   6177   6180   6183     1   111.5100476 526.347200
   6180   6183   6186     1   111.0400475 552.288000
   6180   6177   6205     1   107.9700462 569.024000
   6183   6186   6187     1   112.3500484 533.878400
   6183   6186   6196     1   112.3500484 533.878400
   6186   6187   6190     1   111.0400475 552.288000
   6186   6196   6199     1   111.0400475 552.288000
   6187   6190   6193     1   111.0400475 529.694400
   6187   6186   6196     1   112.3500484 533.878400
   6190   6193   6194     1   123.2000528 564.003200
   6190   6193   6195     1   123.2000528 564.003200
   6194   6193   6195     1   130.2500561 651.867200
   6196   6199   6202     1   111.0400475 529.694400
   6199   6202   6203     1   123.2000528 564.003200
   6199   6202   6204     1   123.2000528 564.003200
   6203   6202   6204     1   130.2500561 651.867200
   6206   6209   6212     1   111.5100476 526.347200
   6209   6206   6234     1   107.9700462 569.024000
   6209   6212   6215     1   111.0400475 552.288000
   6212   6215   6216     1   112.3500484 533.878400
   6212   6215   6225     1   112.3500484 533.878400
   6215   6216   6219     1   111.0400475 552.288000
   6215   6225   6228     1   111.0400475 552.288000
   6216   6215   6225     1   112.3500484 533.878400
   6216   6219   6222     1   111.0400475 529.694400
   6219   6222   6223     1   123.2000528 564.003200
   6219   6222   6224     1   123.2000528 564.003200
   6223   6222   6224     1   130.2500561 651.867200
   6225   6228   6231     1   111.0400475 529.694400
   6228   6231   6232     1   123.2000528 564.003200
   6228   6231   6233     1   123.2000528 564.003200
   6232   6231   6233     1   130.2500561 651.867200
   6235   6238   6241     1   111.5100476 526.347200
   6238   6241   6244     1   111.0400475 552.288000
   6238   6235   6263     1   107.9700462 569.024000
   6241   6244   6245     1   112.3500484 533.878400
   6241   6244   6254     1   112.3500484 533.878400
   6244   6245   6248     1   111.0400475 552.288000
   6244   6254   6257     1   111.0400475 552.288000
   6245   6248   6251     1   111.0400475 529.694400
   6245   6244   6254     1   112.3500484 533.878400
   6248   6251   6252     1   123.2000528 564.003200
   6248   6251   6253     1   123.2000528 564.003200
   6252   6251   6253     1   130.2500561 651.867200
   6254   6257   6260     1   111.0400475 529.694400
   6257   6260   6261     1   123.2000528 564.003200
   6257   6260   6262     1   123.2000528 564.003200
   6261   6260   6262     1   130.2500561 651.867200
   6264   6267   6270     1   111.5100476 526.347200
   6267   6264   6292     1   107.9700462 569.024000
   6267   6270   6273     1   111.0400475 552.288000
   6270   6273   6274     1   112.3500484 533.878400
   6270   6273   6283     1   112.3500484 533.878400
   6273   6274   6277     1   111.0400475 552.288000
   6273   6283   6286     1   111.0400475 552.288000
   6274   6273   6283     1   112.3500484 533.878400
   6274   6277   6280     1   111.0400475 529.694400
   6277   6280   6281     1   123.2000528 564.003200
   6277   6280   6282     1   123.2000528 564.003200
   6281   6280   6282     1   130.2500561 651.867200
   6283   6286   6289     1   111.0400475 529.694400
   6286   6289   6290     1   123.2000528 564.003200
   6286   6289   6291     1   123.2000528 564.003200
   6290   6289   6291     1   130.2500561 651.867200
   6293   6296   6299     1   111.5100476 526.347200
   6296   6299   6302     1   111.0400475 552.288000
   6296   6293   6321     1   107.9700462 569.024000
   6299   6302   6303     1   112.3500484 533.878400
   6299   6302   6312     1   112.3500484 533.878400
   6302   6303   6306     1   111.0400475 552.288000
   6302   6312   6315     1   111.0400475 552.288000
   6303   6306   6309     1   111.0400475 529.694400
   6303   6302   6312     1   112.3500484 533.878400
   6306   6309   6310     1   123.2000528 564.003200
   6306   6309   6311     1   123.2000528 564.003200
   6310   6309   6311     1   130.2500561 651.867200
   6312   6315   6318     1   111.0400475 529.694400
   6315   6318   6319     1   123.2000528 564.003200
   6315   6318   6320     1   123.2000528 564.003200
   6319   6318   6320     1   130.2500561 651.867200
   6322   6325   6328     1   111.5100476 526.347200
   6325   6322   6350     1   107.9700462 569.024000
   6325   6328   6331     1   111.0400475 552.288000
   6328   6331   6332     1   112.3500484 533.878400
   6328   6331   6341     1   112.3500484 533.878400
   6331   6332   6335     1   111.0400475 552.288000
   6331   6341   6344     1   111.0400475 552.288000
   6332   6331   6341     1   112.3500484 533.878400
   6332   6335   6338     1   111.0400475 529.694400
   6335   6338   6339     1   123.2000528 564.003200
   6335   6338   6340     1   123.2000528 564.003200
   6339   6338   6340     1   130.2500561 651.867200
   6341   6344   6347     1   111.0400475 529.694400
   6344   6347   6348     1   123.2000528 564.003200
   6344   6347   6349     1   123.2000528 564.003200
   6348   6347   6349     1   130.2500561 651.867200
   6351   6354   6357     1   111.5100476 526.347200
   6354   6357   6360     1   111.0400475 552.288000
   6354   6351   6379     1   107.9700462 569.024000
   6357   6360   6361     1   112.3500484 533.878400
   6357   6360   6370     1   112.3500484 533.878400
   6360   6361   6364     1   111.0400475 552.288000
   6360   6370   6373     1   111.0400475 552.288000
   6361   6364   6367     1   111.0400475 529.694400
   6361   6360   6370     1   112.3500484 533.878400
   6364   6367   6368     1   123.2000528 564.003200
   6364   6367   6369     1   123.2000528 564.003200
   6368   6367   6369     1   130.2500561 651.867200
   6370   6373   6376     1   111.0400475 529.694400
   6373   6376   6377     1   123.2000528 564.003200
   6373   6376   6378     1   123.2000528 564.003200
   6377   6376   6378     1   130.2500561 651.867200
   6380   6383   6386     1   111.5100476 526.347200
   6383   6380   6408     1   107.9700462 569.024000
   6383   6386   6389     1   111.0400475 552.288000
   6386   6389   6390     1   112.3500484 533.878400
   6386   6389   6399     1   112.3500484 533.878400
   6389   6390   6393     1   111.0400475 552.288000
   6389   6399   6402     1   111.0400475 552.288000
   6390   6389   6399     1   112.3500484 533.878400
   6390   6393   6396     1   111.0400475 529.694400
   6393   6396   6397     1   123.2000528 564.003200
   6393   6396   6398     1   123.2000528 564.003200
   6397   6396   6398     1   130.2500561 651.867200
   6399   6402   6405     1   111.0400475 529.694400
   6402   6405   6406     1   123.2000528 564.003200
   6402   6405   6407     1   123.2000528 564.003200
   6406   6405   6407     1   130.2500561 651.867200
   6409   6412   6415     1   111.5100476 526.347200
   6412   6415   6418     1   111.0400475 552.288000
   6412   6409   6437     1   107.9700462 569.024000
   6415   6418   6419     1   112.3500484 533.878400
   6415   6418   6428     1   112.3500484 533.878400
   6418   6419   6422     1   111.0400475 552.288000
   6418   6428   6431     1   111.0400475 552.288000
   6419   6422   6425     1   111.0400475 529.694400
   6419   6418   6428     1   112.3500484 533.878400
   6422   6425   6426     1   123.2000528 564.003200
   6422   6425   6427     1   123.2000528 564.003200
   6426   6425   6427     1   130.2500561 651.867200
   6428   6431   6434     1   111.0400475 529.694400
   6431   6434   6435     1   123.2000528 564.003200
   6431   6434   6436     1   123.2000528 564.003200
   6435   6434   6436     1   130.2500561 651.867200
   6438   6441   6444     1   111.5100476 526.347200
   6441   6438   6466     1   107.9700462 569.024000
   6441   6444   6447     1   111.0400475 552.288000
   6444   6447   6448     1   112.3500484 533.878400
   6444   6447   6457     1   112.3500484 533.878400
   6447   6448   6451     1   111.0400475 552.288000
   6447   6457   6460     1   111.0400475 552.288000
   6448   6447   6457     1   112.3500484 533.878400
   6448   6451   6454     1   111.0400475 529.694400
   6451   6454   6455     1   123.2000528 564.003200
   6451   6454   6456     1   123.2000528 564.003200
   6455   6454   6456     1   130.2500561 651.867200
   6457   6460   6463     1   111.0400475 529.694400
   6460   6463   6464     1   123.2000528 564.003200
   6460   6463   6465     1   123.2000528 564.003200
   6464   6463   6465     1   130.2500561 651.867200
   6467   6470   6473     1   111.5100476 526.347200
   6470   6473   6476     1   111.0400475 552.288000
   6470   6467   6495     1   107.9700462 569.024000
   6473   6476   6477     1   112.3500484 533.878400
   6473   6476   6486     1   112.3500484 533.878400
   6476   6477   6480     1   111.0400475 552.288000
   6476   6486   6489     1   111.0400475 552.288000
   6477   6480   6483     1   111.0400475 529.694400
   6477   6476   6486     1   112.3500484 533.878400
   6480   6483   6484     1   123.2000528 564.003200
   6480   6483   6485     1   123.2000528 564.003200
   6484   6483   6485     1   130.2500561 651.867200
   6486   6489   6492     1   111.0400475 529.694400
   6489   6492   6493     1   123.2000528 564.003200
   6489   6492   6494     1   123.2000528 564.003200
   6493   6492   6494     1   130.2500561 651.867200
   6496   6499   6502     1   111.5100476 526.347200
   6499   6496   6524     1   107.9700462 569.024000
   6499   6502   6505     1   111.0400475 552.288000
   6502   6505   6506     1   112.3500484 533.878400
   6502   6505   6515     1   112.3500484 533.878400
   6505   6506   6509     1   111.0400475 552.288000
   6505   6515   6518     1   111.0400475 552.288000
   6506   6505   6515     1   112.3500484 533.878400
   6506   6509   6512     1   111.0400475 529.694400
   6509   6512   6513     1   123.2000528 564.003200
   6509   6512   6514     1   123.2000528 564.003200
   6513   6512   6514     1   130.2500561 651.867200
   6515   6518   6521     1   111.0400475 529.694400
   6518   6521   6522     1   123.2000528 564.003200
   6518   6521   6523     1   123.2000528 564.003200
   6522   6521   6523     1   130.2500561 651.867200
   6525   6528   6531     1   111.5100476 526.347200
   6528   6531   6534     1   111.0400475 552.288000
   6528   6525   6553     1   107.9700462 569.024000
   6531   6534   6535     1   112.3500484 533.878400
   6531   6534   6544     1   112.3500484 533.878400
   6534   6535   6538     1   111.0400475 552.288000
   6534   6544   6547     1   111.0400475 552.288000
   6535   6538   6541     1   111.0400475 529.694400
   6535   6534   6544     1   112.3500484 533.878400
   6538   6541   6542     1   123.2000528 564.003200
   6538   6541   6543     1   123.2000528 564.003200
   6542   6541   6543     1   130.2500561 651.867200
   6544   6547   6550     1   111.0400475 529.694400
   6547   6550   6551     1   123.2000528 564.003200
   6547   6550   6552     1   123.2000528 564.003200
   6551   6550   6552     1   130.2500561 651.867200
   6554   6557   6560     1   111.5100476 526.347200
   6557   6554   6582     1   107.9700462 569.024000
   6557   6560   6563     1   111.0400475 552.288000
   6560   6563   6564     1   112.3500484 533.878400
   6560   6563   6573     1   112.3500484 533.878400
   6563   6564   6567     1   111.0400475 552.288000
   6563   6573   6576     1   111.0400475 552.288000
   6564   6563   6573     1   112.3500484 533.878400
   6564   6567   6570     1   111.0400475 529.694400
   6567   6570   6571     1   123.2000528 564.003200
   6567   6570   6572     1   123.2000528 564.003200
   6571   6570   6572     1   130.2500561 651.867200
   6573   6576   6579     1   111.0400475 529.694400
   6576   6579   6580     1   123.2000528 564.003200
   6576   6579   6581     1   123.2000528 564.003200
   6580   6579   6581     1   130.2500561 651.867200
   6583   6586   6589     1   111.5100476 526.347200
   6586   6589   6592     1   111.0400475 552.288000
   6586   6583   6611     1   107.9700462 569.024000
   6589   6592   6593     1   112.3500484 533.878400
   6589   6592   6602     1   112.3500484 533.878400
   6592   6593   6596     1   111.0400475 552.288000
   6592   6602   6605     1   111.0400475 552.288000
   6593   6596   6599     1   111.0400475 529.694400
   6593   6592   6602     1   112.3500484 533.878400
   6596   6599   6600     1   123.2000528 564.003200
   6596   6599   6601     1   123.2000528 564.003200
   6600   6599   6601     1   130.2500561 651.867200
   6602   6605   6608     1   111.0400475 529.694400
   6605   6608   6609     1   123.2000528 564.003200
   6605   6608   6610     1   123.2000528 564.003200
   6609   6608   6610     1   130.2500561 651.867200
   6612   6615   6618     1   111.5100476 526.347200
   6615   6612   6640     1   107.9700462 569.024000
   6615   6618   6621     1   111.0400475 552.288000
   6618   6621   6622     1   112.3500484 533.878400
   6618   6621   6631     1   112.3500484 533.878400
   6621   6622   6625     1   111.0400475 552.288000
   6621   6631   6634     1   111.0400475 552.288000
   6622   6621   6631     1   112.3500484 533.878400
   6622   6625   6628     1   111.0400475 529.694400
   6625   6628   6629     1   123.2000528 564.003200
   6625   6628   6630     1   123.2000528 564.003200
   6629   6628   6630     1   130.2500561 651.867200
   6631   6634   6637     1   111.0400475 529.694400
   6634   6637   6638     1   123.2000528 564.003200
   6634   6637   6639     1   123.2000528 564.003200
   6638   6637   6639     1   130.2500561 651.867200
   6641   6644   6647     1   111.5100476 526.347200
   6644   6647   6650     1   111.0400475 552.288000
   6644   6641   6669     1   107.9700462 569.024000
   6647   6650   6651     1   112.3500484 533.878400
   6647   6650   6660     1   112.3500484 533.878400
   6650   6651   6654     1   111.0400475 552.288000
   6650   6660   6663     1   111.0400475 552.288000
   6651   6654   6657     1   111.0400475 529.694400
   6651   6650   6660     1   112.3500484 533.878400
   6654   6657   6658     1   123.2000528 564.003200
   6654   6657   6659     1   123.2000528 564.003200
   6658   6657   6659     1   130.2500561 651.867200
   6660   6663   6666     1   111.0400475 529.694400
   6663   6666   6667     1   123.2000528 564.003200
   6663   6666   6668     1   123.2000528 564.003200
   6667   6666   6668     1   130.2500561 651.867200
   6670   6673   6676     1   111.5100476 526.347200
   6673   6670   6698     1   107.9700462 569.024000
   6673   6676   6679     1   111.0400475 552.288000
   6676   6679   6680     1   112.3500484 533.878400
   6676   6679   6689     1   112.3500484 533.878400
   6679   6680   6683     1   111.0400475 552.288000
   6679   6689   6692     1   111.0400475 552.288000
   6680   6679   6689     1   112.3500484 533.878400
   6680   6683   6686     1   111.0400475 529.694400
   6683   6686   6687     1   123.2000528 564.003200
   6683   6686   6688     1   123.2000528 564.003200
   6687   6686   6688     1   130.2500561 651.867200
   6689   6692   6695     1   111.0400475 529.694400
   6692   6695   6696     1   123.2000528 564.003200
   6692   6695   6697     1   123.2000528 564.003200
   6696   6695   6697     1   130.2500561 651.867200
   6699   6702   6705     1   111.5100476 526.347200
   6702   6705   6708     1   111.0400475 552.288000
   6702   6699   6727     1   107.9700462 569.024000
   6705   6708   6709     1   112.3500484 533.878400
   6705   6708   6718     1   112.3500484 533.878400
   6708   6709   6712     1   111.0400475 552.288000
   6708   6718   6721     1   111.0400475 552.288000
   6709   6712   6715     1   111.0400475 529.694400
   6709   6708   6718     1   112.3500484 533.878400
   6712   6715   6716     1   123.2000528 564.003200
   6712   6715   6717     1   123.2000528 564.003200
   6716   6715   6717     1   130.2500561 651.867200
   6718   6721   6724     1   111.0400475 529.694400
   6721   6724   6725     1   123.2000528 564.003200
   6721   6724   6726     1   123.2000528 564.003200
   6725   6724   6726     1   130.2500561 651.867200
   6728   6731   6734     1   111.5100476 526.347200
   6731   6728   6756     1   107.9700462 569.024000
   6731   6734   6737     1   111.0400475 552.288000
   6734   6737   6738     1   112.3500484 533.878400
   6734   6737   6747     1   112.3500484 533.878400
   6737   6738   6741     1   111.0400475 552.288000
   6737   6747   6750     1   111.0400475 552.288000
   6738   6737   6747     1   112.3500484 533.878400
   6738   6741   6744     1   111.0400475 529.694400
   6741   6744   6745     1   123.2000528 564.003200
   6741   6744   6746     1   123.2000528 564.003200
   6745   6744   6746     1   130.2500561 651.867200
   6747   6750   6753     1   111.0400475 529.694400
   6750   6753   6754     1   123.2000528 564.003200
   6750   6753   6755     1   123.2000528 564.003200
   6754   6753   6755     1   130.2500561 651.867200
   6757   6760   6763     1   111.5100476 526.347200
   6760   6763   6766     1   111.0400475 552.288000
   6760   6757   6785     1   107.9700462 569.024000
   6763   6766   6767     1   112.3500484 533.878400
   6763   6766   6776     1   112.3500484 533.878400
   6766   6767   6770     1   111.0400475 552.288000
   6766   6776   6779     1   111.0400475 552.288000
   6767   6770   6773     1   111.0400475 529.694400
   6767   6766   6776     1   112.3500484 533.878400
   6770   6773   6774     1   123.2000528 564.003200
   6770   6773   6775     1   123.2000528 564.003200
   6774   6773   6775     1   130.2500561 651.867200
   6776   6779   6782     1   111.0400475 529.694400
   6779   6782   6783     1   123.2000528 564.003200
   6779   6782   6784     1   123.2000528 564.003200
   6783   6782   6784     1   130.2500561 651.867200
   6786   6789   6792     1   111.5100476 526.347200
   6789   6786   6814     1   107.9700462 569.024000
   6789   6792   6795     1   111.0400475 552.288000
   6792   6795   6796     1   112.3500484 533.878400
   6792   6795   6805     1   112.3500484 533.878400
   6795   6796   6799     1   111.0400475 552.288000
   6795   6805   6808     1   111.0400475 552.288000
   6796   6795   6805     1   112.3500484 533.878400
   6796   6799   6802     1   111.0400475 529.694400
   6799   6802   6803     1   123.2000528 564.003200
   6799   6802   6804     1   123.2000528 564.003200
   6803   6802   6804     1   130.2500561 651.867200
   6805   6808   6811     1   111.0400475 529.694400
   6808   6811   6812     1   123.2000528 564.003200
   6808   6811   6813     1   123.2000528 564.003200
   6812   6811   6813     1   130.2500561 651.867200
   6815   6818   6821     1   111.5100476 526.347200
   6818   6821   6824     1   111.0400475 552.288000
   6818   6815   6843     1   107.9700462 569.024000
   6821   6824   6825     1   112.3500484 533.878400
   6821   6824   6834     1   112.3500484 533.878400
   6824   6825   6828     1   111.0400475 552.288000
   6824   6834   6837     1   111.0400475 552.288000
   6825   6828   6831     1   111.0400475 529.694400
   6825   6824   6834     1   112.3500484 533.878400
   6828   6831   6832     1   123.2000528 564.003200
   6828   6831   6833     1   123.2000528 564.003200
   6832   6831   6833     1   130.2500561 651.867200
   6834   6837   6840     1   111.0400475 529.694400
   6837   6840   6841     1   123.2000528 564.003200
   6837   6840   6842     1   123.2000528 564.003200
   6841   6840   6842     1   130.2500561 651.867200
   6844   6847   6850     1   111.5100476 526.347200
   6847   6844   6872     1   107.9700462 569.024000
   6847   6850   6853     1   111.0400475 552.288000
   6850   6853   6854     1   112.3500484 533.878400
   6850   6853   6863     1   112.3500484 533.878400
   6853   6854   6857     1   111.0400475 552.288000
   6853   6863   6866     1   111.0400475 552.288000
   6854   6853   6863     1   112.3500484 533.878400
   6854   6857   6860     1   111.0400475 529.694400
   6857   6860   6861     1   123.2000528 564.003200
   6857   6860   6862     1   123.2000528 564.003200
   6861   6860   6862     1   130.2500561 651.867200
   6863   6866   6869     1   111.0400475 529.694400
   6866   6869   6870     1   123.2000528 564.003200
   6866   6869   6871     1   123.2000528 564.003200
   6870   6869   6871     1   130.2500561 651.867200
   6873   6876   6879     1   111.5100476 526.347200
   6876   6879   6882     1   111.0400475 552.288000
   6876   6873   6901     1   107.9700462 569.024000
   6879   6882   6883     1   112.3500484 533.878400
   6879   6882   6892     1   112.3500484 533.878400
   6882   6883   6886     1   111.0400475 552.288000
   6882   6892   6895     1   111.0400475 552.288000
   6883   6886   6889     1   111.0400475 529.694400
   6883   6882   6892     1   112.3500484 533.878400
   6886   6889   6890     1   123.2000528 564.003200
   6886   6889   6891     1   123.2000528 564.003200
   6890   6889   6891     1   130.2500561 651.867200
   6892   6895   6898     1   111.0400475 529.694400
   6895   6898   6899     1   123.2000528 564.003200
   6895   6898   6900     1   123.2000528 564.003200
   6899   6898   6900     1   130.2500561 651.867200
   6902   6905   6908     1   111.5100476 526.347200
   6905   6902   6930     1   107.9700462 569.024000
   6905   6908   6911     1   111.0400475 552.288000
   6908   6911   6912     1   112.3500484 533.878400
   6908   6911   6921     1   112.3500484 533.878400
   6911   6912   6915     1   111.0400475 552.288000
   6911   6921   6924     1   111.0400475 552.288000
   6912   6911   6921     1   112.3500484 533.878400
   6912   6915   6918     1   111.0400475 529.694400
   6915   6918   6919     1   123.2000528 564.003200
   6915   6918   6920     1   123.2000528 564.003200
   6919   6918   6920     1   130.2500561 651.867200
   6921   6924   6927     1   111.0400475 529.694400
   6924   6927   6928     1   123.2000528 564.003200
   6924   6927   6929     1   123.2000528 564.003200
   6928   6927   6929     1   130.2500561 651.867200
   6931   6934   6937     1   111.5100476 526.347200
   6934   6937   6940     1   111.0400475 552.288000
   6934   6931   6959     1   107.9700462 569.024000
   6937   6940   6941     1   112.3500484 533.878400
   6937   6940   6950     1   112.3500484 533.878400
   6940   6941   6944     1   111.0400475 552.288000
   6940   6950   6953     1   111.0400475 552.288000
   6941   6944   6947     1   111.0400475 529.694400
   6941   6940   6950     1   112.3500484 533.878400
   6944   6947   6948     1   123.2000528 564.003200
   6944   6947   6949     1   123.2000528 564.003200
   6948   6947   6949     1   130.2500561 651.867200
   6950   6953   6956     1   111.0400475 529.694400
   6953   6956   6957     1   123.2000528 564.003200
   6953   6956   6958     1   123.2000528 564.003200
   6957   6956   6958     1   130.2500561 651.867200
   6960   6963   6966     1   111.5100476 526.347200
   6963   6960   6988     1   107.9700462 569.024000
   6963   6966   6969     1   111.0400475 552.288000
   6966   6969   6970     1   112.3500484 533.878400
   6966   6969   6979     1   112.3500484 533.878400
   6969   6970   6973     1   111.0400475 552.288000
   6969   6979   6982     1   111.0400475 552.288000
   6970   6969   6979     1   112.3500484 533.878400
   6970   6973   6976     1   111.0400475 529.694400
   6973   6976   6977     1   123.2000528 564.003200
   6973   6976   6978     1   123.2000528 564.003200
   6977   6976   6978     1   130.2500561 651.867200
   6979   6982   6985     1   111.0400475 529.694400
   6982   6985   6986     1   123.2000528 564.003200
   6982   6985   6987     1   123.2000528 564.003200
   6986   6985   6987     1   130.2500561 651.867200
   6989   6992   6995     1   111.5100476 526.347200
   6992   6995   6998     1   111.0400475 552.288000
   6992   6989   7017     1   107.9700462 569.024000
   6995   6998   6999     1   112.3500484 533.878400
   6995   6998   7008     1   112.3500484 533.878400
   6998   6999   7002     1   111.0400475 552.288000
   6998   7008   7011     1   111.0400475 552.288000
   6999   7002   7005     1   111.0400475 529.694400
   6999   6998   7008     1   112.3500484 533.878400
   7002   7005   7006     1   123.2000528 564.003200
   7002   7005   7007     1   123.2000528 564.003200
   7006   7005   7007     1   130.2500561 651.867200
   7008   7011   7014     1   111.0400475 529.694400
   7011   7014   7015     1   123.2000528 564.003200
   7011   7014   7016     1   123.2000528 564.003200
   7015   7014   7016     1   130.2500561 651.867200
   7018   7021   7024     1   111.5100476 526.347200
   7021   7018   7046     1   107.9700462 569.024000
   7021   7024   7027     1   111.0400475 552.288000
   7024   7027   7028     1   112.3500484 533.878400
   7024   7027   7037     1   112.3500484 533.878400
   7027   7028   7031     1   111.0400475 552.288000
   7027   7037   7040     1   111.0400475 552.288000
   7028   7027   7037     1   112.3500484 533.878400
   7028   7031   7034     1   111.0400475 529.694400
   7031   7034   7035     1   123.2000528 564.003200
   7031   7034   7036     1   123.2000528 564.003200
   7035   7034   7036     1   130.2500561 651.867200
   7037   7040   7043     1   111.0400475 529.694400
   7040   7043   7044     1   123.2000528 564.003200
   7040   7043   7045     1   123.2000528 564.003200
   7044   7043   7045     1   130.2500561 651.867200
   7047   7050   7053     1   111.5100476 526.347200
   7050   7053   7056     1   111.0400475 552.288000
   7050   7047   7075     1   107.9700462 569.024000
   7053   7056   7057     1   112.3500484 533.878400
   7053   7056   7066     1   112.3500484 533.878400
   7056   7057   7060     1   111.0400475 552.288000
   7056   7066   7069     1   111.0400475 552.288000
   7057   7060   7063     1   111.0400475 529.694400
   7057   7056   7066     1   112.3500484 533.878400
   7060   7063   7064     1   123.2000528 564.003200
   7060   7063   7065     1   123.2000528 564.003200
   7064   7063   7065     1   130.2500561 651.867200
   7066   7069   7072     1   111.0400475 529.694400
   7069   7072   7073     1   123.2000528 564.003200
   7069   7072   7074     1   123.2000528 564.003200
   7073   7072   7074     1   130.2500561 651.867200
   7076   7079   7082     1   111.5100476 526.347200
   7079   7076   7104     1   107.9700462 569.024000
   7079   7082   7085     1   111.0400475 552.288000
   7082   7085   7086     1   112.3500484 533.878400
   7082   7085   7095     1   112.3500484 533.878400
   7085   7086   7089     1   111.0400475 552.288000
   7085   7095   7098     1   111.0400475 552.288000
   7086   7085   7095     1   112.3500484 533.878400
   7086   7089   7092     1   111.0400475 529.694400
   7089   7092   7093     1   123.2000528 564.003200
   7089   7092   7094     1   123.2000528 564.003200
   7093   7092   7094     1   130.2500561 651.867200
   7095   7098   7101     1   111.0400475 529.694400
   7098   7101   7102     1   123.2000528 564.003200
   7098   7101   7103     1   123.2000528 564.003200
   7102   7101   7103     1   130.2500561 651.867200
   7105   7108   7111     1   111.5100476 526.347200
   7108   7111   7114     1   111.0400475 552.288000
   7108   7105   7133     1   107.9700462 569.024000
   7111   7114   7115     1   112.3500484 533.878400
   7111   7114   7124     1   112.3500484 533.878400
   7114   7115   7118     1   111.0400475 552.288000
   7114   7124   7127     1   111.0400475 552.288000
   7115   7118   7121     1   111.0400475 529.694400
   7115   7114   7124     1   112.3500484 533.878400
   7118   7121   7122     1   123.2000528 564.003200
   7118   7121   7123     1   123.2000528 564.003200
   7122   7121   7123     1   130.2500561 651.867200
   7124   7127   7130     1   111.0400475 529.694400
   7127   7130   7131     1   123.2000528 564.003200
   7127   7130   7132     1   123.2000528 564.003200
   7131   7130   7132     1   130.2500561 651.867200
   7134   7137   7140     1   111.5100476 526.347200
   7137   7134   7162     1   107.9700462 569.024000
   7137   7140   7143     1   111.0400475 552.288000
   7140   7143   7144     1   112.3500484 533.878400
   7140   7143   7153     1   112.3500484 533.878400
   7143   7144   7147     1   111.0400475 552.288000
   7143   7153   7156     1   111.0400475 552.288000
   7144   7143   7153     1   112.3500484 533.878400
   7144   7147   7150     1   111.0400475 529.694400
   7147   7150   7151     1   123.2000528 564.003200
   7147   7150   7152     1   123.2000528 564.003200
   7151   7150   7152     1   130.2500561 651.867200
   7153   7156   7159     1   111.0400475 529.694400
   7156   7159   7160     1   123.2000528 564.003200
   7156   7159   7161     1   123.2000528 564.003200
   7160   7159   7161     1   130.2500561 651.867200
   7163   7166   7169     1   111.5100476 526.347200
   7166   7169   7172     1   111.0400475 552.288000
   7166   7163   7191     1   107.9700462 569.024000
   7169   7172   7173     1   112.3500484 533.878400
   7169   7172   7182     1   112.3500484 533.878400
   7172   7173   7176     1   111.0400475 552.288000
   7172   7182   7185     1   111.0400475 552.288000
   7173   7176   7179     1   111.0400475 529.694400
   7173   7172   7182     1   112.3500484 533.878400
   7176   7179   7180     1   123.2000528 564.003200
   7176   7179   7181     1   123.2000528 564.003200
   7180   7179   7181     1   130.2500561 651.867200
   7182   7185   7188     1   111.0400475 529.694400
   7185   7188   7189     1   123.2000528 564.003200
   7185   7188   7190     1   123.2000528 564.003200
   7189   7188   7190     1   130.2500561 651.867200
   7192   7195   7198     1   111.5100476 526.347200
   7195   7192   7220     1   107.9700462 569.024000
   7195   7198   7201     1   111.0400475 552.288000
   7198   7201   7202     1   112.3500484 533.878400
   7198   7201   7211     1   112.3500484 533.878400
   7201   7202   7205     1   111.0400475 552.288000
   7201   7211   7214     1   111.0400475 552.288000
   7202   7201   7211     1   112.3500484 533.878400
   7202   7205   7208     1   111.0400475 529.694400
   7205   7208   7209     1   123.2000528 564.003200
   7205   7208   7210     1   123.2000528 564.003200
   7209   7208   7210     1   130.2500561 651.867200
   7211   7214   7217     1   111.0400475 529.694400
   7214   7217   7218     1   123.2000528 564.003200
   7214   7217   7219     1   123.2000528 564.003200
   7218   7217   7219     1   130.2500561 651.867200
   7221   7224   7227     1   111.5100476 526.347200
   7224   7227   7230     1   111.0400475 552.288000
   7224   7221   7249     1   107.9700462 569.024000
   7227   7230   7231     1   112.3500484 533.878400
   7227   7230   7240     1   112.3500484 533.878400
   7230   7231   7234     1   111.0400475 552.288000
   7230   7240   7243     1   111.0400475 552.288000
   7231   7234   7237     1   111.0400475 529.694400
   7231   7230   7240     1   112.3500484 533.878400
   7234   7237   7238     1   123.2000528 564.003200
   7234   7237   7239     1   123.2000528 564.003200
   7238   7237   7239     1   130.2500561 651.867200
   7240   7243   7246     1   111.0400475 529.694400
   7243   7246   7247     1   123.2000528 564.003200
   7243   7246   7248     1   123.2000528 564.003200
   7247   7246   7248     1   130.2500561 651.867200
   7250   7253   7256     1   111.5100476 526.347200
   7253   7250   7278     1   107.9700462 569.024000
   7253   7256   7259     1   111.0400475 552.288000
   7256   7259   7260     1   112.3500484 533.878400
   7256   7259   7269     1   112.3500484 533.878400
   7259   7260   7263     1   111.0400475 552.288000
   7259   7269   7272     1   111.0400475 552.288000
   7260   7259   7269     1   112.3500484 533.878400
   7260   7263   7266     1   111.0400475 529.694400
   7263   7266   7267     1   123.2000528 564.003200
   7263   7266   7268     1   123.2000528 564.003200
   7267   7266   7268     1   130.2500561 651.867200
   7269   7272   7275     1   111.0400475 529.694400
   7272   7275   7276     1   123.2000528 564.003200
   7272   7275   7277     1   123.2000528 564.003200
   7276   7275   7277     1   130.2500561 651.867200
   7279   7282   7285     1   111.5100476 526.347200
   7282   7285   7288     1   111.0400475 552.288000
   7282   7279   7307     1   107.9700462 569.024000
   7285   7288   7289     1   112.3500484 533.878400
   7285   7288   7298     1   112.3500484 533.878400
   7288   7289   7292     1   111.0400475 552.288000
   7288   7298   7301     1   111.0400475 552.288000
   7289   7292   7295     1   111.0400475 529.694400
   7289   7288   7298     1   112.3500484 533.878400
   7292   7295   7296     1   123.2000528 564.003200
   7292   7295   7297     1   123.2000528 564.003200
   7296   7295   7297     1   130.2500561 651.867200
   7298   7301   7304     1   111.0400475 529.694400
   7301   7304   7305     1   123.2000528 564.003200
   7301   7304   7306     1   123.2000528 564.003200
   7305   7304   7306     1   130.2500561 651.867200
   7308   7311   7314     1   111.5100476 526.347200
   7311   7308   7336     1   107.9700462 569.024000
   7311   7314   7317     1   111.0400475 552.288000
   7314   7317   7318     1   112.3500484 533.878400
   7314   7317   7327     1   112.3500484 533.878400
   7317   7318   7321     1   111.0400475 552.288000
   7317   7327   7330     1   111.0400475 552.288000
   7318   7317   7327     1   112.3500484 533.878400
   7318   7321   7324     1   111.0400475 529.694400
   7321   7324   7325     1   123.2000528 564.003200
   7321   7324   7326     1   123.2000528 564.003200
   7325   7324   7326     1   130.2500561 651.867200
   7327   7330   7333     1   111.0400475 529.694400
   7330   7333   7334     1   123.2000528 564.003200
   7330   7333   7335     1   123.2000528 564.003200
   7334   7333   7335     1   130.2500561 651.867200
   7337   7340   7343     1   111.5100476 526.347200
   7340   7343   7346     1   111.0400475 552.288000
   7340   7337   7365     1   107.9700462 569.024000
   7343   7346   7347     1   112.3500484 533.878400
   7343   7346   7356     1   112.3500484 533.878400
   7346   7347   7350     1   111.0400475 552.288000
   7346   7356   7359     1   111.0400475 552.288000
   7347   7350   7353     1   111.0400475 529.694400
   7347   7346   7356     1   112.3500484 533.878400
   7350   7353   7354     1   123.2000528 564.003200
   7350   7353   7355     1   123.2000528 564.003200
   7354   7353   7355     1   130.2500561 651.867200
   7356   7359   7362     1   111.0400475 529.694400
   7359   7362   7363     1   123.2000528 564.003200
   7359   7362   7364     1   123.2000528 564.003200
   7363   7362   7364     1   130.2500561 651.867200
   7366   7369   7372     1   111.5100476 526.347200
   7369   7366   7394     1   107.9700462 569.024000
   7369   7372   7375     1   111.0400475 552.288000
   7372   7375   7376     1   112.3500484 533.878400
   7372   7375   7385     1   112.3500484 533.878400
   7375   7376   7379     1   111.0400475 552.288000
   7375   7385   7388     1   111.0400475 552.288000
   7376   7375   7385     1   112.3500484 533.878400
   7376   7379   7382     1   111.0400475 529.694400
   7379   7382   7383     1   123.2000528 564.003200
   7379   7382   7384     1   123.2000528 564.003200
   7383   7382   7384     1   130.2500561 651.867200
   7385   7388   7391     1   111.0400475 529.694400
   7388   7391   7392     1   123.2000528 564.003200
   7388   7391   7393     1   123.2000528 564.003200
   7392   7391   7393     1   130.2500561 651.867200
   7395   7398   7401     1   111.5100476 526.347200
   7398   7401   7404     1   111.0400475 552.288000
   7398   7395   7423     1   107.9700462 569.024000
   7401   7404   7405     1   112.3500484 533.878400
   7401   7404   7414     1   112.3500484 533.878400
   7404   7405   7408     1   111.0400475 552.288000
   7404   7414   7417     1   111.0400475 552.288000
   7405   7408   7411     1   111.0400475 529.694400
   7405   7404   7414     1   112.3500484 533.878400
   7408   7411   7412     1   123.2000528 564.003200
   7408   7411   7413     1   123.2000528 564.003200
   7412   7411   7413     1   130.2500561 651.867200
   7414   7417   7420     1   111.0400475 529.694400
   7417   7420   7421     1   123.2000528 564.003200
   7417   7420   7422     1   123.2000528 564.003200
   7421   7420   7422     1   130.2500561 651.867200
   7424   7427   7430     1   111.5100476 526.347200
   7427   7424   7452     1   107.9700462 569.024000
   7427   7430   7433     1   111.0400475 552.288000
   7430   7433   7434     1   112.3500484 533.878400
   7430   7433   7443     1   112.3500484 533.878400
   7433   7434   7437     1   111.0400475 552.288000
   7433   7443   7446     1   111.0400475 552.288000
   7434   7433   7443     1   112.3500484 533.878400
   7434   7437   7440     1   111.0400475 529.694400
   7437   7440   7441     1   123.2000528 564.003200
   7437   7440   7442     1   123.2000528 564.003200
   7441   7440   7442     1   130.2500561 651.867200
   7443   7446   7449     1   111.0400475 529.694400
   7446   7449   7450     1   123.2000528 564.003200
   7446   7449   7451     1   123.2000528 564.003200
   7450   7449   7451     1   130.2500561 651.867200
   7453   7456   7459     1   111.5100476 526.347200
   7456   7459   7462     1   111.0400475 552.288000
   7456   7453   7481     1   107.9700462 569.024000
   7459   7462   7463     1   112.3500484 533.878400
   7459   7462   7472     1   112.3500484 533.878400
   7462   7463   7466     1   111.0400475 552.288000
   7462   7472   7475     1   111.0400475 552.288000
   7463   7466   7469     1   111.0400475 529.694400
   7463   7462   7472     1   112.3500484 533.878400
   7466   7469   7470     1   123.2000528 564.003200
   7466   7469   7471     1   123.2000528 564.003200
   7470   7469   7471     1   130.2500561 651.867200
   7472   7475   7478     1   111.0400475 529.694400
   7475   7478   7479     1   123.2000528 564.003200
   7475   7478   7480     1   123.2000528 564.003200
   7479   7478   7480     1   130.2500561 651.867200
   7482   7485   7488     1   111.5100476 526.347200
   7485   7482   7510     1   107.9700462 569.024000
   7485   7488   7491     1   111.0400475 552.288000
   7488   7491   7492     1   112.3500484 533.878400
   7488   7491   7501     1   112.3500484 533.878400
   7491   7492   7495     1   111.0400475 552.288000
   7491   7501   7504     1   111.0400475 552.288000
   7492   7491   7501     1   112.3500484 533.878400
   7492   7495   7498     1   111.0400475 529.694400
   7495   7498   7499     1   123.2000528 564.003200
   7495   7498   7500     1   123.2000528 564.003200
   7499   7498   7500     1   130.2500561 651.867200
   7501   7504   7507     1   111.0400475 529.694400
   7504   7507   7508     1   123.2000528 564.003200
   7504   7507   7509     1   123.2000528 564.003200
   7508   7507   7509     1   130.2500561 651.867200
   7511   7514   7517     1   111.5100476 526.347200
   7514   7517   7520     1   111.0400475 552.288000
   7514   7511   7539     1   107.9700462 569.024000
   7517   7520   7521     1   112.3500484 533.878400
   7517   7520   7530     1   112.3500484 533.878400
   7520   7521   7524     1   111.0400475 552.288000
   7520   7530   7533     1   111.0400475 552.288000
   7521   7524   7527     1   111.0400475 529.694400
   7521   7520   7530     1   112.3500484 533.878400
   7524   7527   7528     1   123.2000528 564.003200
   7524   7527   7529     1   123.2000528 564.003200
   7528   7527   7529     1   130.2500561 651.867200
   7530   7533   7536     1   111.0400475 529.694400
   7533   7536   7537     1   123.2000528 564.003200
   7533   7536   7538     1   123.2000528 564.003200
   7537   7536   7538     1   130.2500561 651.867200
   7540   7543   7546     1   111.5100476 526.347200
   7543   7540   7568     1   107.9700462 569.024000
   7543   7546   7549     1   111.0400475 552.288000
   7546   7549   7550     1   112.3500484 533.878400
   7546   7549   7559     1   112.3500484 533.878400
   7549   7550   7553     1   111.0400475 552.288000
   7549   7559   7562     1   111.0400475 552.288000
   7550   7549   7559     1   112.3500484 533.878400
   7550   7553   7556     1   111.0400475 529.694400
   7553   7556   7557     1   123.2000528 564.003200
   7553   7556   7558     1   123.2000528 564.003200
   7557   7556   7558     1   130.2500561 651.867200
   7559   7562   7565     1   111.0400475 529.694400
   7562   7565   7566     1   123.2000528 564.003200
   7562   7565   7567     1   123.2000528 564.003200
   7566   7565   7567     1   130.2500561 651.867200
   7569   7572   7575     1   111.5100476 526.347200
   7572   7575   7578     1   111.0400475 552.288000
   7572   7569   7597     1   107.9700462 569.024000
   7575   7578   7579     1   112.3500484 533.878400
   7575   7578   7588     1   112.3500484 533.878400
   7578   7579   7582     1   111.0400475 552.288000
   7578   7588   7591     1   111.0400475 552.288000
   7579   7582   7585     1   111.0400475 529.694400
   7579   7578   7588     1   112.3500484 533.878400
   7582   7585   7586     1   123.2000528 564.003200
   7582   7585   7587     1   123.2000528 564.003200
   7586   7585   7587     1   130.2500561 651.867200
   7588   7591   7594     1   111.0400475 529.694400
   7591   7594   7595     1   123.2000528 564.003200
   7591   7594   7596     1   123.2000528 564.003200
   7595   7594   7596     1   130.2500561 651.867200
   7598   7601   7604     1   111.5100476 526.347200
   7601   7598   7626     1   107.9700462 569.024000
   7601   7604   7607     1   111.0400475 552.288000
   7604   7607   7608     1   112.3500484 533.878400
   7604   7607   7617     1   112.3500484 533.878400
   7607   7608   7611     1   111.0400475 552.288000
   7607   7617   7620     1   111.0400475 552.288000
   7608   7607   7617     1   112.3500484 533.878400
   7608   7611   7614     1   111.0400475 529.694400
   7611   7614   7615     1   123.2000528 564.003200
   7611   7614   7616     1   123.2000528 564.003200
   7615   7614   7616     1   130.2500561 651.867200
   7617   7620   7623     1   111.0400475 529.694400
   7620   7623   7624     1   123.2000528 564.003200
   7620   7623   7625     1   123.2000528 564.003200
   7624   7623   7625     1   130.2500561 651.867200
   7627   7630   7633     1   111.5100476 526.347200
   7630   7633   7636     1   111.0400475 552.288000
   7630   7627   7655     1   107.9700462 569.024000
   7633   7636   7637     1   112.3500484 533.878400
   7633   7636   7646     1   112.3500484 533.878400
   7636   7637   7640     1   111.0400475 552.288000
   7636   7646   7649     1   111.0400475 552.288000
   7637   7640   7643     1   111.0400475 529.694400
   7637   7636   7646     1   112.3500484 533.878400
   7640   7643   7644     1   123.2000528 564.003200
   7640   7643   7645     1   123.2000528 564.003200
   7644   7643   7645     1   130.2500561 651.867200
   7646   7649   7652     1   111.0400475 529.694400
   7649   7652   7653     1   123.2000528 564.003200
   7649   7652   7654     1   123.2000528 564.003200
   7653   7652   7654     1   130.2500561 651.867200
   7656   7659   7662     1   111.5100476 526.347200
   7659   7656   7684     1   107.9700462 569.024000
   7659   7662   7665     1   111.0400475 552.288000
   7662   7665   7666     1   112.3500484 533.878400
   7662   7665   7675     1   112.3500484 533.878400
   7665   7666   7669     1   111.0400475 552.288000
   7665   7675   7678     1   111.0400475 552.288000
   7666   7665   7675     1   112.3500484 533.878400
   7666   7669   7672     1   111.0400475 529.694400
   7669   7672   7673     1   123.2000528 564.003200
   7669   7672   7674     1   123.2000528 564.003200
   7673   7672   7674     1   130.2500561 651.867200
   7675   7678   7681     1   111.0400475 529.694400
   7678   7681   7682     1   123.2000528 564.003200
   7678   7681   7683     1   123.2000528 564.003200
   7682   7681   7683     1   130.2500561 651.867200
   7685   7688   7691     1   111.5100476 526.347200
   7688   7691   7694     1   111.0400475 552.288000
   7688   7685   7713     1   107.9700462 569.024000
   7691   7694   7695     1   112.3500484 533.878400
   7691   7694   7704     1   112.3500484 533.878400
   7694   7695   7698     1   111.0400475 552.288000
   7694   7704   7707     1   111.0400475 552.288000
   7695   7698   7701     1   111.0400475 529.694400
   7695   7694   7704     1   112.3500484 533.878400
   7698   7701   7702     1   123.2000528 564.003200
   7698   7701   7703     1   123.2000528 564.003200
   7702   7701   7703     1   130.2500561 651.867200
   7704   7707   7710     1   111.0400475 529.694400
   7707   7710   7711     1   123.2000528 564.003200
   7707   7710   7712     1   123.2000528 564.003200
   7711   7710   7712     1   130.2500561 651.867200
   7714   7717   7720     1   111.5100476 526.347200
   7717   7714   7742     1   107.9700462 569.024000
   7717   7720   7723     1   111.0400475 552.288000
   7720   7723   7724     1   112.3500484 533.878400
   7720   7723   7733     1   112.3500484 533.878400
   7723   7724   7727     1   111.0400475 552.288000
   7723   7733   7736     1   111.0400475 552.288000
   7724   7723   7733     1   112.3500484 533.878400
   7724   7727   7730     1   111.0400475 529.694400
   7727   7730   7731     1   123.2000528 564.003200
   7727   7730   7732     1   123.2000528 564.003200
   7731   7730   7732     1   130.2500561 651.867200
   7733   7736   7739     1   111.0400475 529.694400
   7736   7739   7740     1   123.2000528 564.003200
   7736   7739   7741     1   123.2000528 564.003200
   7740   7739   7741     1   130.2500561 651.867200
   7743   7746   7749     1   111.5100476 526.347200
   7746   7749   7752     1   111.0400475 552.288000
   7746   7743   7771     1   107.9700462 569.024000
   7749   7752   7753     1   112.3500484 533.878400
   7749   7752   7762     1   112.3500484 533.878400
   7752   7753   7756     1   111.0400475 552.288000
   7752   7762   7765     1   111.0400475 552.288000
   7753   7756   7759     1   111.0400475 529.694400
   7753   7752   7762     1   112.3500484 533.878400
   7756   7759   7760     1   123.2000528 564.003200
   7756   7759   7761     1   123.2000528 564.003200
   7760   7759   7761     1   130.2500561 651.867200
   7762   7765   7768     1   111.0400475 529.694400
   7765   7768   7769     1   123.2000528 564.003200
   7765   7768   7770     1   123.2000528 564.003200
   7769   7768   7770     1   130.2500561 651.867200
   7772   7775   7778     1   111.5100476 526.347200
   7775   7772   7800     1   107.9700462 569.024000
   7775   7778   7781     1   111.0400475 552.288000
   7778   7781   7782     1   112.3500484 533.878400
   7778   7781   7791     1   112.3500484 533.878400
   7781   7782   7785     1   111.0400475 552.288000
   7781   7791   7794     1   111.0400475 552.288000
   7782   7781   7791     1   112.3500484 533.878400
   7782   7785   7788     1   111.0400475 529.694400
   7785   7788   7789     1   123.2000528 564.003200
   7785   7788   7790     1   123.2000528 564.003200
   7789   7788   7790     1   130.2500561 651.867200
   7791   7794   7797     1   111.0400475 529.694400
   7794   7797   7798     1   123.2000528 564.003200
   7794   7797   7799     1   123.2000528 564.003200
   7798   7797   7799     1   130.2500561 651.867200
   7801   7804   7807     1   111.5100476 526.347200
   7804   7807   7810     1   111.0400475 552.288000
   7804   7801   7829     1   107.9700462 569.024000
   7807   7810   7811     1   112.3500484 533.878400
   7807   7810   7820     1   112.3500484 533.878400
   7810   7811   7814     1   111.0400475 552.288000
   7810   7820   7823     1   111.0400475 552.288000
   7811   7814   7817     1   111.0400475 529.694400
   7811   7810   7820     1   112.3500484 533.878400
   7814   7817   7818     1   123.2000528 564.003200
   7814   7817   7819     1   123.2000528 564.003200
   7818   7817   7819     1   130.2500561 651.867200
   7820   7823   7826     1   111.0400475 529.694400
   7823   7826   7827     1   123.2000528 564.003200
   7823   7826   7828     1   123.2000528 564.003200
   7827   7826   7828     1   130.2500561 651.867200
   7830   7833   7836     1   111.5100476 526.347200
   7833   7830   7858     1   107.9700462 569.024000
   7833   7836   7839     1   111.0400475 552.288000
   7836   7839   7840     1   112.3500484 533.878400
   7836   7839   7849     1   112.3500484 533.878400
   7839   7840   7843     1   111.0400475 552.288000
   7839   7849   7852     1   111.0400475 552.288000
   7840   7839   7849     1   112.3500484 533.878400
   7840   7843   7846     1   111.0400475 529.694400
   7843   7846   7847     1   123.2000528 564.003200
   7843   7846   7848     1   123.2000528 564.003200
   7847   7846   7848     1   130.2500561 651.867200
   7849   7852   7855     1   111.0400475 529.694400
   7852   7855   7856     1   123.2000528 564.003200
   7852   7855   7857     1   123.2000528 564.003200
   7856   7855   7857     1   130.2500561 651.867200
   7859   7862   7865     1   111.5100476 526.347200
   7862   7865   7868     1   111.0400475 552.288000
   7862   7859   7887     1   107.9700462 569.024000
   7865   7868   7869     1   112.3500484 533.878400
   7865   7868   7878     1   112.3500484 533.878400
   7868   7869   7872     1   111.0400475 552.288000
   7868   7878   7881     1   111.0400475 552.288000
   7869   7872   7875     1   111.0400475 529.694400
   7869   7868   7878     1   112.3500484 533.878400
   7872   7875   7876     1   123.2000528 564.003200
   7872   7875   7877     1   123.2000528 564.003200
   7876   7875   7877     1   130.2500561 651.867200
   7878   7881   7884     1   111.0400475 529.694400
   7881   7884   7885     1   123.2000528 564.003200
   7881   7884   7886     1   123.2000528 564.003200
   7885   7884   7886     1   130.2500561 651.867200
   7888   7891   7894     1   111.5100476 526.347200
   7891   7888   7916     1   107.9700462 569.024000
   7891   7894   7897     1   111.0400475 552.288000
   7894   7897   7898     1   112.3500484 533.878400
   7894   7897   7907     1   112.3500484 533.878400
   7897   7898   7901     1   111.0400475 552.288000
   7897   7907   7910     1   111.0400475 552.288000
   7898   7897   7907     1   112.3500484 533.878400
   7898   7901   7904     1   111.0400475 529.694400
   7901   7904   7905     1   123.2000528 564.003200
   7901   7904   7906     1   123.2000528 564.003200
   7905   7904   7906     1   130.2500561 651.867200
   7907   7910   7913     1   111.0400475 529.694400
   7910   7913   7914     1   123.2000528 564.003200
   7910   7913   7915     1   123.2000528 564.003200
   7914   7913   7915     1   130.2500561 651.867200
   7917   7920   7923     1   111.5100476 526.347200
   7920   7923   7926     1   111.0400475 552.288000
   7920   7917   7945     1   107.9700462 569.024000
   7923   7926   7927     1   112.3500484 533.878400
   7923   7926   7936     1   112.3500484 533.878400
   7926   7927   7930     1   111.0400475 552.288000
   7926   7936   7939     1   111.0400475 552.288000
   7927   7930   7933     1   111.0400475 529.694400
   7927   7926   7936     1   112.3500484 533.878400
   7930   7933   7934     1   123.2000528 564.003200
   7930   7933   7935     1   123.2000528 564.003200
   7934   7933   7935     1   130.2500561 651.867200
   7936   7939   7942     1   111.0400475 529.694400
   7939   7942   7943     1   123.2000528 564.003200
   7939   7942   7944     1   123.2000528 564.003200
   7943   7942   7944     1   130.2500561 651.867200
   7946   7949   7952     1   111.5100476 526.347200
   7949   7946   7974     1   107.9700462 569.024000
   7949   7952   7955     1   111.0400475 552.288000
   7952   7955   7956     1   112.3500484 533.878400
   7952   7955   7965     1   112.3500484 533.878400
   7955   7956   7959     1   111.0400475 552.288000
   7955   7965   7968     1   111.0400475 552.288000
   7956   7955   7965     1   112.3500484 533.878400
   7956   7959   7962     1   111.0400475 529.694400
   7959   7962   7963     1   123.2000528 564.003200
   7959   7962   7964     1   123.2000528 564.003200
   7963   7962   7964     1   130.2500561 651.867200
   7965   7968   7971     1   111.0400475 529.694400
   7968   7971   7972     1   123.2000528 564.003200
   7968   7971   7973     1   123.2000528 564.003200
   7972   7971   7973     1   130.2500561 651.867200
   7975   7978   7981     1   111.5100476 526.347200
   7978   7981   7984     1   111.0400475 552.288000
   7978   7975   8003     1   107.9700462 569.024000
   7981   7984   7985     1   112.3500484 533.878400
   7981   7984   7994     1   112.3500484 533.878400
   7984   7985   7988     1   111.0400475 552.288000
   7984   7994   7997     1   111.0400475 552.288000
   7985   7988   7991     1   111.0400475 529.694400
   7985   7984   7994     1   112.3500484 533.878400
   7988   7991   7992     1   123.2000528 564.003200
   7988   7991   7993     1   123.2000528 564.003200
   7992   7991   7993     1   130.2500561 651.867200
   7994   7997   8000     1   111.0400475 529.694400
   7997   8000   8001     1   123.2000528 564.003200
   7997   8000   8002     1   123.2000528 564.003200
   8001   8000   8002     1   130.2500561 651.867200
   8004   8007   8010     1   111.5100476 526.347200
   8007   8004   8032     1   107.9700462 569.024000
   8007   8010   8013     1   111.0400475 552.288000
   8010   8013   8014     1   112.3500484 533.878400
   8010   8013   8023     1   112.3500484 533.878400
   8013   8014   8017     1   111.0400475 552.288000
   8013   8023   8026     1   111.0400475 552.288000
   8014   8013   8023     1   112.3500484 533.878400
   8014   8017   8020     1   111.0400475 529.694400
   8017   8020   8021     1   123.2000528 564.003200
   8017   8020   8022     1   123.2000528 564.003200
   8021   8020   8022     1   130.2500561 651.867200
   8023   8026   8029     1   111.0400475 529.694400
   8026   8029   8030     1   123.2000528 564.003200
   8026   8029   8031     1   123.2000528 564.003200
   8030   8029   8031     1   130.2500561 651.867200
   8033   8036   8039     1   111.5100476 526.347200
   8036   8039   8042     1   111.0400475 552.288000
   8036   8033   8061     1   107.9700462 569.024000
   8039   8042   8043     1   112.3500484 533.878400
   8039   8042   8052     1   112.3500484 533.878400
   8042   8043   8046     1   111.0400475 552.288000
   8042   8052   8055     1   111.0400475 552.288000
   8043   8046   8049     1   111.0400475 529.694400
   8043   8042   8052     1   112.3500484 533.878400
   8046   8049   8050     1   123.2000528 564.003200
   8046   8049   8051     1   123.2000528 564.003200
   8050   8049   8051     1   130.2500561 651.867200
   8052   8055   8058     1   111.0400475 529.694400
   8055   8058   8059     1   123.2000528 564.003200
   8055   8058   8060     1   123.2000528 564.003200
   8059   8058   8060     1   130.2500561 651.867200
   8062   8065   8068     1   111.5100476 526.347200
   8065   8062   8090     1   107.9700462 569.024000
   8065   8068   8071     1   111.0400475 552.288000
   8068   8071   8072     1   112.3500484 533.878400
   8068   8071   8081     1   112.3500484 533.878400
   8071   8072   8075     1   111.0400475 552.288000
   8071   8081   8084     1   111.0400475 552.288000
   8072   8071   8081     1   112.3500484 533.878400
   8072   8075   8078     1   111.0400475 529.694400
   8075   8078   8079     1   123.2000528 564.003200
   8075   8078   8080     1   123.2000528 564.003200
   8079   8078   8080     1   130.2500561 651.867200
   8081   8084   8087     1   111.0400475 529.694400
   8084   8087   8088     1   123.2000528 564.003200
   8084   8087   8089     1   123.2000528 564.003200
   8088   8087   8089     1   130.2500561 651.867200
   8091   8094   8097     1   111.5100476 526.347200
   8094   8097   8100     1   111.0400475 552.288000
   8094   8091   8119     1   107.9700462 569.024000
   8097   8100   8101     1   112.3500484 533.878400
   8097   8100   8110     1   112.3500484 533.878400
   8100   8101   8104     1   111.0400475 552.288000
   8100   8110   8113     1   111.0400475 552.288000
   8101   8104   8107     1   111.0400475 529.694400
   8101   8100   8110     1   112.3500484 533.878400
   8104   8107   8108     1   123.2000528 564.003200
   8104   8107   8109     1   123.2000528 564.003200
   8108   8107   8109     1   130.2500561 651.867200
   8110   8113   8116     1   111.0400475 529.694400
   8113   8116   8117     1   123.2000528 564.003200
   8113   8116   8118     1   123.2000528 564.003200
   8117   8116   8118     1   130.2500561 651.867200
   8120   8123   8126     1   111.5100476 526.347200
   8123   8120   8148     1   107.9700462 569.024000
   8123   8126   8129     1   111.0400475 552.288000
   8126   8129   8130     1   112.3500484 533.878400
   8126   8129   8139     1   112.3500484 533.878400
   8129   8130   8133     1   111.0400475 552.288000
   8129   8139   8142     1   111.0400475 552.288000
   8130   8129   8139     1   112.3500484 533.878400
   8130   8133   8136     1   111.0400475 529.694400
   8133   8136   8137     1   123.2000528 564.003200
   8133   8136   8138     1   123.2000528 564.003200
   8137   8136   8138     1   130.2500561 651.867200
   8139   8142   8145     1   111.0400475 529.694400
   8142   8145   8146     1   123.2000528 564.003200
   8142   8145   8147     1   123.2000528 564.003200
   8146   8145   8147     1   130.2500561 651.867200
   8149   8152   8155     1   111.5100476 526.347200
   8152   8155   8158     1   111.0400475 552.288000
   8152   8149   8177     1   107.9700462 569.024000
   8155   8158   8159     1   112.3500484 533.878400
   8155   8158   8168     1   112.3500484 533.878400
   8158   8159   8162     1   111.0400475 552.288000
   8158   8168   8171     1   111.0400475 552.288000
   8159   8162   8165     1   111.0400475 529.694400
   8159   8158   8168     1   112.3500484 533.878400
   8162   8165   8166     1   123.2000528 564.003200
   8162   8165   8167     1   123.2000528 564.003200
   8166   8165   8167     1   130.2500561 651.867200
   8168   8171   8174     1   111.0400475 529.694400
   8171   8174   8175     1   123.2000528 564.003200
   8171   8174   8176     1   123.2000528 564.003200
   8175   8174   8176     1   130.2500561 651.867200
   8178   8181   8184     1   111.5100476 526.347200
   8181   8178   8206     1   107.9700462 569.024000
   8181   8184   8187     1   111.0400475 552.288000
   8184   8187   8188     1   112.3500484 533.878400
   8184   8187   8197     1   112.3500484 533.878400
   8187   8188   8191     1   111.0400475 552.288000
   8187   8197   8200     1   111.0400475 552.288000
   8188   8187   8197     1   112.3500484 533.878400
   8188   8191   8194     1   111.0400475 529.694400
   8191   8194   8195     1   123.2000528 564.003200
   8191   8194   8196     1   123.2000528 564.003200
   8195   8194   8196     1   130.2500561 651.867200
   8197   8200   8203     1   111.0400475 529.694400
   8200   8203   8204     1   123.2000528 564.003200
   8200   8203   8205     1   123.2000528 564.003200
   8204   8203   8205     1   130.2500561 651.867200
   8207   8210   8213     1   111.5100476 526.347200
   8210   8213   8216     1   111.0400475 552.288000
   8210   8207   8235     1   107.9700462 569.024000
   8213   8216   8217     1   112.3500484 533.878400
   8213   8216   8226     1   112.3500484 533.878400
   8216   8217   8220     1   111.0400475 552.288000
   8216   8226   8229     1   111.0400475 552.288000
   8217   8220   8223     1   111.0400475 529.694400
   8217   8216   8226     1   112.3500484 533.878400
   8220   8223   8224     1   123.2000528 564.003200
   8220   8223   8225     1   123.2000528 564.003200
   8224   8223   8225     1   130.2500561 651.867200
   8226   8229   8232     1   111.0400475 529.694400
   8229   8232   8233     1   123.2000528 564.003200
   8229   8232   8234     1   123.2000528 564.003200
   8233   8232   8234     1   130.2500561 651.867200
   8236   8239   8242     1   111.5100476 526.347200
   8239   8236   8264     1   107.9700462 569.024000
   8239   8242   8245     1   111.0400475 552.288000
   8242   8245   8246     1   112.3500484 533.878400
   8242   8245   8255     1   112.3500484 533.878400
   8245   8246   8249     1   111.0400475 552.288000
   8245   8255   8258     1   111.0400475 552.288000
   8246   8245   8255     1   112.3500484 533.878400
   8246   8249   8252     1   111.0400475 529.694400
   8249   8252   8253     1   123.2000528 564.003200
   8249   8252   8254     1   123.2000528 564.003200
   8253   8252   8254     1   130.2500561 651.867200
   8255   8258   8261     1   111.0400475 529.694400
   8258   8261   8262     1   123.2000528 564.003200
   8258   8261   8263     1   123.2000528 564.003200
   8262   8261   8263     1   130.2500561 651.867200
   8265   8268   8271     1   111.5100476 526.347200
   8268   8271   8274     1   111.0400475 552.288000
   8268   8265   8293     1   107.9700462 569.024000
   8271   8274   8275     1   112.3500484 533.878400
   8271   8274   8284     1   112.3500484 533.878400
   8274   8275   8278     1   111.0400475 552.288000
   8274   8284   8287     1   111.0400475 552.288000
   8275   8278   8281     1   111.0400475 529.694400
   8275   8274   8284     1   112.3500484 533.878400
   8278   8281   8282     1   123.2000528 564.003200
   8278   8281   8283     1   123.2000528 564.003200
   8282   8281   8283     1   130.2500561 651.867200
   8284   8287   8290     1   111.0400475 529.694400
   8287   8290   8291     1   123.2000528 564.003200
   8287   8290   8292     1   123.2000528 564.003200
   8291   8290   8292     1   130.2500561 651.867200
   8294   8297   8300     1   111.5100476 526.347200
   8297   8294   8322     1   107.9700462 569.024000
   8297   8300   8303     1   111.0400475 552.288000
   8300   8303   8304     1   112.3500484 533.878400
   8300   8303   8313     1   112.3500484 533.878400
   8303   8304   8307     1   111.0400475 552.288000
   8303   8313   8316     1   111.0400475 552.288000
   8304   8303   8313     1   112.3500484 533.878400
   8304   8307   8310     1   111.0400475 529.694400
   8307   8310   8311     1   123.2000528 564.003200
   8307   8310   8312     1   123.2000528 564.003200
   8311   8310   8312     1   130.2500561 651.867200
   8313   8316   8319     1   111.0400475 529.694400
   8316   8319   8320     1   123.2000528 564.003200
   8316   8319   8321     1   123.2000528 564.003200
   8320   8319   8321     1   130.2500561 651.867200
   8323   8326   8329     1   111.5100476 526.347200
   8326   8329   8332     1   111.0400475 552.288000
   8326   8323   8351     1   107.9700462 569.024000
   8329   8332   8333     1   112.3500484 533.878400
   8329   8332   8342     1   112.3500484 533.878400
   8332   8333   8336     1   111.0400475 552.288000
   8332   8342   8345     1   111.0400475 552.288000
   8333   8336   8339     1   111.0400475 529.694400
   8333   8332   8342     1   112.3500484 533.878400
   8336   8339   8340     1   123.2000528 564.003200
   8336   8339   8341     1   123.2000528 564.003200
   8340   8339   8341     1   130.2500561 651.867200
   8342   8345   8348     1   111.0400475 529.694400
   8345   8348   8349     1   123.2000528 564.003200
   8345   8348   8350     1   123.2000528 564.003200
   8349   8348   8350     1   130.2500561 651.867200
   8352   8355   8358     1   111.5100476 526.347200
   8355   8352   8380     1   107.9700462 569.024000
   8355   8358   8361     1   111.0400475 552.288000
   8358   8361   8362     1   112.3500484 533.878400
   8358   8361   8371     1   112.3500484 533.878400
   8361   8362   8365     1   111.0400475 552.288000
   8361   8371   8374     1   111.0400475 552.288000
   8362   8361   8371     1   112.3500484 533.878400
   8362   8365   8368     1   111.0400475 529.694400
   8365   8368   8369     1   123.2000528 564.003200
   8365   8368   8370     1   123.2000528 564.003200
   8369   8368   8370     1   130.2500561 651.867200
   8371   8374   8377     1   111.0400475 529.694400
   8374   8377   8378     1   123.2000528 564.003200
   8374   8377   8379     1   123.2000528 564.003200
   8378   8377   8379     1   130.2500561 651.867200
   8381   8384   8387     1   111.5100476 526.347200
   8384   8387   8390     1   111.0400475 552.288000
   8384   8381   8409     1   107.9700462 569.024000
   8387   8390   8391     1   112.3500484 533.878400
   8387   8390   8400     1   112.3500484 533.878400
   8390   8391   8394     1   111.0400475 552.288000
   8390   8400   8403     1   111.0400475 552.288000
   8391   8394   8397     1   111.0400475 529.694400
   8391   8390   8400     1   112.3500484 533.878400
   8394   8397   8398     1   123.2000528 564.003200
   8394   8397   8399     1   123.2000528 564.003200
   8398   8397   8399     1   130.2500561 651.867200
   8400   8403   8406     1   111.0400475 529.694400
   8403   8406   8407     1   123.2000528 564.003200
   8403   8406   8408     1   123.2000528 564.003200
   8407   8406   8408     1   130.2500561 651.867200
   8410   8413   8416     1   111.5100476 526.347200
   8413   8410   8438     1   107.9700462 569.024000
   8413   8416   8419     1   111.0400475 552.288000
   8416   8419   8420     1   112.3500484 533.878400
   8416   8419   8429     1   112.3500484 533.878400
   8419   8420   8423     1   111.0400475 552.288000
   8419   8429   8432     1   111.0400475 552.288000
   8420   8419   8429     1   112.3500484 533.878400
   8420   8423   8426     1   111.0400475 529.694400
   8423   8426   8427     1   123.2000528 564.003200
   8423   8426   8428     1   123.2000528 564.003200
   8427   8426   8428     1   130.2500561 651.867200
   8429   8432   8435     1   111.0400475 529.694400
   8432   8435   8436     1   123.2000528 564.003200
   8432   8435   8437     1   123.2000528 564.003200
   8436   8435   8437     1   130.2500561 651.867200
   8439   8442   8445     1   111.5100476 526.347200
   8442   8445   8448     1   111.0400475 552.288000
   8442   8439   8467     1   107.9700462 569.024000
   8445   8448   8449     1   112.3500484 533.878400
   8445   8448   8458     1   112.3500484 533.878400
   8448   8449   8452     1   111.0400475 552.288000
   8448   8458   8461     1   111.0400475 552.288000
   8449   8452   8455     1   111.0400475 529.694400
   8449   8448   8458     1   112.3500484 533.878400
   8452   8455   8456     1   123.2000528 564.003200
   8452   8455   8457     1   123.2000528 564.003200
   8456   8455   8457     1   130.2500561 651.867200
   8458   8461   8464     1   111.0400475 529.694400
   8461   8464   8465     1   123.2000528 564.003200
   8461   8464   8466     1   123.2000528 564.003200
   8465   8464   8466     1   130.2500561 651.867200
   8468   8471   8474     1   111.5100476 526.347200
   8471   8468   8496     1   107.9700462 569.024000
   8471   8474   8477     1   111.0400475 552.288000
   8474   8477   8478     1   112.3500484 533.878400
   8474   8477   8487     1   112.3500484 533.878400
   8477   8478   8481     1   111.0400475 552.288000
   8477   8487   8490     1   111.0400475 552.288000
   8478   8477   8487     1   112.3500484 533.878400
   8478   8481   8484     1   111.0400475 529.694400
   8481   8484   8485     1   123.2000528 564.003200
   8481   8484   8486     1   123.2000528 564.003200
   8485   8484   8486     1   130.2500561 651.867200
   8487   8490   8493     1   111.0400475 529.694400
   8490   8493   8494     1   123.2000528 564.003200
   8490   8493   8495     1   123.2000528 564.003200
   8494   8493   8495     1   130.2500561 651.867200
   8497   8500   8503     1   111.5100476 526.347200
   8500   8503   8506     1   111.0400475 552.288000
   8500   8497   8525     1   107.9700462 569.024000
   8503   8506   8507     1   112.3500484 533.878400
   8503   8506   8516     1   112.3500484 533.878400
   8506   8507   8510     1   111.0400475 552.288000
   8506   8516   8519     1   111.0400475 552.288000
   8507   8510   8513     1   111.0400475 529.694400
   8507   8506   8516     1   112.3500484 533.878400
   8510   8513   8514     1   123.2000528 564.003200
   8510   8513   8515     1   123.2000528 564.003200
   8514   8513   8515     1   130.2500561 651.867200
   8516   8519   8522     1   111.0400475 529.694400
   8519   8522   8523     1   123.2000528 564.003200
   8519   8522   8524     1   123.2000528 564.003200
   8523   8522   8524     1   130.2500561 651.867200
   8526   8529   8532     1   111.5100476 526.347200
   8529   8526   8554     1   107.9700462 569.024000
   8529   8532   8535     1   111.0400475 552.288000
   8532   8535   8536     1   112.3500484 533.878400
   8532   8535   8545     1   112.3500484 533.878400
   8535   8536   8539     1   111.0400475 552.288000
   8535   8545   8548     1   111.0400475 552.288000
   8536   8535   8545     1   112.3500484 533.878400
   8536   8539   8542     1   111.0400475 529.694400
   8539   8542   8543     1   123.2000528 564.003200
   8539   8542   8544     1   123.2000528 564.003200
   8543   8542   8544     1   130.2500561 651.867200
   8545   8548   8551     1   111.0400475 529.694400
   8548   8551   8552     1   123.2000528 564.003200
   8548   8551   8553     1   123.2000528 564.003200
   8552   8551   8553     1   130.2500561 651.867200
   8555   8558   8561     1   111.5100476 526.347200
   8558   8561   8564     1   111.0400475 552.288000
   8558   8555   8583     1   107.9700462 569.024000
   8561   8564   8565     1   112.3500484 533.878400
   8561   8564   8574     1   112.3500484 533.878400
   8564   8565   8568     1   111.0400475 552.288000
   8564   8574   8577     1   111.0400475 552.288000
   8565   8568   8571     1   111.0400475 529.694400
   8565   8564   8574     1   112.3500484 533.878400
   8568   8571   8572     1   123.2000528 564.003200
   8568   8571   8573     1   123.2000528 564.003200
   8572   8571   8573     1   130.2500561 651.867200
   8574   8577   8580     1   111.0400475 529.694400
   8577   8580   8581     1   123.2000528 564.003200
   8577   8580   8582     1   123.2000528 564.003200
   8581   8580   8582     1   130.2500561 651.867200
   8584   8587   8590     1   111.5100476 526.347200
   8587   8584   8612     1   107.9700462 569.024000
   8587   8590   8593     1   111.0400475 552.288000
   8590   8593   8594     1   112.3500484 533.878400
   8590   8593   8603     1   112.3500484 533.878400
   8593   8594   8597     1   111.0400475 552.288000
   8593   8603   8606     1   111.0400475 552.288000
   8594   8593   8603     1   112.3500484 533.878400
   8594   8597   8600     1   111.0400475 529.694400
   8597   8600   8601     1   123.2000528 564.003200
   8597   8600   8602     1   123.2000528 564.003200
   8601   8600   8602     1   130.2500561 651.867200
   8603   8606   8609     1   111.0400475 529.694400
   8606   8609   8610     1   123.2000528 564.003200
   8606   8609   8611     1   123.2000528 564.003200
   8610   8609   8611     1   130.2500561 651.867200
   8613   8616   8619     1   111.5100476 526.347200
   8616   8619   8622     1   111.0400475 552.288000
   8616   8613   8641     1   107.9700462 569.024000
   8619   8622   8623     1   112.3500484 533.878400
   8619   8622   8632     1   112.3500484 533.878400
   8622   8623   8626     1   111.0400475 552.288000
   8622   8632   8635     1   111.0400475 552.288000
   8623   8626   8629     1   111.0400475 529.694400
   8623   8622   8632     1   112.3500484 533.878400
   8626   8629   8630     1   123.2000528 564.003200
   8626   8629   8631     1   123.2000528 564.003200
   8630   8629   8631     1   130.2500561 651.867200
   8632   8635   8638     1   111.0400475 529.694400
   8635   8638   8639     1   123.2000528 564.003200
   8635   8638   8640     1   123.2000528 564.003200
   8639   8638   8640     1   130.2500561 651.867200
   8642   8645   8648     1   111.5100476 526.347200
   8645   8642   8670     1   107.9700462 569.024000
   8645   8648   8651     1   111.0400475 552.288000
   8648   8651   8652     1   112.3500484 533.878400
   8648   8651   8661     1   112.3500484 533.878400
   8651   8652   8655     1   111.0400475 552.288000
   8651   8661   8664     1   111.0400475 552.288000
   8652   8651   8661     1   112.3500484 533.878400
   8652   8655   8658     1   111.0400475 529.694400
   8655   8658   8659     1   123.2000528 564.003200
   8655   8658   8660     1   123.2000528 564.003200
   8659   8658   8660     1   130.2500561 651.867200
   8661   8664   8667     1   111.0400475 529.694400
   8664   8667   8668     1   123.2000528 564.003200
   8664   8667   8669     1   123.2000528 564.003200
   8668   8667   8669     1   130.2500561 651.867200
   8671   8674   8677     1   111.5100476 526.347200
   8674   8677   8680     1   111.0400475 552.288000
   8674   8671   8699     1   107.9700462 569.024000
   8677   8680   8681     1   112.3500484 533.878400
   8677   8680   8690     1   112.3500484 533.878400
   8680   8681   8684     1   111.0400475 552.288000
   8680   8690   8693     1   111.0400475 552.288000
   8681   8684   8687     1   111.0400475 529.694400
   8681   8680   8690     1   112.3500484 533.878400
   8684   8687   8688     1   123.2000528 564.003200
   8684   8687   8689     1   123.2000528 564.003200
   8688   8687   8689     1   130.2500561 651.867200
   8690   8693   8696     1   111.0400475 529.694400
   8693   8696   8697     1   123.2000528 564.003200
   8693   8696   8698     1   123.2000528 564.003200
   8697   8696   8698     1   130.2500561 651.867200
   8700   8703   8706     1   111.5100476 526.347200
   8703   8700   8728     1   107.9700462 569.024000
   8703   8706   8709     1   111.0400475 552.288000
   8706   8709   8710     1   112.3500484 533.878400
   8706   8709   8719     1   112.3500484 533.878400
   8709   8710   8713     1   111.0400475 552.288000
   8709   8719   8722     1   111.0400475 552.288000
   8710   8709   8719     1   112.3500484 533.878400
   8710   8713   8716     1   111.0400475 529.694400
   8713   8716   8717     1   123.2000528 564.003200
   8713   8716   8718     1   123.2000528 564.003200
   8717   8716   8718     1   130.2500561 651.867200
   8719   8722   8725     1   111.0400475 529.694400
   8722   8725   8726     1   123.2000528 564.003200
   8722   8725   8727     1   123.2000528 564.003200
   8726   8725   8727     1   130.2500561 651.867200
   8729   8732   8735     1   111.5100476 526.347200
   8732   8735   8738     1   111.0400475 552.288000
   8732   8729   8757     1   107.9700462 569.024000
   8735   8738   8739     1   112.3500484 533.878400
   8735   8738   8748     1   112.3500484 533.878400
   8738   8739   8742     1   111.0400475 552.288000
   8738   8748   8751     1   111.0400475 552.288000
   8739   8742   8745     1   111.0400475 529.694400
   8739   8738   8748     1   112.3500484 533.878400
   8742   8745   8746     1   123.2000528 564.003200
   8742   8745   8747     1   123.2000528 564.003200
   8746   8745   8747     1   130.2500561 651.867200
   8748   8751   8754     1   111.0400475 529.694400
   8751   8754   8755     1   123.2000528 564.003200
   8751   8754   8756     1   123.2000528 564.003200
   8755   8754   8756     1   130.2500561 651.867200
   8758   8761   8764     1   111.5100476 526.347200
   8761   8758   8786     1   107.9700462 569.024000
   8761   8764   8767     1   111.0400475 552.288000
   8764   8767   8768     1   112.3500484 533.878400
   8764   8767   8777     1   112.3500484 533.878400
   8767   8768   8771     1   111.0400475 552.288000
   8767   8777   8780     1   111.0400475 552.288000
   8768   8767   8777     1   112.3500484 533.878400
   8768   8771   8774     1   111.0400475 529.694400
   8771   8774   8775     1   123.2000528 564.003200
   8771   8774   8776     1   123.2000528 564.003200
   8775   8774   8776     1   130.2500561 651.867200
   8777   8780   8783     1   111.0400475 529.694400
   8780   8783   8784     1   123.2000528 564.003200
   8780   8783   8785     1   123.2000528 564.003200
   8784   8783   8785     1   130.2500561 651.867200
   8787   8790   8793     1   111.5100476 526.347200
   8790   8793   8796     1   111.0400475 552.288000
   8790   8787   8815     1   107.9700462 569.024000
   8793   8796   8797     1   112.3500484 533.878400
   8793   8796   8806     1   112.3500484 533.878400
   8796   8797   8800     1   111.0400475 552.288000
   8796   8806   8809     1   111.0400475 552.288000
   8797   8800   8803     1   111.0400475 529.694400
   8797   8796   8806     1   112.3500484 533.878400
   8800   8803   8804     1   123.2000528 564.003200
   8800   8803   8805     1   123.2000528 564.003200
   8804   8803   8805     1   130.2500561 651.867200
   8806   8809   8812     1   111.0400475 529.694400
   8809   8812   8813     1   123.2000528 564.003200
   8809   8812   8814     1   123.2000528 564.003200
   8813   8812   8814     1   130.2500561 651.867200
   8816   8819   8822     1   111.5100476 526.347200
   8819   8816   8844     1   107.9700462 569.024000
   8819   8822   8825     1   111.0400475 552.288000
   8822   8825   8826     1   112.3500484 533.878400
   8822   8825   8835     1   112.3500484 533.878400
   8825   8826   8829     1   111.0400475 552.288000
   8825   8835   8838     1   111.0400475 552.288000
   8826   8825   8835     1   112.3500484 533.878400
   8826   8829   8832     1   111.0400475 529.694400
   8829   8832   8833     1   123.2000528 564.003200
   8829   8832   8834     1   123.2000528 564.003200
   8833   8832   8834     1   130.2500561 651.867200
   8835   8838   8841     1   111.0400475 529.694400
   8838   8841   8842     1   123.2000528 564.003200
   8838   8841   8843     1   123.2000528 564.003200
   8842   8841   8843     1   130.2500561 651.867200
   8845   8848   8851     1   111.5100476 526.347200
   8848   8851   8854     1   111.0400475 552.288000
   8848   8845   8873     1   107.9700462 569.024000
   8851   8854   8855     1   112.3500484 533.878400
   8851   8854   8864     1   112.3500484 533.878400
   8854   8855   8858     1   111.0400475 552.288000
   8854   8864   8867     1   111.0400475 552.288000
   8855   8858   8861     1   111.0400475 529.694400
   8855   8854   8864     1   112.3500484 533.878400
   8858   8861   8862     1   123.2000528 564.003200
   8858   8861   8863     1   123.2000528 564.003200
   8862   8861   8863     1   130.2500561 651.867200
   8864   8867   8870     1   111.0400475 529.694400
   8867   8870   8871     1   123.2000528 564.003200
   8867   8870   8872     1   123.2000528 564.003200
   8871   8870   8872     1   130.2500561 651.867200
   8874   8877   8880     1   111.5100476 526.347200
   8877   8874   8902     1   107.9700462 569.024000
   8877   8880   8883     1   111.0400475 552.288000
   8880   8883   8884     1   112.3500484 533.878400
   8880   8883   8893     1   112.3500484 533.878400
   8883   8884   8887     1   111.0400475 552.288000
   8883   8893   8896     1   111.0400475 552.288000
   8884   8883   8893     1   112.3500484 533.878400
   8884   8887   8890     1   111.0400475 529.694400
   8887   8890   8891     1   123.2000528 564.003200
   8887   8890   8892     1   123.2000528 564.003200
   8891   8890   8892     1   130.2500561 651.867200
   8893   8896   8899     1   111.0400475 529.694400
   8896   8899   8900     1   123.2000528 564.003200
   8896   8899   8901     1   123.2000528 564.003200
   8900   8899   8901     1   130.2500561 651.867200
   8903   8906   8909     1   111.5100476 526.347200
   8906   8909   8912     1   111.0400475 552.288000
   8906   8903   8931     1   107.9700462 569.024000
   8909   8912   8913     1   112.3500484 533.878400
   8909   8912   8922     1   112.3500484 533.878400
   8912   8913   8916     1   111.0400475 552.288000
   8912   8922   8925     1   111.0400475 552.288000
   8913   8916   8919     1   111.0400475 529.694400
   8913   8912   8922     1   112.3500484 533.878400
   8916   8919   8920     1   123.2000528 564.003200
   8916   8919   8921     1   123.2000528 564.003200
   8920   8919   8921     1   130.2500561 651.867200
   8922   8925   8928     1   111.0400475 529.694400
   8925   8928   8929     1   123.2000528 564.003200
   8925   8928   8930     1   123.2000528 564.003200
   8929   8928   8930     1   130.2500561 651.867200
   8932   8935   8938     1   111.5100476 526.347200
   8935   8932   8960     1   107.9700462 569.024000
   8935   8938   8941     1   111.0400475 552.288000
   8938   8941   8942     1   112.3500484 533.878400
   8938   8941   8951     1   112.3500484 533.878400
   8941   8942   8945     1   111.0400475 552.288000
   8941   8951   8954     1   111.0400475 552.288000
   8942   8941   8951     1   112.3500484 533.878400
   8942   8945   8948     1   111.0400475 529.694400
   8945   8948   8949     1   123.2000528 564.003200
   8945   8948   8950     1   123.2000528 564.003200
   8949   8948   8950     1   130.2500561 651.867200
   8951   8954   8957     1   111.0400475 529.694400
   8954   8957   8958     1   123.2000528 564.003200
   8954   8957   8959     1   123.2000528 564.003200
   8958   8957   8959     1   130.2500561 651.867200
   8961   8964   8967     1   111.5100476 526.347200
   8964   8967   8970     1   111.0400475 552.288000
   8964   8961   8989     1   107.9700462 569.024000
   8967   8970   8971     1   112.3500484 533.878400
   8967   8970   8980     1   112.3500484 533.878400
   8970   8971   8974     1   111.0400475 552.288000
   8970   8980   8983     1   111.0400475 552.288000
   8971   8974   8977     1   111.0400475 529.694400
   8971   8970   8980     1   112.3500484 533.878400
   8974   8977   8978     1   123.2000528 564.003200
   8974   8977   8979     1   123.2000528 564.003200
   8978   8977   8979     1   130.2500561 651.867200
   8980   8983   8986     1   111.0400475 529.694400
   8983   8986   8987     1   123.2000528 564.003200
   8983   8986   8988     1   123.2000528 564.003200
   8987   8986   8988     1   130.2500561 651.867200
   8990   8993   8996     1   111.5100476 526.347200
   8993   8990   9018     1   107.9700462 569.024000
   8993   8996   8999     1   111.0400475 552.288000
   8996   8999   9000     1   112.3500484 533.878400
   8996   8999   9009     1   112.3500484 533.878400
   8999   9000   9003     1   111.0400475 552.288000
   8999   9009   9012     1   111.0400475 552.288000
   9000   8999   9009     1   112.3500484 533.878400
   9000   9003   9006     1   111.0400475 529.694400
   9003   9006   9007     1   123.2000528 564.003200
   9003   9006   9008     1   123.2000528 564.003200
   9007   9006   9008     1   130.2500561 651.867200
   9009   9012   9015     1   111.0400475 529.694400
   9012   9015   9016     1   123.2000528 564.003200
   9012   9015   9017     1   123.2000528 564.003200
   9016   9015   9017     1   130.2500561 651.867200
   9019   9022   9025     1   111.5100476 526.347200
   9022   9025   9028     1   111.0400475 552.288000
   9022   9019   9047     1   107.9700462 569.024000
   9025   9028   9029     1   112.3500484 533.878400
   9025   9028   9038     1   112.3500484 533.878400
   9028   9029   9032     1   111.0400475 552.288000
   9028   9038   9041     1   111.0400475 552.288000
   9029   9032   9035     1   111.0400475 529.694400
   9029   9028   9038     1   112.3500484 533.878400
   9032   9035   9036     1   123.2000528 564.003200
   9032   9035   9037     1   123.2000528 564.003200
   9036   9035   9037     1   130.2500561 651.867200
   9038   9041   9044     1   111.0400475 529.694400
   9041   9044   9045     1   123.2000528 564.003200
   9041   9044   9046     1   123.2000528 564.003200
   9045   9044   9046     1   130.2500561 651.867200
   9048   9051   9054     1   111.5100476 526.347200
   9051   9048   9076     1   107.9700462 569.024000
   9051   9054   9057     1   111.0400475 552.288000
   9054   9057   9058     1   112.3500484 533.878400
   9054   9057   9067     1   112.3500484 533.878400
   9057   9058   9061     1   111.0400475 552.288000
   9057   9067   9070     1   111.0400475 552.288000
   9058   9057   9067     1   112.3500484 533.878400
   9058   9061   9064     1   111.0400475 529.694400
   9061   9064   9065     1   123.2000528 564.003200
   9061   9064   9066     1   123.2000528 564.003200
   9065   9064   9066     1   130.2500561 651.867200
   9067   9070   9073     1   111.0400475 529.694400
   9070   9073   9074     1   123.2000528 564.003200
   9070   9073   9075     1   123.2000528 564.003200
   9074   9073   9075     1   130.2500561 651.867200
   9077   9080   9083     1   111.5100476 526.347200
   9080   9083   9086     1   111.0400475 552.288000
   9080   9077   9105     1   107.9700462 569.024000
   9083   9086   9087     1   112.3500484 533.878400
   9083   9086   9096     1   112.3500484 533.878400
   9086   9087   9090     1   111.0400475 552.288000
   9086   9096   9099     1   111.0400475 552.288000
   9087   9090   9093     1   111.0400475 529.694400
   9087   9086   9096     1   112.3500484 533.878400
   9090   9093   9094     1   123.2000528 564.003200
   9090   9093   9095     1   123.2000528 564.003200
   9094   9093   9095     1   130.2500561 651.867200
   9096   9099   9102     1   111.0400475 529.694400
   9099   9102   9103     1   123.2000528 564.003200
   9099   9102   9104     1   123.2000528 564.003200
   9103   9102   9104     1   130.2500561 651.867200
   9106   9109   9112     1   111.5100476 526.347200
   9109   9106   9134     1   107.9700462 569.024000
   9109   9112   9115     1   111.0400475 552.288000
   9112   9115   9116     1   112.3500484 533.878400
   9112   9115   9125     1   112.3500484 533.878400
   9115   9116   9119     1   111.0400475 552.288000
   9115   9125   9128     1   111.0400475 552.288000
   9116   9115   9125     1   112.3500484 533.878400
   9116   9119   9122     1   111.0400475 529.694400
   9119   9122   9123     1   123.2000528 564.003200
   9119   9122   9124     1   123.2000528 564.003200
   9123   9122   9124     1   130.2500561 651.867200
   9125   9128   9131     1   111.0400475 529.694400
   9128   9131   9132     1   123.2000528 564.003200
   9128   9131   9133     1   123.2000528 564.003200
   9132   9131   9133     1   130.2500561 651.867200
   9135   9138   9141     1   111.5100476 526.347200
   9138   9141   9144     1   111.0400475 552.288000
   9138   9135   9163     1   107.9700462 569.024000
   9141   9144   9145     1   112.3500484 533.878400
   9141   9144   9154     1   112.3500484 533.878400
   9144   9145   9148     1   111.0400475 552.288000
   9144   9154   9157     1   111.0400475 552.288000
   9145   9148   9151     1   111.0400475 529.694400
   9145   9144   9154     1   112.3500484 533.878400
   9148   9151   9152     1   123.2000528 564.003200
   9148   9151   9153     1   123.2000528 564.003200
   9152   9151   9153     1   130.2500561 651.867200
   9154   9157   9160     1   111.0400475 529.694400
   9157   9160   9161     1   123.2000528 564.003200
   9157   9160   9162     1   123.2000528 564.003200
   9161   9160   9162     1   130.2500561 651.867200
   9164   9167   9170     1   111.5100476 526.347200
   9167   9164   9192     1   107.9700462 569.024000
   9167   9170   9173     1   111.0400475 552.288000
   9170   9173   9174     1   112.3500484 533.878400
   9170   9173   9183     1   112.3500484 533.878400
   9173   9174   9177     1   111.0400475 552.288000
   9173   9183   9186     1   111.0400475 552.288000
   9174   9173   9183     1   112.3500484 533.878400
   9174   9177   9180     1   111.0400475 529.694400
   9177   9180   9181     1   123.2000528 564.003200
   9177   9180   9182     1   123.2000528 564.003200
   9181   9180   9182     1   130.2500561 651.867200
   9183   9186   9189     1   111.0400475 529.694400
   9186   9189   9190     1   123.2000528 564.003200
   9186   9189   9191     1   123.2000528 564.003200
   9190   9189   9191     1   130.2500561 651.867200
   9193   9196   9199     1   111.5100476 526.347200
   9196   9199   9202     1   111.0400475 552.288000
   9196   9193   9221     1   107.9700462 569.024000
   9199   9202   9203     1   112.3500484 533.878400
   9199   9202   9212     1   112.3500484 533.878400
   9202   9203   9206     1   111.0400475 552.288000
   9202   9212   9215     1   111.0400475 552.288000
   9203   9206   9209     1   111.0400475 529.694400
   9203   9202   9212     1   112.3500484 533.878400
   9206   9209   9210     1   123.2000528 564.003200
   9206   9209   9211     1   123.2000528 564.003200
   9210   9209   9211     1   130.2500561 651.867200
   9212   9215   9218     1   111.0400475 529.694400
   9215   9218   9219     1   123.2000528 564.003200
   9215   9218   9220     1   123.2000528 564.003200
   9219   9218   9220     1   130.2500561 651.867200
   9222   9225   9228     1   111.5100476 526.347200
   9225   9222   9250     1   107.9700462 569.024000
   9225   9228   9231     1   111.0400475 552.288000
   9228   9231   9232     1   112.3500484 533.878400
   9228   9231   9241     1   112.3500484 533.878400
   9231   9232   9235     1   111.0400475 552.288000
   9231   9241   9244     1   111.0400475 552.288000
   9232   9231   9241     1   112.3500484 533.878400
   9232   9235   9238     1   111.0400475 529.694400
   9235   9238   9239     1   123.2000528 564.003200
   9235   9238   9240     1   123.2000528 564.003200
   9239   9238   9240     1   130.2500561 651.867200
   9241   9244   9247     1   111.0400475 529.694400
   9244   9247   9248     1   123.2000528 564.003200
   9244   9247   9249     1   123.2000528 564.003200
   9248   9247   9249     1   130.2500561 651.867200
   9251   9254   9257     1   111.5100476 526.347200
   9254   9257   9260     1   111.0400475 552.288000
   9254   9251   9279     1   107.9700462 569.024000
   9257   9260   9261     1   112.3500484 533.878400
   9257   9260   9270     1   112.3500484 533.878400
   9260   9261   9264     1   111.0400475 552.288000
   9260   9270   9273     1   111.0400475 552.288000
   9261   9264   9267     1   111.0400475 529.694400
   9261   9260   9270     1   112.3500484 533.878400
   9264   9267   9268     1   123.2000528 564.003200
   9264   9267   9269     1   123.2000528 564.003200
   9268   9267   9269     1   130.2500561 651.867200
   9270   9273   9276     1   111.0400475 529.694400
   9273   9276   9277     1   123.2000528 564.003200
   9273   9276   9278     1   123.2000528 564.003200
   9277   9276   9278     1   130.2500561 651.867200
   9280   9283   9286     1   111.5100476 526.347200
   9283   9280   9308     1   107.9700462 569.024000
   9283   9286   9289     1   111.0400475 552.288000
   9286   9289   9290     1   112.3500484 533.878400
   9286   9289   9299     1   112.3500484 533.878400
   9289   9290   9293     1   111.0400475 552.288000
   9289   9299   9302     1   111.0400475 552.288000
   9290   9289   9299     1   112.3500484 533.878400
   9290   9293   9296     1   111.0400475 529.694400
   9293   9296   9297     1   123.2000528 564.003200
   9293   9296   9298     1   123.2000528 564.003200
   9297   9296   9298     1   130.2500561 651.867200
   9299   9302   9305     1   111.0400475 529.694400
   9302   9305   9306     1   123.2000528 564.003200
   9302   9305   9307     1   123.2000528 564.003200
   9306   9305   9307     1   130.2500561 651.867200
   9309   9312   9315     1   111.5100476 526.347200
   9312   9315   9318     1   111.0400475 552.288000
   9312   9309   9337     1   107.9700462 569.024000
   9315   9318   9319     1   112.3500484 533.878400
   9315   9318   9328     1   112.3500484 533.878400
   9318   9319   9322     1   111.0400475 552.288000
   9318   9328   9331     1   111.0400475 552.288000
   9319   9322   9325     1   111.0400475 529.694400
   9319   9318   9328     1   112.3500484 533.878400
   9322   9325   9326     1   123.2000528 564.003200
   9322   9325   9327     1   123.2000528 564.003200
   9326   9325   9327     1   130.2500561 651.867200
   9328   9331   9334     1   111.0400475 529.694400
   9331   9334   9335     1   123.2000528 564.003200
   9331   9334   9336     1   123.2000528 564.003200
   9335   9334   9336     1   130.2500561 651.867200
   9338   9341   9344     1   111.5100476 526.347200
   9341   9338   9366     1   107.9700462 569.024000
   9341   9344   9347     1   111.0400475 552.288000
   9344   9347   9348     1   112.3500484 533.878400
   9344   9347   9357     1   112.3500484 533.878400
   9347   9348   9351     1   111.0400475 552.288000
   9347   9357   9360     1   111.0400475 552.288000
   9348   9347   9357     1   112.3500484 533.878400
   9348   9351   9354     1   111.0400475 529.694400
   9351   9354   9355     1   123.2000528 564.003200
   9351   9354   9356     1   123.2000528 564.003200
   9355   9354   9356     1   130.2500561 651.867200
   9357   9360   9363     1   111.0400475 529.694400
   9360   9363   9364     1   123.2000528 564.003200
   9360   9363   9365     1   123.2000528 564.003200
   9364   9363   9365     1   130.2500561 651.867200
   9367   9370   9373     1   111.5100476 526.347200
   9370   9373   9376     1   111.0400475 552.288000
   9370   9367   9395     1   107.9700462 569.024000
   9373   9376   9377     1   112.3500484 533.878400
   9373   9376   9386     1   112.3500484 533.878400
   9376   9377   9380     1   111.0400475 552.288000
   9376   9386   9389     1   111.0400475 552.288000
   9377   9380   9383     1   111.0400475 529.694400
   9377   9376   9386     1   112.3500484 533.878400
   9380   9383   9384     1   123.2000528 564.003200
   9380   9383   9385     1   123.2000528 564.003200
   9384   9383   9385     1   130.2500561 651.867200
   9386   9389   9392     1   111.0400475 529.694400
   9389   9392   9393     1   123.2000528 564.003200
   9389   9392   9394     1   123.2000528 564.003200
   9393   9392   9394     1   130.2500561 651.867200
   9396   9399   9402     1   111.5100476 526.347200
   9399   9396   9424     1   107.9700462 569.024000
   9399   9402   9405     1   111.0400475 552.288000
   9402   9405   9406     1   112.3500484 533.878400
   9402   9405   9415     1   112.3500484 533.878400
   9405   9406   9409     1   111.0400475 552.288000
   9405   9415   9418     1   111.0400475 552.288000
   9406   9405   9415     1   112.3500484 533.878400
   9406   9409   9412     1   111.0400475 529.694400
   9409   9412   9413     1   123.2000528 564.003200
   9409   9412   9414     1   123.2000528 564.003200
   9413   9412   9414     1   130.2500561 651.867200
   9415   9418   9421     1   111.0400475 529.694400
   9418   9421   9422     1   123.2000528 564.003200
   9418   9421   9423     1   123.2000528 564.003200
   9422   9421   9423     1   130.2500561 651.867200
   9425   9428   9431     1   111.5100476 526.347200
   9428   9431   9434     1   111.0400475 552.288000
   9428   9425   9453     1   107.9700462 569.024000
   9431   9434   9435     1   112.3500484 533.878400
   9431   9434   9444     1   112.3500484 533.878400
   9434   9435   9438     1   111.0400475 552.288000
   9434   9444   9447     1   111.0400475 552.288000
   9435   9438   9441     1   111.0400475 529.694400
   9435   9434   9444     1   112.3500484 533.878400
   9438   9441   9442     1   123.2000528 564.003200
   9438   9441   9443     1   123.2000528 564.003200
   9442   9441   9443     1   130.2500561 651.867200
   9444   9447   9450     1   111.0400475 529.694400
   9447   9450   9451     1   123.2000528 564.003200
   9447   9450   9452     1   123.2000528 564.003200
   9451   9450   9452     1   130.2500561 651.867200
   9454   9457   9460     1   111.5100476 526.347200
   9457   9454   9482     1   107.9700462 569.024000
   9457   9460   9463     1   111.0400475 552.288000
   9460   9463   9464     1   112.3500484 533.878400
   9460   9463   9473     1   112.3500484 533.878400
   9463   9464   9467     1   111.0400475 552.288000
   9463   9473   9476     1   111.0400475 552.288000
   9464   9463   9473     1   112.3500484 533.878400
   9464   9467   9470     1   111.0400475 529.694400
   9467   9470   9471     1   123.2000528 564.003200
   9467   9470   9472     1   123.2000528 564.003200
   9471   9470   9472     1   130.2500561 651.867200
   9473   9476   9479     1   111.0400475 529.694400
   9476   9479   9480     1   123.2000528 564.003200
   9476   9479   9481     1   123.2000528 564.003200
   9480   9479   9481     1   130.2500561 651.867200
   9483   9486   9489     1   111.5100476 526.347200
   9486   9489   9492     1   111.0400475 552.288000
   9486   9483   9511     1   107.9700462 569.024000
   9489   9492   9493     1   112.3500484 533.878400
   9489   9492   9502     1   112.3500484 533.878400
   9492   9493   9496     1   111.0400475 552.288000
   9492   9502   9505     1   111.0400475 552.288000
   9493   9496   9499     1   111.0400475 529.694400
   9493   9492   9502     1   112.3500484 533.878400
   9496   9499   9500     1   123.2000528 564.003200
   9496   9499   9501     1   123.2000528 564.003200
   9500   9499   9501     1   130.2500561 651.867200
   9502   9505   9508     1   111.0400475 529.694400
   9505   9508   9509     1   123.2000528 564.003200
   9505   9508   9510     1   123.2000528 564.003200
   9509   9508   9510     1   130.2500561 651.867200
   9512   9515   9518     1   111.5100476 526.347200
   9515   9512   9540     1   107.9700462 569.024000
   9515   9518   9521     1   111.0400475 552.288000
   9518   9521   9522     1   112.3500484 533.878400
   9518   9521   9531     1   112.3500484 533.878400
   9521   9522   9525     1   111.0400475 552.288000
   9521   9531   9534     1   111.0400475 552.288000
   9522   9521   9531     1   112.3500484 533.878400
   9522   9525   9528     1   111.0400475 529.694400
   9525   9528   9529     1   123.2000528 564.003200
   9525   9528   9530     1   123.2000528 564.003200
   9529   9528   9530     1   130.2500561 651.867200
   9531   9534   9537     1   111.0400475 529.694400
   9534   9537   9538     1   123.2000528 564.003200
   9534   9537   9539     1   123.2000528 564.003200
   9538   9537   9539     1   130.2500561 651.867200
   9541   9544   9547     1   111.5100476 526.347200
   9544   9547   9550     1   111.0400475 552.288000
   9544   9541   9569     1   107.9700462 569.024000
   9547   9550   9551     1   112.3500484 533.878400
   9547   9550   9560     1   112.3500484 533.878400
   9550   9551   9554     1   111.0400475 552.288000
   9550   9560   9563     1   111.0400475 552.288000
   9551   9554   9557     1   111.0400475 529.694400
   9551   9550   9560     1   112.3500484 533.878400
   9554   9557   9558     1   123.2000528 564.003200
   9554   9557   9559     1   123.2000528 564.003200
   9558   9557   9559     1   130.2500561 651.867200
   9560   9563   9566     1   111.0400475 529.694400
   9563   9566   9567     1   123.2000528 564.003200
   9563   9566   9568     1   123.2000528 564.003200
   9567   9566   9568     1   130.2500561 651.867200
   9570   9573   9576     1   111.5100476 526.347200
   9573   9570   9598     1   107.9700462 569.024000
   9573   9576   9579     1   111.0400475 552.288000
   9576   9579   9580     1   112.3500484 533.878400
   9576   9579   9589     1   112.3500484 533.878400
   9579   9580   9583     1   111.0400475 552.288000
   9579   9589   9592     1   111.0400475 552.288000
   9580   9579   9589     1   112.3500484 533.878400
   9580   9583   9586     1   111.0400475 529.694400
   9583   9586   9587     1   123.2000528 564.003200
   9583   9586   9588     1   123.2000528 564.003200
   9587   9586   9588     1   130.2500561 651.867200
   9589   9592   9595     1   111.0400475 529.694400
   9592   9595   9596     1   123.2000528 564.003200
   9592   9595   9597     1   123.2000528 564.003200
   9596   9595   9597     1   130.2500561 651.867200
   9599   9602   9605     1   111.5100476 526.347200
   9602   9605   9608     1   111.0400475 552.288000
   9602   9599   9627     1   107.9700462 569.024000
   9605   9608   9609     1   112.3500484 533.878400
   9605   9608   9618     1   112.3500484 533.878400
   9608   9609   9612     1   111.0400475 552.288000
   9608   9618   9621     1   111.0400475 552.288000
   9609   9612   9615     1   111.0400475 529.694400
   9609   9608   9618     1   112.3500484 533.878400
   9612   9615   9616     1   123.2000528 564.003200
   9612   9615   9617     1   123.2000528 564.003200
   9616   9615   9617     1   130.2500561 651.867200
   9618   9621   9624     1   111.0400475 529.694400
   9621   9624   9625     1   123.2000528 564.003200
   9621   9624   9626     1   123.2000528 564.003200
   9625   9624   9626     1   130.2500561 651.867200
   9628   9631   9634     1   111.5100476 526.347200
   9631   9628   9656     1   107.9700462 569.024000
   9631   9634   9637     1   111.0400475 552.288000
   9634   9637   9638     1   112.3500484 533.878400
   9634   9637   9647     1   112.3500484 533.878400
   9637   9638   9641     1   111.0400475 552.288000
   9637   9647   9650     1   111.0400475 552.288000
   9638   9637   9647     1   112.3500484 533.878400
   9638   9641   9644     1   111.0400475 529.694400
   9641   9644   9645     1   123.2000528 564.003200
   9641   9644   9646     1   123.2000528 564.003200
   9645   9644   9646     1   130.2500561 651.867200
   9647   9650   9653     1   111.0400475 529.694400
   9650   9653   9654     1   123.2000528 564.003200
   9650   9653   9655     1   123.2000528 564.003200
   9654   9653   9655     1   130.2500561 651.867200
   9657   9660   9663     1   111.5100476 526.347200
   9660   9663   9666     1   111.0400475 552.288000
   9660   9657   9685     1   107.9700462 569.024000
   9663   9666   9667     1   112.3500484 533.878400
   9663   9666   9676     1   112.3500484 533.878400
   9666   9667   9670     1   111.0400475 552.288000
   9666   9676   9679     1   111.0400475 552.288000
   9667   9670   9673     1   111.0400475 529.694400
   9667   9666   9676     1   112.3500484 533.878400
   9670   9673   9674     1   123.2000528 564.003200
   9670   9673   9675     1   123.2000528 564.003200
   9674   9673   9675     1   130.2500561 651.867200
   9676   9679   9682     1   111.0400475 529.694400
   9679   9682   9683     1   123.2000528 564.003200
   9679   9682   9684     1   123.2000528 564.003200
   9683   9682   9684     1   130.2500561 651.867200
   9686   9689   9692     1   111.5100476 526.347200
   9689   9686   9714     1   107.9700462 569.024000
   9689   9692   9695     1   111.0400475 552.288000
   9692   9695   9696     1   112.3500484 533.878400
   9692   9695   9705     1   112.3500484 533.878400
   9695   9696   9699     1   111.0400475 552.288000
   9695   9705   9708     1   111.0400475 552.288000
   9696   9695   9705     1   112.3500484 533.878400
   9696   9699   9702     1   111.0400475 529.694400
   9699   9702   9703     1   123.2000528 564.003200
   9699   9702   9704     1   123.2000528 564.003200
   9703   9702   9704     1   130.2500561 651.867200
   9705   9708   9711     1   111.0400475 529.694400
   9708   9711   9712     1   123.2000528 564.003200
   9708   9711   9713     1   123.2000528 564.003200
   9712   9711   9713     1   130.2500561 651.867200
   9715   9718   9721     1   111.5100476 526.347200
   9718   9721   9724     1   111.0400475 552.288000
   9718   9715   9743     1   107.9700462 569.024000
   9721   9724   9725     1   112.3500484 533.878400
   9721   9724   9734     1   112.3500484 533.878400
   9724   9725   9728     1   111.0400475 552.288000
   9724   9734   9737     1   111.0400475 552.288000
   9725   9728   9731     1   111.0400475 529.694400
   9725   9724   9734     1   112.3500484 533.878400
   9728   9731   9732     1   123.2000528 564.003200
   9728   9731   9733     1   123.2000528 564.003200
   9732   9731   9733     1   130.2500561 651.867200
   9734   9737   9740     1   111.0400475 529.694400
   9737   9740   9741     1   123.2000528 564.003200
   9737   9740   9742     1   123.2000528 564.003200
   9741   9740   9742     1   130.2500561 651.867200
   9744   9747   9750     1   111.5100476 526.347200
   9747   9744   9772     1   107.9700462 569.024000
   9747   9750   9753     1   111.0400475 552.288000
   9750   9753   9754     1   112.3500484 533.878400
   9750   9753   9763     1   112.3500484 533.878400
   9753   9754   9757     1   111.0400475 552.288000
   9753   9763   9766     1   111.0400475 552.288000
   9754   9753   9763     1   112.3500484 533.878400
   9754   9757   9760     1   111.0400475 529.694400
   9757   9760   9761     1   123.2000528 564.003200
   9757   9760   9762     1   123.2000528 564.003200
   9761   9760   9762     1   130.2500561 651.867200
   9763   9766   9769     1   111.0400475 529.694400
   9766   9769   9770     1   123.2000528 564.003200
   9766   9769   9771     1   123.2000528 564.003200
   9770   9769   9771     1   130.2500561 651.867200
   9773   9776   9779     1   111.5100476 526.347200
   9776   9779   9782     1   111.0400475 552.288000
   9776   9773   9801     1   107.9700462 569.024000
   9779   9782   9783     1   112.3500484 533.878400
   9779   9782   9792     1   112.3500484 533.878400
   9782   9783   9786     1   111.0400475 552.288000
   9782   9792   9795     1   111.0400475 552.288000
   9783   9786   9789     1   111.0400475 529.694400
   9783   9782   9792     1   112.3500484 533.878400
   9786   9789   9790     1   123.2000528 564.003200
   9786   9789   9791     1   123.2000528 564.003200
   9790   9789   9791     1   130.2500561 651.867200
   9792   9795   9798     1   111.0400475 529.694400
   9795   9798   9799     1   123.2000528 564.003200
   9795   9798   9800     1   123.2000528 564.003200
   9799   9798   9800     1   130.2500561 651.867200
   9802   9805   9808     1   111.5100476 526.347200
   9805   9802   9830     1   107.9700462 569.024000
   9805   9808   9811     1   111.0400475 552.288000
   9808   9811   9812     1   112.3500484 533.878400
   9808   9811   9821     1   112.3500484 533.878400
   9811   9812   9815     1   111.0400475 552.288000
   9811   9821   9824     1   111.0400475 552.288000
   9812   9811   9821     1   112.3500484 533.878400
   9812   9815   9818     1   111.0400475 529.694400
   9815   9818   9819     1   123.2000528 564.003200
   9815   9818   9820     1   123.2000528 564.003200
   9819   9818   9820     1   130.2500561 651.867200
   9821   9824   9827     1   111.0400475 529.694400
   9824   9827   9828     1   123.2000528 564.003200
   9824   9827   9829     1   123.2000528 564.003200
   9828   9827   9829     1   130.2500561 651.867200
   9831   9834   9837     1   111.5100476 526.347200
   9834   9837   9840     1   111.0400475 552.288000
   9834   9831   9859     1   107.9700462 569.024000
   9837   9840   9841     1   112.3500484 533.878400
   9837   9840   9850     1   112.3500484 533.878400
   9840   9841   9844     1   111.0400475 552.288000
   9840   9850   9853     1   111.0400475 552.288000
   9841   9844   9847     1   111.0400475 529.694400
   9841   9840   9850     1   112.3500484 533.878400
   9844   9847   9848     1   123.2000528 564.003200
   9844   9847   9849     1   123.2000528 564.003200
   9848   9847   9849     1   130.2500561 651.867200
   9850   9853   9856     1   111.0400475 529.694400
   9853   9856   9857     1   123.2000528 564.003200
   9853   9856   9858     1   123.2000528 564.003200
   9857   9856   9858     1   130.2500561 651.867200
   9860   9863   9866     1   111.5100476 526.347200
   9863   9860   9888     1   107.9700462 569.024000
   9863   9866   9869     1   111.0400475 552.288000
   9866   9869   9870     1   112.3500484 533.878400
   9866   9869   9879     1   112.3500484 533.878400
   9869   9870   9873     1   111.0400475 552.288000
   9869   9879   9882     1   111.0400475 552.288000
   9870   9869   9879     1   112.3500484 533.878400
   9870   9873   9876     1   111.0400475 529.694400
   9873   9876   9877     1   123.2000528 564.003200
   9873   9876   9878     1   123.2000528 564.003200
   9877   9876   9878     1   130.2500561 651.867200
   9879   9882   9885     1   111.0400475 529.694400
   9882   9885   9886     1   123.2000528 564.003200
   9882   9885   9887     1   123.2000528 564.003200
   9886   9885   9887     1   130.2500561 651.867200
   9889   9892   9895     1   111.5100476 526.347200
   9892   9895   9898     1   111.0400475 552.288000
   9892   9889   9917     1   107.9700462 569.024000
   9895   9898   9899     1   112.3500484 533.878400
   9895   9898   9908     1   112.3500484 533.878400
   9898   9899   9902     1   111.0400475 552.288000
   9898   9908   9911     1   111.0400475 552.288000
   9899   9902   9905     1   111.0400475 529.694400
   9899   9898   9908     1   112.3500484 533.878400
   9902   9905   9906     1   123.2000528 564.003200
   9902   9905   9907     1   123.2000528 564.003200
   9906   9905   9907     1   130.2500561 651.867200
   9908   9911   9914     1   111.0400475 529.694400
   9911   9914   9915     1   123.2000528 564.003200
   9911   9914   9916     1   123.2000528 564.003200
   9915   9914   9916     1   130.2500561 651.867200
   9918   9921   9924     1   111.5100476 526.347200
   9921   9918   9946     1   107.9700462 569.024000
   9921   9924   9927     1   111.0400475 552.288000
   9924   9927   9928     1   112.3500484 533.878400
   9924   9927   9937     1   112.3500484 533.878400
   9927   9928   9931     1   111.0400475 552.288000
   9927   9937   9940     1   111.0400475 552.288000
   9928   9927   9937     1   112.3500484 533.878400
   9928   9931   9934     1   111.0400475 529.694400
   9931   9934   9935     1   123.2000528 564.003200
   9931   9934   9936     1   123.2000528 564.003200
   9935   9934   9936     1   130.2500561 651.867200
   9937   9940   9943     1   111.0400475 529.694400
   9940   9943   9944     1   123.2000528 564.003200
   9940   9943   9945     1   123.2000528 564.003200
   9944   9943   9945     1   130.2500561 651.867200
   9947   9950   9953     1   111.5100476 526.347200
   9950   9953   9956     1   111.0400475 552.288000
   9950   9947   9975     1   107.9700462 569.024000
   9953   9956   9957     1   112.3500484 533.878400
   9953   9956   9966     1   112.3500484 533.878400
   9956   9957   9960     1   111.0400475 552.288000
   9956   9966   9969     1   111.0400475 552.288000
   9957   9960   9963     1   111.0400475 529.694400
   9957   9956   9966     1   112.3500484 533.878400
   9960   9963   9964     1   123.2000528 564.003200
   9960   9963   9965     1   123.2000528 564.003200
   9964   9963   9965     1   130.2500561 651.867200
   9966   9969   9972     1   111.0400475 529.694400
   9969   9972   9973     1   123.2000528 564.003200
   9969   9972   9974     1   123.2000528 564.003200
   9973   9972   9974     1   130.2500561 651.867200
   9976   9979   9982     1   111.5100476 526.347200
   9979   9976  10004     1   107.9700462 569.024000
   9979   9982   9985     1   111.0400475 552.288000
   9982   9985   9986     1   112.3500484 533.878400
   9982   9985   9995     1   112.3500484 533.878400
   9985   9986   9989     1   111.0400475 552.288000
   9985   9995   9998     1   111.0400475 552.288000
   9986   9985   9995     1   112.3500484 533.878400
   9986   9989   9992     1   111.0400475 529.694400
   9989   9992   9993     1   123.2000528 564.003200
   9989   9992   9994     1   123.2000528 564.003200
   9993   9992   9994     1   130.2500561 651.867200
   9995   9998  10001     1   111.0400475 529.694400
   9998  10001  10002     1   123.2000528 564.003200
   9998  10001  10003     1   123.2000528 564.003200
  10002  10001  10003     1   130.2500561 651.867200
  10005  10008  10011     1   111.5100476 526.347200
  10008  10011  10014     1   111.0400475 552.288000
  10008  10005  10033     1   107.9700462 569.024000
  10011  10014  10015     1   112.3500484 533.878400
  10011  10014  10024     1   112.3500484 533.878400
  10014  10015  10018     1   111.0400475 552.288000
  10014  10024  10027     1   111.0400475 552.288000
  10015  10018  10021     1   111.0400475 529.694400
  10015  10014  10024     1   112.3500484 533.878400
  10018  10021  10022     1   123.2000528 564.003200
  10018  10021  10023     1   123.2000528 564.003200
  10022  10021  10023     1   130.2500561 651.867200
  10024  10027  10030     1   111.0400475 529.694400
  10027  10030  10031     1   123.2000528 564.003200
  10027  10030  10032     1   123.2000528 564.003200
  10031  10030  10032     1   130.2500561 651.867200
  10034  10037  10040     1   111.5100476 526.347200
  10037  10034  10062     1   107.9700462 569.024000
  10037  10040  10043     1   111.0400475 552.288000
  10040  10043  10044     1   112.3500484 533.878400
  10040  10043  10053     1   112.3500484 533.878400
  10043  10044  10047     1   111.0400475 552.288000
  10043  10053  10056     1   111.0400475 552.288000
  10044  10043  10053     1   112.3500484 533.878400
  10044  10047  10050     1   111.0400475 529.694400
  10047  10050  10051     1   123.2000528 564.003200
  10047  10050  10052     1   123.2000528 564.003200
  10051  10050  10052     1   130.2500561 651.867200
  10053  10056  10059     1   111.0400475 529.694400
  10056  10059  10060     1   123.2000528 564.003200
  10056  10059  10061     1   123.2000528 564.003200
  10060  10059  10061     1   130.2500561 651.867200
  10063  10066  10069     1   111.5100476 526.347200
  10066  10069  10072     1   111.0400475 552.288000
  10066  10063  10091     1   107.9700462 569.024000
  10069  10072  10073     1   112.3500484 533.878400
  10069  10072  10082     1   112.3500484 533.878400
  10072  10073  10076     1   111.0400475 552.288000
  10072  10082  10085     1   111.0400475 552.288000
  10073  10076  10079     1   111.0400475 529.694400
  10073  10072  10082     1   112.3500484 533.878400
  10076  10079  10080     1   123.2000528 564.003200
  10076  10079  10081     1   123.2000528 564.003200
  10080  10079  10081     1   130.2500561 651.867200
  10082  10085  10088     1   111.0400475 529.694400
  10085  10088  10089     1   123.2000528 564.003200
  10085  10088  10090     1   123.2000528 564.003200
  10089  10088  10090     1   130.2500561 651.867200
  10092  10095  10098     1   111.5100476 526.347200
  10095  10092  10120     1   107.9700462 569.024000
  10095  10098  10101     1   111.0400475 552.288000
  10098  10101  10102     1   112.3500484 533.878400
  10098  10101  10111     1   112.3500484 533.878400
  10101  10102  10105     1   111.0400475 552.288000
  10101  10111  10114     1   111.0400475 552.288000
  10102  10101  10111     1   112.3500484 533.878400
  10102  10105  10108     1   111.0400475 529.694400
  10105  10108  10109     1   123.2000528 564.003200
  10105  10108  10110     1   123.2000528 564.003200
  10109  10108  10110     1   130.2500561 651.867200
  10111  10114  10117     1   111.0400475 529.694400
  10114  10117  10118     1   123.2000528 564.003200
  10114  10117  10119     1   123.2000528 564.003200
  10118  10117  10119     1   130.2500561 651.867200
  10121  10124  10127     1   111.5100476 526.347200
  10124  10127  10130     1   111.0400475 552.288000
  10124  10121  10149     1   107.9700462 569.024000
  10127  10130  10131     1   112.3500484 533.878400
  10127  10130  10140     1   112.3500484 533.878400
  10130  10131  10134     1   111.0400475 552.288000
  10130  10140  10143     1   111.0400475 552.288000
  10131  10134  10137     1   111.0400475 529.694400
  10131  10130  10140     1   112.3500484 533.878400
  10134  10137  10138     1   123.2000528 564.003200
  10134  10137  10139     1   123.2000528 564.003200
  10138  10137  10139     1   130.2500561 651.867200
  10140  10143  10146     1   111.0400475 529.694400
  10143  10146  10147     1   123.2000528 564.003200
  10143  10146  10148     1   123.2000528 564.003200
  10147  10146  10148     1   130.2500561 651.867200
  10150  10153  10156     1   111.5100476 526.347200
  10153  10150  10178     1   107.9700462 569.024000
  10153  10156  10159     1   111.0400475 552.288000
  10156  10159  10160     1   112.3500484 533.878400
  10156  10159  10169     1   112.3500484 533.878400
  10159  10160  10163     1   111.0400475 552.288000
  10159  10169  10172     1   111.0400475 552.288000
  10160  10159  10169     1   112.3500484 533.878400
  10160  10163  10166     1   111.0400475 529.694400
  10163  10166  10167     1   123.2000528 564.003200
  10163  10166  10168     1   123.2000528 564.003200
  10167  10166  10168     1   130.2500561 651.867200
  10169  10172  10175     1   111.0400475 529.694400
  10172  10175  10176     1   123.2000528 564.003200
  10172  10175  10177     1   123.2000528 564.003200
  10176  10175  10177     1   130.2500561 651.867200
  10179  10182  10185     1   111.5100476 526.347200
  10182  10185  10188     1   111.0400475 552.288000
  10182  10179  10207     1   107.9700462 569.024000
  10185  10188  10189     1   112.3500484 533.878400
  10185  10188  10198     1   112.3500484 533.878400
  10188  10189  10192     1   111.0400475 552.288000
  10188  10198  10201     1   111.0400475 552.288000
  10189  10192  10195     1   111.0400475 529.694400
  10189  10188  10198     1   112.3500484 533.878400
  10192  10195  10196     1   123.2000528 564.003200
  10192  10195  10197     1   123.2000528 564.003200
  10196  10195  10197     1   130.2500561 651.867200
  10198  10201  10204     1   111.0400475 529.694400
  10201  10204  10205     1   123.2000528 564.003200
  10201  10204  10206     1   123.2000528 564.003200
  10205  10204  10206     1   130.2500561 651.867200
  10208  10211  10214     1   111.5100476 526.347200
  10211  10208  10236     1   107.9700462 569.024000
  10211  10214  10217     1   111.0400475 552.288000
  10214  10217  10218     1   112.3500484 533.878400
  10214  10217  10227     1   112.3500484 533.878400
  10217  10218  10221     1   111.0400475 552.288000
  10217  10227  10230     1   111.0400475 552.288000
  10218  10217  10227     1   112.3500484 533.878400
  10218  10221  10224     1   111.0400475 529.694400
  10221  10224  10225     1   123.2000528 564.003200
  10221  10224  10226     1   123.2000528 564.003200
  10225  10224  10226     1   130.2500561 651.867200
  10227  10230  10233     1   111.0400475 529.694400
  10230  10233  10234     1   123.2000528 564.003200
  10230  10233  10235     1   123.2000528 564.003200
  10234  10233  10235     1   130.2500561 651.867200
  10237  10240  10243     1   111.5100476 526.347200
  10240  10243  10246     1   111.0400475 552.288000
  10240  10237  10265     1   107.9700462 569.024000
  10243  10246  10247     1   112.3500484 533.878400
  10243  10246  10256     1   112.3500484 533.878400
  10246  10247  10250     1   111.0400475 552.288000
  10246  10256  10259     1   111.0400475 552.288000
  10247  10250  10253     1   111.0400475 529.694400
  10247  10246  10256     1   112.3500484 533.878400
  10250  10253  10254     1   123.2000528 564.003200
  10250  10253  10255     1   123.2000528 564.003200
  10254  10253  10255     1   130.2500561 651.867200
  10256  10259  10262     1   111.0400475 529.694400
  10259  10262  10263     1   123.2000528 564.003200
  10259  10262  10264     1   123.2000528 564.003200
  10263  10262  10264     1   130.2500561 651.867200
  10266  10269  10272     1   111.5100476 526.347200
  10269  10266  10294     1   107.9700462 569.024000
  10269  10272  10275     1   111.0400475 552.288000
  10272  10275  10276     1   112.3500484 533.878400
  10272  10275  10285     1   112.3500484 533.878400
  10275  10276  10279     1   111.0400475 552.288000
  10275  10285  10288     1   111.0400475 552.288000
  10276  10275  10285     1   112.3500484 533.878400
  10276  10279  10282     1   111.0400475 529.694400
  10279  10282  10283     1   123.2000528 564.003200
  10279  10282  10284     1   123.2000528 564.003200
  10283  10282  10284     1   130.2500561 651.867200
  10285  10288  10291     1   111.0400475 529.694400
  10288  10291  10292     1   123.2000528 564.003200
  10288  10291  10293     1   123.2000528 564.003200
  10292  10291  10293     1   130.2500561 651.867200
  10295  10298  10301     1   111.5100476 526.347200
  10298  10301  10304     1   111.0400475 552.288000
  10298  10295  10323     1   107.9700462 569.024000
  10301  10304  10305     1   112.3500484 533.878400
  10301  10304  10314     1   112.3500484 533.878400
  10304  10305  10308     1   111.0400475 552.288000
  10304  10314  10317     1   111.0400475 552.288000
  10305  10308  10311     1   111.0400475 529.694400
  10305  10304  10314     1   112.3500484 533.878400
  10308  10311  10312     1   123.2000528 564.003200
  10308  10311  10313     1   123.2000528 564.003200
  10312  10311  10313     1   130.2500561 651.867200
  10314  10317  10320     1   111.0400475 529.694400
  10317  10320  10321     1   123.2000528 564.003200
  10317  10320  10322     1   123.2000528 564.003200
  10321  10320  10322     1   130.2500561 651.867200
  10324  10327  10330     1   111.5100476 526.347200
  10327  10324  10352     1   107.9700462 569.024000
  10327  10330  10333     1   111.0400475 552.288000
  10330  10333  10334     1   112.3500484 533.878400
  10330  10333  10343     1   112.3500484 533.878400
  10333  10334  10337     1   111.0400475 552.288000
  10333  10343  10346     1   111.0400475 552.288000
  10334  10333  10343     1   112.3500484 533.878400
  10334  10337  10340     1   111.0400475 529.694400
  10337  10340  10341     1   123.2000528 564.003200
  10337  10340  10342     1   123.2000528 564.003200
  10341  10340  10342     1   130.2500561 651.867200
  10343  10346  10349     1   111.0400475 529.694400
  10346  10349  10350     1   123.2000528 564.003200
  10346  10349  10351     1   123.2000528 564.003200
  10350  10349  10351     1   130.2500561 651.867200
  10353  10356  10359     1   111.5100476 526.347200
  10356  10359  10362     1   111.0400475 552.288000
  10356  10353  10381     1   107.9700462 569.024000
  10359  10362  10363     1   112.3500484 533.878400
  10359  10362  10372     1   112.3500484 533.878400
  10362  10363  10366     1   111.0400475 552.288000
  10362  10372  10375     1   111.0400475 552.288000
  10363  10366  10369     1   111.0400475 529.694400
  10363  10362  10372     1   112.3500484 533.878400
  10366  10369  10370     1   123.2000528 564.003200
  10366  10369  10371     1   123.2000528 564.003200
  10370  10369  10371     1   130.2500561 651.867200
  10372  10375  10378     1   111.0400475 529.694400
  10375  10378  10379     1   123.2000528 564.003200
  10375  10378  10380     1   123.2000528 564.003200
  10379  10378  10380     1   130.2500561 651.867200
  10382  10385  10388     1   111.5100476 526.347200
  10385  10382  10410     1   107.9700462 569.024000
  10385  10388  10391     1   111.0400475 552.288000
  10388  10391  10392     1   112.3500484 533.878400
  10388  10391  10401     1   112.3500484 533.878400
  10391  10392  10395     1   111.0400475 552.288000
  10391  10401  10404     1   111.0400475 552.288000
  10392  10391  10401     1   112.3500484 533.878400
  10392  10395  10398     1   111.0400475 529.694400
  10395  10398  10399     1   123.2000528 564.003200
  10395  10398  10400     1   123.2000528 564.003200
  10399  10398  10400     1   130.2500561 651.867200
  10401  10404  10407     1   111.0400475 529.694400
  10404  10407  10408     1   123.2000528 564.003200
  10404  10407  10409     1   123.2000528 564.003200
  10408  10407  10409     1   130.2500561 651.867200
  10411  10414  10417     1   111.5100476 526.347200
  10414  10417  10420     1   111.0400475 552.288000
  10414  10411  10439     1   107.9700462 569.024000
  10417  10420  10421     1   112.3500484 533.878400
  10417  10420  10430     1   112.3500484 533.878400
  10420  10421  10424     1   111.0400475 552.288000
  10420  10430  10433     1   111.0400475 552.288000
  10421  10424  10427     1   111.0400475 529.694400
  10421  10420  10430     1   112.3500484 533.878400
  10424  10427  10428     1   123.2000528 564.003200
  10424  10427  10429     1   123.2000528 564.003200
  10428  10427  10429     1   130.2500561 651.867200
  10430  10433  10436     1   111.0400475 529.694400
  10433  10436  10437     1   123.2000528 564.003200
  10433  10436  10438     1   123.2000528 564.003200
  10437  10436  10438     1   130.2500561 651.867200
  10440  10443  10446     1   111.5100476 526.347200
  10443  10440  10468     1   107.9700462 569.024000
  10443  10446  10449     1   111.0400475 552.288000
  10446  10449  10450     1   112.3500484 533.878400
  10446  10449  10459     1   112.3500484 533.878400
  10449  10450  10453     1   111.0400475 552.288000
  10449  10459  10462     1   111.0400475 552.288000
  10450  10449  10459     1   112.3500484 533.878400
  10450  10453  10456     1   111.0400475 529.694400
  10453  10456  10457     1   123.2000528 564.003200
  10453  10456  10458     1   123.2000528 564.003200
  10457  10456  10458     1   130.2500561 651.867200
  10459  10462  10465     1   111.0400475 529.694400
  10462  10465  10466     1   123.2000528 564.003200
  10462  10465  10467     1   123.2000528 564.003200
  10466  10465  10467     1   130.2500561 651.867200
  10469  10472  10475     1   111.5100476 526.347200
  10472  10475  10478     1   111.0400475 552.288000
  10472  10469  10497     1   107.9700462 569.024000
  10475  10478  10479     1   112.3500484 533.878400
  10475  10478  10488     1   112.3500484 533.878400
  10478  10479  10482     1   111.0400475 552.288000
  10478  10488  10491     1   111.0400475 552.288000
  10479  10482  10485     1   111.0400475 529.694400
  10479  10478  10488     1   112.3500484 533.878400
  10482  10485  10486     1   123.2000528 564.003200
  10482  10485  10487     1   123.2000528 564.003200
  10486  10485  10487     1   130.2500561 651.867200
  10488  10491  10494     1   111.0400475 529.694400
  10491  10494  10495     1   123.2000528 564.003200
  10491  10494  10496     1   123.2000528 564.003200
  10495  10494  10496     1   130.2500561 651.867200
  10498  10501  10504     1   111.5100476 526.347200
  10501  10498  10526     1   107.9700462 569.024000
  10501  10504  10507     1   111.0400475 552.288000
  10504  10507  10508     1   112.3500484 533.878400
  10504  10507  10517     1   112.3500484 533.878400
  10507  10508  10511     1   111.0400475 552.288000
  10507  10517  10520     1   111.0400475 552.288000
  10508  10507  10517     1   112.3500484 533.878400
  10508  10511  10514     1   111.0400475 529.694400
  10511  10514  10515     1   123.2000528 564.003200
  10511  10514  10516     1   123.2000528 564.003200
  10515  10514  10516     1   130.2500561 651.867200
  10517  10520  10523     1   111.0400475 529.694400
  10520  10523  10524     1   123.2000528 564.003200
  10520  10523  10525     1   123.2000528 564.003200
  10524  10523  10525     1   130.2500561 651.867200
  10527  10530  10533     1   111.5100476 526.347200
  10530  10533  10536     1   111.0400475 552.288000
  10530  10527  10555     1   107.9700462 569.024000
  10533  10536  10537     1   112.3500484 533.878400
  10533  10536  10546     1   112.3500484 533.878400
  10536  10537  10540     1   111.0400475 552.288000
  10536  10546  10549     1   111.0400475 552.288000
  10537  10540  10543     1   111.0400475 529.694400
  10537  10536  10546     1   112.3500484 533.878400
  10540  10543  10544     1   123.2000528 564.003200
  10540  10543  10545     1   123.2000528 564.003200
  10544  10543  10545     1   130.2500561 651.867200
  10546  10549  10552     1   111.0400475 529.694400
  10549  10552  10553     1   123.2000528 564.003200
  10549  10552  10554     1   123.2000528 564.003200
  10553  10552  10554     1   130.2500561 651.867200
  10556  10559  10562     1   111.5100476 526.347200
  10559  10556  10584     1   107.9700462 569.024000
  10559  10562  10565     1   111.0400475 552.288000
  10562  10565  10566     1   112.3500484 533.878400
  10562  10565  10575     1   112.3500484 533.878400
  10565  10566  10569     1   111.0400475 552.288000
  10565  10575  10578     1   111.0400475 552.288000
  10566  10565  10575     1   112.3500484 533.878400
  10566  10569  10572     1   111.0400475 529.694400
  10569  10572  10573     1   123.2000528 564.003200
  10569  10572  10574     1   123.2000528 564.003200
  10573  10572  10574     1   130.2500561 651.867200
  10575  10578  10581     1   111.0400475 529.694400
  10578  10581  10582     1   123.2000528 564.003200
  10578  10581  10583     1   123.2000528 564.003200
  10582  10581  10583     1   130.2500561 651.867200
  10585  10588  10591     1   111.5100476 526.347200
  10588  10591  10594     1   111.0400475 552.288000
  10588  10585  10613     1   107.9700462 569.024000
  10591  10594  10595     1   112.3500484 533.878400
  10591  10594  10604     1   112.3500484 533.878400
  10594  10595  10598     1   111.0400475 552.288000
  10594  10604  10607     1   111.0400475 552.288000
  10595  10598  10601     1   111.0400475 529.694400
  10595  10594  10604     1   112.3500484 533.878400
  10598  10601  10602     1   123.2000528 564.003200
  10598  10601  10603     1   123.2000528 564.003200
  10602  10601  10603     1   130.2500561 651.867200
  10604  10607  10610     1   111.0400475 529.694400
  10607  10610  10611     1   123.2000528 564.003200
  10607  10610  10612     1   123.2000528 564.003200
  10611  10610  10612     1   130.2500561 651.867200
  10614  10617  10620     1   111.5100476 526.347200
  10617  10614  10642     1   107.9700462 569.024000
  10617  10620  10623     1   111.0400475 552.288000
  10620  10623  10624     1   112.3500484 533.878400
  10620  10623  10633     1   112.3500484 533.878400
  10623  10624  10627     1   111.0400475 552.288000
  10623  10633  10636     1   111.0400475 552.288000
  10624  10623  10633     1   112.3500484 533.878400
  10624  10627  10630     1   111.0400475 529.694400
  10627  10630  10631     1   123.2000528 564.003200
  10627  10630  10632     1   123.2000528 564.003200
  10631  10630  10632     1   130.2500561 651.867200
  10633  10636  10639     1   111.0400475 529.694400
  10636  10639  10640     1   123.2000528 564.003200
  10636  10639  10641     1   123.2000528 564.003200
  10640  10639  10641     1   130.2500561 651.867200
  10643  10646  10649     1   111.5100476 526.347200
  10646  10649  10652     1   111.0400475 552.288000
  10646  10643  10671     1   107.9700462 569.024000
  10649  10652  10653     1   112.3500484 533.878400
  10649  10652  10662     1   112.3500484 533.878400
  10652  10653  10656     1   111.0400475 552.288000
  10652  10662  10665     1   111.0400475 552.288000
  10653  10656  10659     1   111.0400475 529.694400
  10653  10652  10662     1   112.3500484 533.878400
  10656  10659  10660     1   123.2000528 564.003200
  10656  10659  10661     1   123.2000528 564.003200
  10660  10659  10661     1   130.2500561 651.867200
  10662  10665  10668     1   111.0400475 529.694400
  10665  10668  10669     1   123.2000528 564.003200
  10665  10668  10670     1   123.2000528 564.003200
  10669  10668  10670     1   130.2500561 651.867200
  10672  10675  10678     1   111.5100476 526.347200
  10675  10672  10700     1   107.9700462 569.024000
  10675  10678  10681     1   111.0400475 552.288000
  10678  10681  10682     1   112.3500484 533.878400
  10678  10681  10691     1   112.3500484 533.878400
  10681  10682  10685     1   111.0400475 552.288000
  10681  10691  10694     1   111.0400475 552.288000
  10682  10681  10691     1   112.3500484 533.878400
  10682  10685  10688     1   111.0400475 529.694400
  10685  10688  10689     1   123.2000528 564.003200
  10685  10688  10690     1   123.2000528 564.003200
  10689  10688  10690     1   130.2500561 651.867200
  10691  10694  10697     1   111.0400475 529.694400
  10694  10697  10698     1   123.2000528 564.003200
  10694  10697  10699     1   123.2000528 564.003200
  10698  10697  10699     1   130.2500561 651.867200
  10701  10704  10707     1   111.5100476 526.347200
  10704  10707  10710     1   111.0400475 552.288000
  10704  10701  10729     1   107.9700462 569.024000
  10707  10710  10711     1   112.3500484 533.878400
  10707  10710  10720     1   112.3500484 533.878400
  10710  10711  10714     1   111.0400475 552.288000
  10710  10720  10723     1   111.0400475 552.288000
  10711  10714  10717     1   111.0400475 529.694400
  10711  10710  10720     1   112.3500484 533.878400
  10714  10717  10718     1   123.2000528 564.003200
  10714  10717  10719     1   123.2000528 564.003200
  10718  10717  10719     1   130.2500561 651.867200
  10720  10723  10726     1   111.0400475 529.694400
  10723  10726  10727     1   123.2000528 564.003200
  10723  10726  10728     1   123.2000528 564.003200
  10727  10726  10728     1   130.2500561 651.867200
  10730  10733  10736     1   111.5100476 526.347200
  10733  10730  10758     1   107.9700462 569.024000
  10733  10736  10739     1   111.0400475 552.288000
  10736  10739  10740     1   112.3500484 533.878400
  10736  10739  10749     1   112.3500484 533.878400
  10739  10740  10743     1   111.0400475 552.288000
  10739  10749  10752     1   111.0400475 552.288000
  10740  10739  10749     1   112.3500484 533.878400
  10740  10743  10746     1   111.0400475 529.694400
  10743  10746  10747     1   123.2000528 564.003200
  10743  10746  10748     1   123.2000528 564.003200
  10747  10746  10748     1   130.2500561 651.867200
  10749  10752  10755     1   111.0400475 529.694400
  10752  10755  10756     1   123.2000528 564.003200
  10752  10755  10757     1   123.2000528 564.003200
  10756  10755  10757     1   130.2500561 651.867200
  10759  10762  10765     1   111.5100476 526.347200
  10762  10765  10768     1   111.0400475 552.288000
  10762  10759  10787     1   107.9700462 569.024000
  10765  10768  10769     1   112.3500484 533.878400
  10765  10768  10778     1   112.3500484 533.878400
  10768  10769  10772     1   111.0400475 552.288000
  10768  10778  10781     1   111.0400475 552.288000
  10769  10772  10775     1   111.0400475 529.694400
  10769  10768  10778     1   112.3500484 533.878400
  10772  10775  10776     1   123.2000528 564.003200
  10772  10775  10777     1   123.2000528 564.003200
  10776  10775  10777     1   130.2500561 651.867200
  10778  10781  10784     1   111.0400475 529.694400
  10781  10784  10785     1   123.2000528 564.003200
  10781  10784  10786     1   123.2000528 564.003200
  10785  10784  10786     1   130.2500561 651.867200
  10788  10791  10794     1   111.5100476 526.347200
  10791  10788  10816     1   107.9700462 569.024000
  10791  10794  10797     1   111.0400475 552.288000
  10794  10797  10798     1   112.3500484 533.878400
  10794  10797  10807     1   112.3500484 533.878400
  10797  10798  10801     1   111.0400475 552.288000
  10797  10807  10810     1   111.0400475 552.288000
  10798  10797  10807     1   112.3500484 533.878400
  10798  10801  10804     1   111.0400475 529.694400
  10801  10804  10805     1   123.2000528 564.003200
  10801  10804  10806     1   123.2000528 564.003200
  10805  10804  10806     1   130.2500561 651.867200
  10807  10810  10813     1   111.0400475 529.694400
  10810  10813  10814     1   123.2000528 564.003200
  10810  10813  10815     1   123.2000528 564.003200
  10814  10813  10815     1   130.2500561 651.867200
  10817  10820  10823     1   111.5100476 526.347200
  10820  10823  10826     1   111.0400475 552.288000
  10820  10817  10845     1   107.9700462 569.024000
  10823  10826  10827     1   112.3500484 533.878400
  10823  10826  10836     1   112.3500484 533.878400
  10826  10827  10830     1   111.0400475 552.288000
  10826  10836  10839     1   111.0400475 552.288000
  10827  10830  10833     1   111.0400475 529.694400
  10827  10826  10836     1   112.3500484 533.878400
  10830  10833  10834     1   123.2000528 564.003200
  10830  10833  10835     1   123.2000528 564.003200
  10834  10833  10835     1   130.2500561 651.867200
  10836  10839  10842     1   111.0400475 529.694400
  10839  10842  10843     1   123.2000528 564.003200
  10839  10842  10844     1   123.2000528 564.003200
  10843  10842  10844     1   130.2500561 651.867200
  10846  10849  10852     1   111.5100476 526.347200
  10849  10846  10874     1   107.9700462 569.024000
  10849  10852  10855     1   111.0400475 552.288000
  10852  10855  10856     1   112.3500484 533.878400
  10852  10855  10865     1   112.3500484 533.878400
  10855  10856  10859     1   111.0400475 552.288000
  10855  10865  10868     1   111.0400475 552.288000
  10856  10855  10865     1   112.3500484 533.878400
  10856  10859  10862     1   111.0400475 529.694400
  10859  10862  10863     1   123.2000528 564.003200
  10859  10862  10864     1   123.2000528 564.003200
  10863  10862  10864     1   130.2500561 651.867200
  10865  10868  10871     1   111.0400475 529.694400
  10868  10871  10872     1   123.2000528 564.003200
  10868  10871  10873     1   123.2000528 564.003200
  10872  10871  10873     1   130.2500561 651.867200
  10875  10878  10881     1   111.5100476 526.347200
  10878  10881  10884     1   111.0400475 552.288000
  10878  10875  10903     1   107.9700462 569.024000
  10881  10884  10885     1   112.3500484 533.878400
  10881  10884  10894     1   112.3500484 533.878400
  10884  10885  10888     1   111.0400475 552.288000
  10884  10894  10897     1   111.0400475 552.288000
  10885  10888  10891     1   111.0400475 529.694400
  10885  10884  10894     1   112.3500484 533.878400
  10888  10891  10892     1   123.2000528 564.003200
  10888  10891  10893     1   123.2000528 564.003200
  10892  10891  10893     1   130.2500561 651.867200
  10894  10897  10900     1   111.0400475 529.694400
  10897  10900  10901     1   123.2000528 564.003200
  10897  10900  10902     1   123.2000528 564.003200
  10901  10900  10902     1   130.2500561 651.867200
  10904  10907  10910     1   111.5100476 526.347200
  10907  10904  10932     1   107.9700462 569.024000
  10907  10910  10913     1   111.0400475 552.288000
  10910  10913  10914     1   112.3500484 533.878400
  10910  10913  10923     1   112.3500484 533.878400
  10913  10914  10917     1   111.0400475 552.288000
  10913  10923  10926     1   111.0400475 552.288000
  10914  10913  10923     1   112.3500484 533.878400
  10914  10917  10920     1   111.0400475 529.694400
  10917  10920  10921     1   123.2000528 564.003200
  10917  10920  10922     1   123.2000528 564.003200
  10921  10920  10922     1   130.2500561 651.867200
  10923  10926  10929     1   111.0400475 529.694400
  10926  10929  10930     1   123.2000528 564.003200
  10926  10929  10931     1   123.2000528 564.003200
  10930  10929  10931     1   130.2500561 651.867200
  10933  10936  10939     1   111.5100476 526.347200
  10936  10939  10942     1   111.0400475 552.288000
  10936  10933  10961     1   107.9700462 569.024000
  10939  10942  10943     1   112.3500484 533.878400
  10939  10942  10952     1   112.3500484 533.878400
  10942  10943  10946     1   111.0400475 552.288000
  10942  10952  10955     1   111.0400475 552.288000
  10943  10946  10949     1   111.0400475 529.694400
  10943  10942  10952     1   112.3500484 533.878400
  10946  10949  10950     1   123.2000528 564.003200
  10946  10949  10951     1   123.2000528 564.003200
  10950  10949  10951     1   130.2500561 651.867200
  10952  10955  10958     1   111.0400475 529.694400
  10955  10958  10959     1   123.2000528 564.003200
  10955  10958  10960     1   123.2000528 564.003200
  10959  10958  10960     1   130.2500561 651.867200
  10962  10965  10968     1   111.5100476 526.347200
  10965  10962  10990     1   107.9700462 569.024000
  10965  10968  10971     1   111.0400475 552.288000
  10968  10971  10972     1   112.3500484 533.878400
  10968  10971  10981     1   112.3500484 533.878400
  10971  10972  10975     1   111.0400475 552.288000
  10971  10981  10984     1   111.0400475 552.288000
  10972  10971  10981     1   112.3500484 533.878400
  10972  10975  10978     1   111.0400475 529.694400
  10975  10978  10979     1   123.2000528 564.003200
  10975  10978  10980     1   123.2000528 564.003200
  10979  10978  10980     1   130.2500561 651.867200
  10981  10984  10987     1   111.0400475 529.694400
  10984  10987  10988     1   123.2000528 564.003200
  10984  10987  10989     1   123.2000528 564.003200
  10988  10987  10989     1   130.2500561 651.867200
  10991  10994  10997     1   111.5100476 526.347200
  10994  10997  11000     1   111.0400475 552.288000
  10994  10991  11019     1   107.9700462 569.024000
  10997  11000  11001     1   112.3500484 533.878400
  10997  11000  11010     1   112.3500484 533.878400
  11000  11001  11004     1   111.0400475 552.288000
  11000  11010  11013     1   111.0400475 552.288000
  11001  11004  11007     1   111.0400475 529.694400
  11001  11000  11010     1   112.3500484 533.878400
  11004  11007  11008     1   123.2000528 564.003200
  11004  11007  11009     1   123.2000528 564.003200
  11008  11007  11009     1   130.2500561 651.867200
  11010  11013  11016     1   111.0400475 529.694400
  11013  11016  11017     1   123.2000528 564.003200
  11013  11016  11018     1   123.2000528 564.003200
  11017  11016  11018     1   130.2500561 651.867200
  11020  11023  11026     1   111.5100476 526.347200
  11023  11020  11048     1   107.9700462 569.024000
  11023  11026  11029     1   111.0400475 552.288000
  11026  11029  11030     1   112.3500484 533.878400
  11026  11029  11039     1   112.3500484 533.878400
  11029  11030  11033     1   111.0400475 552.288000
  11029  11039  11042     1   111.0400475 552.288000
  11030  11029  11039     1   112.3500484 533.878400
  11030  11033  11036     1   111.0400475 529.694400
  11033  11036  11037     1   123.2000528 564.003200
  11033  11036  11038     1   123.2000528 564.003200
  11037  11036  11038     1   130.2500561 651.867200
  11039  11042  11045     1   111.0400475 529.694400
  11042  11045  11046     1   123.2000528 564.003200
  11042  11045  11047     1   123.2000528 564.003200
  11046  11045  11047     1   130.2500561 651.867200
  11049  11052  11055     1   111.5100476 526.347200
  11052  11055  11058     1   111.0400475 552.288000
  11052  11049  11077     1   107.9700462 569.024000
  11055  11058  11059     1   112.3500484 533.878400
  11055  11058  11068     1   112.3500484 533.878400
  11058  11059  11062     1   111.0400475 552.288000
  11058  11068  11071     1   111.0400475 552.288000
  11059  11062  11065     1   111.0400475 529.694400
  11059  11058  11068     1   112.3500484 533.878400
  11062  11065  11066     1   123.2000528 564.003200
  11062  11065  11067     1   123.2000528 564.003200
  11066  11065  11067     1   130.2500561 651.867200
  11068  11071  11074     1   111.0400475 529.694400
  11071  11074  11075     1   123.2000528 564.003200
  11071  11074  11076     1   123.2000528 564.003200
  11075  11074  11076     1   130.2500561 651.867200
      1      2      3     1   109.8800469 414.216000
      1      2      4     1   109.8800469 414.216000
      1      5      6     1   109.8800469 414.216000
      1      5      7     1   109.8800469 414.216000
      1      8      9     1   109.8800469 414.216000
      1      8     10     1   109.8800469 414.216000
      2     14     15     1   109.8000471 387.438400
      2     14     16     1   109.8000471 387.438400
      3      2     14     1   109.5600471 388.275200
      3      2      4     1   108.4600466 328.025600
      4      2     14     1   109.5600471 388.275200
      5     17     18     1   109.8000471 387.438400
      5     17     19     1   109.8000471 387.438400
      6      5     17     1   109.5600471 388.275200
      6      5      7     1   108.4600466 328.025600
      7      5     17     1   109.5600471 388.275200
      8     11     12     1   109.8000471 387.438400
      8     11     13     1   109.8000471 387.438400
      9      8     11     1   109.5600471 388.275200
      9      8     10     1   108.4600466 328.025600
     10      8     11     1   109.5600471 388.275200
     11     23     24     1   109.5600471 388.275200
     11     23     25     1   109.5600471 388.275200
     12     11     23     1   109.8000471 387.438400
     12     11     13     1   107.5800459 329.699200
     13     11     23     1   109.8000471 387.438400
     14     26     27     1   109.5600471 388.275200
     14     26     28     1   109.5600471 388.275200
     15     14     26     1   109.8000471 387.438400
     15     14     16     1   107.5800459 329.699200
     16     14     26     1   109.8000471 387.438400
     17     20     21     1   109.5600471 388.275200
     17     20     22     1   109.5600471 388.275200
     18     17     20     1   109.8000471 387.438400
     18     17     19     1   107.5800459 329.699200
     19     17     20     1   109.8000471 387.438400
     21     20     57     1   109.7800468 425.094400
     21     20     22     1   108.4600466 328.025600
     22     20     57     1   109.7800468 425.094400
     24     23     86     1   109.7800468 425.094400
     24     23     25     1   108.4600466 328.025600
     25     23     86     1   109.7800468 425.094400
     27     26    115     1   109.7800468 425.094400
     27     26     28     1   108.4600466 328.025600
     28     26    115     1   109.7800468 425.094400
     29     30     31     1   109.8800469 414.216000
     29     30     32     1   109.8800469 414.216000
     29     33     34     1   109.8800469 414.216000
     29     33     35     1   109.8800469 414.216000
     29     36     37     1   109.8800469 414.216000
     29     36     38     1   109.8800469 414.216000
     30     42     43     1   109.8000471 387.438400
     30     42     44     1   109.8000471 387.438400
     31     30     42     1   109.5600471 388.275200
     31     30     32     1   108.4600466 328.025600
     32     30     42     1   109.5600471 388.275200
     33     45     46     1   109.8000471 387.438400
     33     45     47     1   109.8000471 387.438400
     34     33     45     1   109.5600471 388.275200
     34     33     35     1   108.4600466 328.025600
     35     33     45     1   109.5600471 388.275200
     36     39     40     1   109.8000471 387.438400
     36     39     41     1   109.8000471 387.438400
     37     36     39     1   109.5600471 388.275200
     37     36     38     1   108.4600466 328.025600
     38     36     39     1   109.5600471 388.275200
     39     48     49     1   109.5600471 388.275200
     39     48     50     1   109.5600471 388.275200
     40     39     48     1   109.8000471 387.438400
     40     39     41     1   107.5800459 329.699200
     41     39     48     1   109.8000471 387.438400
     42     54     55     1   109.5600471 388.275200
     42     54     56     1   109.5600471 388.275200
     43     42     54     1   109.8000471 387.438400
     43     42     44     1   107.5800459 329.699200
     44     42     54     1   109.8000471 387.438400
     45     51     52     1   109.5600471 388.275200
     45     51     53     1   109.5600471 388.275200
     46     45     51     1   109.8000471 387.438400
     46     45     47     1   107.5800459 329.699200
     47     45     51     1   109.8000471 387.438400
     49     48     57     1   109.7800468 425.094400
     49     48     50     1   108.4600466 328.025600
     50     48     57     1   109.7800468 425.094400
     52     51    144     1   109.7800468 425.094400
     52     51     53     1   108.4600466 328.025600
     53     51    144     1   109.7800468 425.094400
     55     54    173     1   109.7800468 425.094400
     55     54     56     1   108.4600466 328.025600
     56     54    173     1   109.7800468 425.094400
     58     59     60     1   109.8800469 414.216000
     58     59     61     1   109.8800469 414.216000
     58     62     63     1   109.8800469 414.216000
     58     62     64     1   109.8800469 414.216000
     58     65     66     1   109.8800469 414.216000
     58     65     67     1   109.8800469 414.216000
     59     71     72     1   109.8000471 387.438400
     59     71     73     1   109.8000471 387.438400
     60     59     71     1   109.5600471 388.275200
     60     59     61     1   108.4600466 328.025600
     61     59     71     1   109.5600471 388.275200
     62     74     75     1   109.8000471 387.438400
     62     74     76     1   109.8000471 387.438400
     63     62     74     1   109.5600471 388.275200
     63     62     64     1   108.4600466 328.025600
     64     62     74     1   109.5600471 388.275200
     65     68     69     1   109.8000471 387.438400
     65     68     70     1   109.8000471 387.438400
     66     65     68     1   109.5600471 388.275200
     66     65     67     1   108.4600466 328.025600
     67     65     68     1   109.5600471 388.275200
     68     77     78     1   109.5600471 388.275200
     68     77     79     1   109.5600471 388.275200
     69     68     77     1   109.8000471 387.438400
     69     68     70     1   107.5800459 329.699200
     70     68     77     1   109.8000471 387.438400
     71     83     84     1   109.5600471 388.275200
     71     83     85     1   109.5600471 388.275200
     72     71     83     1   109.8000471 387.438400
     72     71     73     1   107.5800459 329.699200
     73     71     83     1   109.8000471 387.438400
     74     80     81     1   109.5600471 388.275200
     74     80     82     1   109.5600471 388.275200
     75     74     80     1   109.8000471 387.438400
     75     74     76     1   107.5800459 329.699200
     76     74     80     1   109.8000471 387.438400
     78     77     86     1   109.7800468 425.094400
     78     77     79     1   108.4600466 328.025600
     79     77     86     1   109.7800468 425.094400
     81     80    202     1   109.7800468 425.094400
     81     80     82     1   108.4600466 328.025600
     82     80    202     1   109.7800468 425.094400
     84     83    231     1   109.7800468 425.094400
     84     83     85     1   108.4600466 328.025600
     85     83    231     1   109.7800468 425.094400
     87     88     89     1   109.8800469 414.216000
     87     88     90     1   109.8800469 414.216000
     87     91     92     1   109.8800469 414.216000
     87     91     93     1   109.8800469 414.216000
     87     94     95     1   109.8800469 414.216000
     87     94     96     1   109.8800469 414.216000
     88    100    101     1   109.8000471 387.438400
     88    100    102     1   109.8000471 387.438400
     89     88    100     1   109.5600471 388.275200
     89     88     90     1   108.4600466 328.025600
     90     88    100     1   109.5600471 388.275200
     91    103    104     1   109.8000471 387.438400
     91    103    105     1   109.8000471 387.438400
     92     91    103     1   109.5600471 388.275200
     92     91     93     1   108.4600466 328.025600
     93     91    103     1   109.5600471 388.275200
     94     97     98     1   109.8000471 387.438400
     94     97     99     1   109.8000471 387.438400
     95     94     97     1   109.5600471 388.275200
     95     94     96     1   108.4600466 328.025600
     96     94     97     1   109.5600471 388.275200
     97    106    107     1   109.5600471 388.275200
     97    106    108     1   109.5600471 388.275200
     98     97    106     1   109.8000471 387.438400
     98     97     99     1   107.5800459 329.699200
     99     97    106     1   109.8000471 387.438400
    100    112    113     1   109.5600471 388.275200
    100    112    114     1   109.5600471 388.275200
    101    100    112     1   109.8000471 387.438400
    101    100    102     1   107.5800459 329.699200
    102    100    112     1   109.8000471 387.438400
    103    109    110     1   109.5600471 388.275200
    103    109    111     1   109.5600471 388.275200
    104    103    109     1   109.8000471 387.438400
    104    103    105     1   107.5800459 329.699200
    105    103    109     1   109.8000471 387.438400
    107    106    115     1   109.7800468 425.094400
    107    106    108     1   108.4600466 328.025600
    108    106    115     1   109.7800468 425.094400
    110    109    260     1   109.7800468 425.094400
    110    109    111     1   108.4600466 328.025600
    111    109    260     1   109.7800468 425.094400
    113    112    289     1   109.7800468 425.094400
    113    112    114     1   108.4600466 328.025600
    114    112    289     1   109.7800468 425.094400
    116    117    118     1   109.8800469 414.216000
    116    117    119     1   109.8800469 414.216000
    116    120    121     1   109.8800469 414.216000
    116    120    122     1   109.8800469 414.216000
    116    123    124     1   109.8800469 414.216000
    116    123    125     1   109.8800469 414.216000
    117    129    130     1   109.8000471 387.438400
    117    129    131     1   109.8000471 387.438400
    118    117    129     1   109.5600471 388.275200
    118    117    119     1   108.4600466 328.025600
    119    117    129     1   109.5600471 388.275200
    120    132    133     1   109.8000471 387.438400
    120    132    134     1   109.8000471 387.438400
    121    120    132     1   109.5600471 388.275200
    121    120    122     1   108.4600466 328.025600
    122    120    132     1   109.5600471 388.275200
    123    126    127     1   109.8000471 387.438400
    123    126    128     1   109.8000471 387.438400
    124    123    126     1   109.5600471 388.275200
    124    123    125     1   108.4600466 328.025600
    125    123    126     1   109.5600471 388.275200
    126    135    136     1   109.5600471 388.275200
    126    135    137     1   109.5600471 388.275200
    127    126    135     1   109.8000471 387.438400
    127    126    128     1   107.5800459 329.699200
    128    126    135     1   109.8000471 387.438400
    129    141    142     1   109.5600471 388.275200
    129    141    143     1   109.5600471 388.275200
    130    129    141     1   109.8000471 387.438400
    130    129    131     1   107.5800459 329.699200
    131    129    141     1   109.8000471 387.438400
    132    138    139     1   109.5600471 388.275200
    132    138    140     1   109.5600471 388.275200
    133    132    138     1   109.8000471 387.438400
    133    132    134     1   107.5800459 329.699200
    134    132    138     1   109.8000471 387.438400
    136    135    144     1   109.7800468 425.094400
    136    135    137     1   108.4600466 328.025600
    137    135    144     1   109.7800468 425.094400
    139    138    318     1   109.7800468 425.094400
    139    138    140     1   108.4600466 328.025600
    140    138    318     1   109.7800468 425.094400
    142    141    347     1   109.7800468 425.094400
    142    141    143     1   108.4600466 328.025600
    143    141    347     1   109.7800468 425.094400
    145    146    147     1   109.8800469 414.216000
    145    146    148     1   109.8800469 414.216000
    145    149    150     1   109.8800469 414.216000
    145    149    151     1   109.8800469 414.216000
    145    152    153     1   109.8800469 414.216000
    145    152    154     1   109.8800469 414.216000
    146    158    159     1   109.8000471 387.438400
    146    158    160     1   109.8000471 387.438400
    147    146    158     1   109.5600471 388.275200
    147    146    148     1   108.4600466 328.025600
    148    146    158     1   109.5600471 388.275200
    149    161    162     1   109.8000471 387.438400
    149    161    163     1   109.8000471 387.438400
    150    149    161     1   109.5600471 388.275200
    150    149    151     1   108.4600466 328.025600
    151    149    161     1   109.5600471 388.275200
    152    155    156     1   109.8000471 387.438400
    152    155    157     1   109.8000471 387.438400
    153    152    155     1   109.5600471 388.275200
    153    152    154     1   108.4600466 328.025600
    154    152    155     1   109.5600471 388.275200
    155    164    165     1   109.5600471 388.275200
    155    164    166     1   109.5600471 388.275200
    156    155    164     1   109.8000471 387.438400
    156    155    157     1   107.5800459 329.699200
    157    155    164     1   109.8000471 387.438400
    158    170    171     1   109.5600471 388.275200
    158    170    172     1   109.5600471 388.275200
    159    158    170     1   109.8000471 387.438400
    159    158    160     1   107.5800459 329.699200
    160    158    170     1   109.8000471 387.438400
    161    167    168     1   109.5600471 388.275200
    161    167    169     1   109.5600471 388.275200
    162    161    167     1   109.8000471 387.438400
    162    161    163     1   107.5800459 329.699200
    163    161    167     1   109.8000471 387.438400
    165    164    173     1   109.7800468 425.094400
    165    164    166     1   108.4600466 328.025600
    166    164    173     1   109.7800468 425.094400
    168    167    376     1   109.7800468 425.094400
    168    167    169     1   108.4600466 328.025600
    169    167    376     1   109.7800468 425.094400
    171    170    405     1   109.7800468 425.094400
    171    170    172     1   108.4600466 328.025600
    172    170    405     1   109.7800468 425.094400
    174    175    176     1   109.8800469 414.216000
    174    175    177     1   109.8800469 414.216000
    174    178    179     1   109.8800469 414.216000
    174    178    180     1   109.8800469 414.216000
    174    181    182     1   109.8800469 414.216000
    174    181    183     1   109.8800469 414.216000
    175    187    188     1   109.8000471 387.438400
    175    187    189     1   109.8000471 387.438400
    176    175    187     1   109.5600471 388.275200
    176    175    177     1   108.4600466 328.025600
    177    175    187     1   109.5600471 388.275200
    178    190    191     1   109.8000471 387.438400
    178    190    192     1   109.8000471 387.438400
    179    178    190     1   109.5600471 388.275200
    179    178    180     1   108.4600466 328.025600
    180    178    190     1   109.5600471 388.275200
    181    184    185     1   109.8000471 387.438400
    181    184    186     1   109.8000471 387.438400
    182    181    184     1   109.5600471 388.275200
    182    181    183     1   108.4600466 328.025600
    183    181    184     1   109.5600471 388.275200
    184    193    194     1   109.5600471 388.275200
    184    193    195     1   109.5600471 388.275200
    185    184    193     1   109.8000471 387.438400
    185    184    186     1   107.5800459 329.699200
    186    184    193     1   109.8000471 387.438400
    187    199    200     1   109.5600471 388.275200
    187    199    201     1   109.5600471 388.275200
    188    187    199     1   109.8000471 387.438400
    188    187    189     1   107.5800459 329.699200
    189    187    199     1   109.8000471 387.438400
    190    196    197     1   109.5600471 388.275200
    190    196    198     1   109.5600471 388.275200
    191    190    196     1   109.8000471 387.438400
    191    190    192     1   107.5800459 329.699200
    192    190    196     1   109.8000471 387.438400
    194    193    202     1   109.7800468 425.094400
    194    193    195     1   108.4600466 328.025600
    195    193    202     1   109.7800468 425.094400
    197    196    434     1   109.7800468 425.094400
    197    196    198     1   108.4600466 328.025600
    198    196    434     1   109.7800468 425.094400
    200    199    463     1   109.7800468 425.094400
    200    199    201     1   108.4600466 328.025600
    201    199    463     1   109.7800468 425.094400
    203    204    205     1   109.8800469 414.216000
    203    204    206     1   109.8800469 414.216000
    203    207    208     1   109.8800469 414.216000
    203    207    209     1   109.8800469 414.216000
    203    210    211     1   109.8800469 414.216000
    203    210    212     1   109.8800469 414.216000
    204    216    217     1   109.8000471 387.438400
    204    216    218     1   109.8000471 387.438400
    205    204    216     1   109.5600471 388.275200
    205    204    206     1   108.4600466 328.025600
    206    204    216     1   109.5600471 388.275200
    207    219    220     1   109.8000471 387.438400
    207    219    221     1   109.8000471 387.438400
    208    207    219     1   109.5600471 388.275200
    208    207    209     1   108.4600466 328.025600
    209    207    219     1   109.5600471 388.275200
    210    213    214     1   109.8000471 387.438400
    210    213    215     1   109.8000471 387.438400
    211    210    213     1   109.5600471 388.275200
    211    210    212     1   108.4600466 328.025600
    212    210    213     1   109.5600471 388.275200
    213    222    223     1   109.5600471 388.275200
    213    222    224     1   109.5600471 388.275200
    214    213    222     1   109.8000471 387.438400
    214    213    215     1   107.5800459 329.699200
    215    213    222     1   109.8000471 387.438400
    216    228    229     1   109.5600471 388.275200
    216    228    230     1   109.5600471 388.275200
    217    216    228     1   109.8000471 387.438400
    217    216    218     1   107.5800459 329.699200
    218    216    228     1   109.8000471 387.438400
    219    225    226     1   109.5600471 388.275200
    219    225    227     1   109.5600471 388.275200
    220    219    225     1   109.8000471 387.438400
    220    219    221     1   107.5800459 329.699200
    221    219    225     1   109.8000471 387.438400
    223    222    231     1   109.7800468 425.094400
    223    222    224     1   108.4600466 328.025600
    224    222    231     1   109.7800468 425.094400
    226    225    492     1   109.7800468 425.094400
    226    225    227     1   108.4600466 328.025600
    227    225    492     1   109.7800468 425.094400
    229    228    521     1   109.7800468 425.094400
    229    228    230     1   108.4600466 328.025600
    230    228    521     1   109.7800468 425.094400
    232    233    234     1   109.8800469 414.216000
    232    233    235     1   109.8800469 414.216000
    232    236    237     1   109.8800469 414.216000
    232    236    238     1   109.8800469 414.216000
    232    239    240     1   109.8800469 414.216000
    232    239    241     1   109.8800469 414.216000
    233    245    246     1   109.8000471 387.438400
    233    245    247     1   109.8000471 387.438400
    234    233    245     1   109.5600471 388.275200
    234    233    235     1   108.4600466 328.025600
    235    233    245     1   109.5600471 388.275200
    236    248    249     1   109.8000471 387.438400
    236    248    250     1   109.8000471 387.438400
    237    236    248     1   109.5600471 388.275200
    237    236    238     1   108.4600466 328.025600
    238    236    248     1   109.5600471 388.275200
    239    242    243     1   109.8000471 387.438400
    239    242    244     1   109.8000471 387.438400
    240    239    242     1   109.5600471 388.275200
    240    239    241     1   108.4600466 328.025600
    241    239    242     1   109.5600471 388.275200
    242    251    252     1   109.5600471 388.275200
    242    251    253     1   109.5600471 388.275200
    243    242    251     1   109.8000471 387.438400
    243    242    244     1   107.5800459 329.699200
    244    242    251     1   109.8000471 387.438400
    245    257    258     1   109.5600471 388.275200
    245    257    259     1   109.5600471 388.275200
    246    245    257     1   109.8000471 387.438400
    246    245    247     1   107.5800459 329.699200
    247    245    257     1   109.8000471 387.438400
    248    254    255     1   109.5600471 388.275200
    248    254    256     1   109.5600471 388.275200
    249    248    254     1   109.8000471 387.438400
    249    248    250     1   107.5800459 329.699200
    250    248    254     1   109.8000471 387.438400
    252    251    260     1   109.7800468 425.094400
    252    251    253     1   108.4600466 328.025600
    253    251    260     1   109.7800468 425.094400
    255    254    550     1   109.7800468 425.094400
    255    254    256     1   108.4600466 328.025600
    256    254    550     1   109.7800468 425.094400
    258    257    579     1   109.7800468 425.094400
    258    257    259     1   108.4600466 328.025600
    259    257    579     1   109.7800468 425.094400
    261    262    263     1   109.8800469 414.216000
    261    262    264     1   109.8800469 414.216000
    261    265    266     1   109.8800469 414.216000
    261    265    267     1   109.8800469 414.216000
    261    268    269     1   109.8800469 414.216000
    261    268    270     1   109.8800469 414.216000
    262    274    275     1   109.8000471 387.438400
    262    274    276     1   109.8000471 387.438400
    263    262    274     1   109.5600471 388.275200
    263    262    264     1   108.4600466 328.025600
    264    262    274     1   109.5600471 388.275200
    265    277    278     1   109.8000471 387.438400
    265    277    279     1   109.8000471 387.438400
    266    265    277     1   109.5600471 388.275200
    266    265    267     1   108.4600466 328.025600
    267    265    277     1   109.5600471 388.275200
    268    271    272     1   109.8000471 387.438400
    268    271    273     1   109.8000471 387.438400
    269    268    271     1   109.5600471 388.275200
    269    268    270     1   108.4600466 328.025600
    270    268    271     1   109.5600471 388.275200
    271    280    281     1   109.5600471 388.275200
    271    280    282     1   109.5600471 388.275200
    272    271    280     1   109.8000471 387.438400
    272    271    273     1   107.5800459 329.699200
    273    271    280     1   109.8000471 387.438400
    274    286    287     1   109.5600471 388.275200
    274    286    288     1   109.5600471 388.275200
    275    274    286     1   109.8000471 387.438400
    275    274    276     1   107.5800459 329.699200
    276    274    286     1   109.8000471 387.438400
    277    283    284     1   109.5600471 388.275200
    277    283    285     1   109.5600471 388.275200
    278    277    283     1   109.8000471 387.438400
    278    277    279     1   107.5800459 329.699200
    279    277    283     1   109.8000471 387.438400
    281    280    289     1   109.7800468 425.094400
    281    280    282     1   108.4600466 328.025600
    282    280    289     1   109.7800468 425.094400
    284    283    608     1   109.7800468 425.094400
    284    283    285     1   108.4600466 328.025600
    285    283    608     1   109.7800468 425.094400
    287    286    637     1   109.7800468 425.094400
    287    286    288     1   108.4600466 328.025600
    288    286    637     1   109.7800468 425.094400
    290    291    292     1   109.8800469 414.216000
    290    291    293     1   109.8800469 414.216000
    290    294    295     1   109.8800469 414.216000
    290    294    296     1   109.8800469 414.216000
    290    297    298     1   109.8800469 414.216000
    290    297    299     1   109.8800469 414.216000
    291    303    304     1   109.8000471 387.438400
    291    303    305     1   109.8000471 387.438400
    292    291    303     1   109.5600471 388.275200
    292    291    293     1   108.4600466 328.025600
    293    291    303     1   109.5600471 388.275200
    294    306    307     1   109.8000471 387.438400
    294    306    308     1   109.8000471 387.438400
    295    294    306     1   109.5600471 388.275200
    295    294    296     1   108.4600466 328.025600
    296    294    306     1   109.5600471 388.275200
    297    300    301     1   109.8000471 387.438400
    297    300    302     1   109.8000471 387.438400
    298    297    300     1   109.5600471 388.275200
    298    297    299     1   108.4600466 328.025600
    299    297    300     1   109.5600471 388.275200
    300    309    310     1   109.5600471 388.275200
    300    309    311     1   109.5600471 388.275200
    301    300    309     1   109.8000471 387.438400
    301    300    302     1   107.5800459 329.699200
    302    300    309     1   109.8000471 387.438400
    303    315    316     1   109.5600471 388.275200
    303    315    317     1   109.5600471 388.275200
    304    303    315     1   109.8000471 387.438400
    304    303    305     1   107.5800459 329.699200
    305    303    315     1   109.8000471 387.438400
    306    312    313     1   109.5600471 388.275200
    306    312    314     1   109.5600471 388.275200
    307    306    312     1   109.8000471 387.438400
    307    306    308     1   107.5800459 329.699200
    308    306    312     1   109.8000471 387.438400
    310    309    318     1   109.7800468 425.094400
    310    309    311     1   108.4600466 328.025600
    311    309    318     1   109.7800468 425.094400
    313    312    666     1   109.7800468 425.094400
    313    312    314     1   108.4600466 328.025600
    314    312    666     1   109.7800468 425.094400
    316    315    695     1   109.7800468 425.094400
    316    315    317     1   108.4600466 328.025600
    317    315    695     1   109.7800468 425.094400
    319    320    321     1   109.8800469 414.216000
    319    320    322     1   109.8800469 414.216000
    319    323    324     1   109.8800469 414.216000
    319    323    325     1   109.8800469 414.216000
    319    326    327     1   109.8800469 414.216000
    319    326    328     1   109.8800469 414.216000
    320    332    333     1   109.8000471 387.438400
    320    332    334     1   109.8000471 387.438400
    321    320    332     1   109.5600471 388.275200
    321    320    322     1   108.4600466 328.025600
    322    320    332     1   109.5600471 388.275200
    323    335    336     1   109.8000471 387.438400
    323    335    337     1   109.8000471 387.438400
    324    323    335     1   109.5600471 388.275200
    324    323    325     1   108.4600466 328.025600
    325    323    335     1   109.5600471 388.275200
    326    329    330     1   109.8000471 387.438400
    326    329    331     1   109.8000471 387.438400
    327    326    329     1   109.5600471 388.275200
    327    326    328     1   108.4600466 328.025600
    328    326    329     1   109.5600471 388.275200
    329    338    339     1   109.5600471 388.275200
    329    338    340     1   109.5600471 388.275200
    330    329    338     1   109.8000471 387.438400
    330    329    331     1   107.5800459 329.699200
    331    329    338     1   109.8000471 387.438400
    332    344    345     1   109.5600471 388.275200
    332    344    346     1   109.5600471 388.275200
    333    332    344     1   109.8000471 387.438400
    333    332    334     1   107.5800459 329.699200
    334    332    344     1   109.8000471 387.438400
    335    341    342     1   109.5600471 388.275200
    335    341    343     1   109.5600471 388.275200
    336    335    341     1   109.8000471 387.438400
    336    335    337     1   107.5800459 329.699200
    337    335    341     1   109.8000471 387.438400
    339    338    347     1   109.7800468 425.094400
    339    338    340     1   108.4600466 328.025600
    340    338    347     1   109.7800468 425.094400
    342    341    724     1   109.7800468 425.094400
    342    341    343     1   108.4600466 328.025600
    343    341    724     1   109.7800468 425.094400
    345    344    753     1   109.7800468 425.094400
    345    344    346     1   108.4600466 328.025600
    346    344    753     1   109.7800468 425.094400
    348    349    350     1   109.8800469 414.216000
    348    349    351     1   109.8800469 414.216000
    348    352    353     1   109.8800469 414.216000
    348    352    354     1   109.8800469 414.216000
    348    355    356     1   109.8800469 414.216000
    348    355    357     1   109.8800469 414.216000
    349    361    362     1   109.8000471 387.438400
    349    361    363     1   109.8000471 387.438400
    350    349    361     1   109.5600471 388.275200
    350    349    351     1   108.4600466 328.025600
    351    349    361     1   109.5600471 388.275200
    352    364    365     1   109.8000471 387.438400
    352    364    366     1   109.8000471 387.438400
    353    352    364     1   109.5600471 388.275200
    353    352    354     1   108.4600466 328.025600
    354    352    364     1   109.5600471 388.275200
    355    358    359     1   109.8000471 387.438400
    355    358    360     1   109.8000471 387.438400
    356    355    358     1   109.5600471 388.275200
    356    355    357     1   108.4600466 328.025600
    357    355    358     1   109.5600471 388.275200
    358    367    368     1   109.5600471 388.275200
    358    367    369     1   109.5600471 388.275200
    359    358    367     1   109.8000471 387.438400
    359    358    360     1   107.5800459 329.699200
    360    358    367     1   109.8000471 387.438400
    361    373    374     1   109.5600471 388.275200
    361    373    375     1   109.5600471 388.275200
    362    361    373     1   109.8000471 387.438400
    362    361    363     1   107.5800459 329.699200
    363    361    373     1   109.8000471 387.438400
    364    370    371     1   109.5600471 388.275200
    364    370    372     1   109.5600471 388.275200
    365    364    370     1   109.8000471 387.438400
    365    364    366     1   107.5800459 329.699200
    366    364    370     1   109.8000471 387.438400
    368    367    376     1   109.7800468 425.094400
    368    367    369     1   108.4600466 328.025600
    369    367    376     1   109.7800468 425.094400
    371    370    782     1   109.7800468 425.094400
    371    370    372     1   108.4600466 328.025600
    372    370    782     1   109.7800468 425.094400
    374    373    811     1   109.7800468 425.094400
    374    373    375     1   108.4600466 328.025600
    375    373    811     1   109.7800468 425.094400
    377    378    379     1   109.8800469 414.216000
    377    378    380     1   109.8800469 414.216000
    377    381    382     1   109.8800469 414.216000
    377    381    383     1   109.8800469 414.216000
    377    384    385     1   109.8800469 414.216000
    377    384    386     1   109.8800469 414.216000
    378    390    391     1   109.8000471 387.438400
    378    390    392     1   109.8000471 387.438400
    379    378    390     1   109.5600471 388.275200
    379    378    380     1   108.4600466 328.025600
    380    378    390     1   109.5600471 388.275200
    381    393    394     1   109.8000471 387.438400
    381    393    395     1   109.8000471 387.438400
    382    381    393     1   109.5600471 388.275200
    382    381    383     1   108.4600466 328.025600
    383    381    393     1   109.5600471 388.275200
    384    387    388     1   109.8000471 387.438400
    384    387    389     1   109.8000471 387.438400
    385    384    387     1   109.5600471 388.275200
    385    384    386     1   108.4600466 328.025600
    386    384    387     1   109.5600471 388.275200
    387    396    397     1   109.5600471 388.275200
    387    396    398     1   109.5600471 388.275200
    388    387    396     1   109.8000471 387.438400
    388    387    389     1   107.5800459 329.699200
    389    387    396     1   109.8000471 387.438400
    390    402    403     1   109.5600471 388.275200
    390    402    404     1   109.5600471 388.275200
    391    390    402     1   109.8000471 387.438400
    391    390    392     1   107.5800459 329.699200
    392    390    402     1   109.8000471 387.438400
    393    399    400     1   109.5600471 388.275200
    393    399    401     1   109.5600471 388.275200
    394    393    399     1   109.8000471 387.438400
    394    393    395     1   107.5800459 329.699200
    395    393    399     1   109.8000471 387.438400
    397    396    405     1   109.7800468 425.094400
    397    396    398     1   108.4600466 328.025600
    398    396    405     1   109.7800468 425.094400
    400    399    840     1   109.7800468 425.094400
    400    399    401     1   108.4600466 328.025600
    401    399    840     1   109.7800468 425.094400
    403    402    869     1   109.7800468 425.094400
    403    402    404     1   108.4600466 328.025600
    404    402    869     1   109.7800468 425.094400
    406    407    408     1   109.8800469 414.216000
    406    407    409     1   109.8800469 414.216000
    406    410    411     1   109.8800469 414.216000
    406    410    412     1   109.8800469 414.216000
    406    413    414     1   109.8800469 414.216000
    406    413    415     1   109.8800469 414.216000
    407    419    420     1   109.8000471 387.438400
    407    419    421     1   109.8000471 387.438400
    408    407    419     1   109.5600471 388.275200
    408    407    409     1   108.4600466 328.025600
    409    407    419     1   109.5600471 388.275200
    410    422    423     1   109.8000471 387.438400
    410    422    424     1   109.8000471 387.438400
    411    410    422     1   109.5600471 388.275200
    411    410    412     1   108.4600466 328.025600
    412    410    422     1   109.5600471 388.275200
    413    416    417     1   109.8000471 387.438400
    413    416    418     1   109.8000471 387.438400
    414    413    416     1   109.5600471 388.275200
    414    413    415     1   108.4600466 328.025600
    415    413    416     1   109.5600471 388.275200
    416    425    426     1   109.5600471 388.275200
    416    425    427     1   109.5600471 388.275200
    417    416    425     1   109.8000471 387.438400
    417    416    418     1   107.5800459 329.699200
    418    416    425     1   109.8000471 387.438400
    419    431    432     1   109.5600471 388.275200
    419    431    433     1   109.5600471 388.275200
    420    419    431     1   109.8000471 387.438400
    420    419    421     1   107.5800459 329.699200
    421    419    431     1   109.8000471 387.438400
    422    428    429     1   109.5600471 388.275200
    422    428    430     1   109.5600471 388.275200
    423    422    428     1   109.8000471 387.438400
    423    422    424     1   107.5800459 329.699200
    424    422    428     1   109.8000471 387.438400
    426    425    434     1   109.7800468 425.094400
    426    425    427     1   108.4600466 328.025600
    427    425    434     1   109.7800468 425.094400
    429    428    898     1   109.7800468 425.094400
    429    428    430     1   108.4600466 328.025600
    430    428    898     1   109.7800468 425.094400
    432    431    927     1   109.7800468 425.094400
    432    431    433     1   108.4600466 328.025600
    433    431    927     1   109.7800468 425.094400
    435    436    437     1   109.8800469 414.216000
    435    436    438     1   109.8800469 414.216000
    435    439    440     1   109.8800469 414.216000
    435    439    441     1   109.8800469 414.216000
    435    442    443     1   109.8800469 414.216000
    435    442    444     1   109.8800469 414.216000
    436    448    449     1   109.8000471 387.438400
    436    448    450     1   109.8000471 387.438400
    437    436    448     1   109.5600471 388.275200
    437    436    438     1   108.4600466 328.025600
    438    436    448     1   109.5600471 388.275200
    439    451    452     1   109.8000471 387.438400
    439    451    453     1   109.8000471 387.438400
    440    439    451     1   109.5600471 388.275200
    440    439    441     1   108.4600466 328.025600
    441    439    451     1   109.5600471 388.275200
    442    445    446     1   109.8000471 387.438400
    442    445    447     1   109.8000471 387.438400
    443    442    445     1   109.5600471 388.275200
    443    442    444     1   108.4600466 328.025600
    444    442    445     1   109.5600471 388.275200
    445    454    455     1   109.5600471 388.275200
    445    454    456     1   109.5600471 388.275200
    446    445    454     1   109.8000471 387.438400
    446    445    447     1   107.5800459 329.699200
    447    445    454     1   109.8000471 387.438400
    448    460    461     1   109.5600471 388.275200
    448    460    462     1   109.5600471 388.275200
    449    448    460     1   109.8000471 387.438400
    449    448    450     1   107.5800459 329.699200
    450    448    460     1   109.8000471 387.438400
    451    457    458     1   109.5600471 388.275200
    451    457    459     1   109.5600471 388.275200
    452    451    457     1   109.8000471 387.438400
    452    451    453     1   107.5800459 329.699200
    453    451    457     1   109.8000471 387.438400
    455    454    463     1   109.7800468 425.094400
    455    454    456     1   108.4600466 328.025600
    456    454    463     1   109.7800468 425.094400
    458    457    956     1   109.7800468 425.094400
    458    457    459     1   108.4600466 328.025600
    459    457    956     1   109.7800468 425.094400
    461    460    985     1   109.7800468 425.094400
    461    460    462     1   108.4600466 328.025600
    462    460    985     1   109.7800468 425.094400
    464    465    466     1   109.8800469 414.216000
    464    465    467     1   109.8800469 414.216000
    464    468    469     1   109.8800469 414.216000
    464    468    470     1   109.8800469 414.216000
    464    471    472     1   109.8800469 414.216000
    464    471    473     1   109.8800469 414.216000
    465    477    478     1   109.8000471 387.438400
    465    477    479     1   109.8000471 387.438400
    466    465    477     1   109.5600471 388.275200
    466    465    467     1   108.4600466 328.025600
    467    465    477     1   109.5600471 388.275200
    468    480    481     1   109.8000471 387.438400
    468    480    482     1   109.8000471 387.438400
    469    468    480     1   109.5600471 388.275200
    469    468    470     1   108.4600466 328.025600
    470    468    480     1   109.5600471 388.275200
    471    474    475     1   109.8000471 387.438400
    471    474    476     1   109.8000471 387.438400
    472    471    474     1   109.5600471 388.275200
    472    471    473     1   108.4600466 328.025600
    473    471    474     1   109.5600471 388.275200
    474    483    484     1   109.5600471 388.275200
    474    483    485     1   109.5600471 388.275200
    475    474    483     1   109.8000471 387.438400
    475    474    476     1   107.5800459 329.699200
    476    474    483     1   109.8000471 387.438400
    477    489    490     1   109.5600471 388.275200
    477    489    491     1   109.5600471 388.275200
    478    477    489     1   109.8000471 387.438400
    478    477    479     1   107.5800459 329.699200
    479    477    489     1   109.8000471 387.438400
    480    486    487     1   109.5600471 388.275200
    480    486    488     1   109.5600471 388.275200
    481    480    486     1   109.8000471 387.438400
    481    480    482     1   107.5800459 329.699200
    482    480    486     1   109.8000471 387.438400
    484    483    492     1   109.7800468 425.094400
    484    483    485     1   108.4600466 328.025600
    485    483    492     1   109.7800468 425.094400
    487    486   1014     1   109.7800468 425.094400
    487    486    488     1   108.4600466 328.025600
    488    486   1014     1   109.7800468 425.094400
    490    489   1043     1   109.7800468 425.094400
    490    489    491     1   108.4600466 328.025600
    491    489   1043     1   109.7800468 425.094400
    493    494    495     1   109.8800469 414.216000
    493    494    496     1   109.8800469 414.216000
    493    497    498     1   109.8800469 414.216000
    493    497    499     1   109.8800469 414.216000
    493    500    501     1   109.8800469 414.216000
    493    500    502     1   109.8800469 414.216000
    494    506    507     1   109.8000471 387.438400
    494    506    508     1   109.8000471 387.438400
    495    494    506     1   109.5600471 388.275200
    495    494    496     1   108.4600466 328.025600
    496    494    506     1   109.5600471 388.275200
    497    509    510     1   109.8000471 387.438400
    497    509    511     1   109.8000471 387.438400
    498    497    509     1   109.5600471 388.275200
    498    497    499     1   108.4600466 328.025600
    499    497    509     1   109.5600471 388.275200
    500    503    504     1   109.8000471 387.438400
    500    503    505     1   109.8000471 387.438400
    501    500    503     1   109.5600471 388.275200
    501    500    502     1   108.4600466 328.025600
    502    500    503     1   109.5600471 388.275200
    503    512    513     1   109.5600471 388.275200
    503    512    514     1   109.5600471 388.275200
    504    503    512     1   109.8000471 387.438400
    504    503    505     1   107.5800459 329.699200
    505    503    512     1   109.8000471 387.438400
    506    518    519     1   109.5600471 388.275200
    506    518    520     1   109.5600471 388.275200
    507    506    518     1   109.8000471 387.438400
    507    506    508     1   107.5800459 329.699200
    508    506    518     1   109.8000471 387.438400
    509    515    516     1   109.5600471 388.275200
    509    515    517     1   109.5600471 388.275200
    510    509    515     1   109.8000471 387.438400
    510    509    511     1   107.5800459 329.699200
    511    509    515     1   109.8000471 387.438400
    513    512    521     1   109.7800468 425.094400
    513    512    514     1   108.4600466 328.025600
    514    512    521     1   109.7800468 425.094400
    516    515   1072     1   109.7800468 425.094400
    516    515    517     1   108.4600466 328.025600
    517    515   1072     1   109.7800468 425.094400
    519    518   1101     1   109.7800468 425.094400
    519    518    520     1   108.4600466 328.025600
    520    518   1101     1   109.7800468 425.094400
    522    523    524     1   109.8800469 414.216000
    522    523    525     1   109.8800469 414.216000
    522    526    527     1   109.8800469 414.216000
    522    526    528     1   109.8800469 414.216000
    522    529    530     1   109.8800469 414.216000
    522    529    531     1   109.8800469 414.216000
    523    535    536     1   109.8000471 387.438400
    523    535    537     1   109.8000471 387.438400
    524    523    535     1   109.5600471 388.275200
    524    523    525     1   108.4600466 328.025600
    525    523    535     1   109.5600471 388.275200
    526    538    539     1   109.8000471 387.438400
    526    538    540     1   109.8000471 387.438400
    527    526    538     1   109.5600471 388.275200
    527    526    528     1   108.4600466 328.025600
    528    526    538     1   109.5600471 388.275200
    529    532    533     1   109.8000471 387.438400
    529    532    534     1   109.8000471 387.438400
    530    529    532     1   109.5600471 388.275200
    530    529    531     1   108.4600466 328.025600
    531    529    532     1   109.5600471 388.275200
    532    541    542     1   109.5600471 388.275200
    532    541    543     1   109.5600471 388.275200
    533    532    541     1   109.8000471 387.438400
    533    532    534     1   107.5800459 329.699200
    534    532    541     1   109.8000471 387.438400
    535    547    548     1   109.5600471 388.275200
    535    547    549     1   109.5600471 388.275200
    536    535    547     1   109.8000471 387.438400
    536    535    537     1   107.5800459 329.699200
    537    535    547     1   109.8000471 387.438400
    538    544    545     1   109.5600471 388.275200
    538    544    546     1   109.5600471 388.275200
    539    538    544     1   109.8000471 387.438400
    539    538    540     1   107.5800459 329.699200
    540    538    544     1   109.8000471 387.438400
    542    541    550     1   109.7800468 425.094400
    542    541    543     1   108.4600466 328.025600
    543    541    550     1   109.7800468 425.094400
    545    544   1130     1   109.7800468 425.094400
    545    544    546     1   108.4600466 328.025600
    546    544   1130     1   109.7800468 425.094400
    548    547   1159     1   109.7800468 425.094400
    548    547    549     1   108.4600466 328.025600
    549    547   1159     1   109.7800468 425.094400
    551    552    553     1   109.8800469 414.216000
    551    552    554     1   109.8800469 414.216000
    551    555    556     1   109.8800469 414.216000
    551    555    557     1   109.8800469 414.216000
    551    558    559     1   109.8800469 414.216000
    551    558    560     1   109.8800469 414.216000
    552    564    565     1   109.8000471 387.438400
    552    564    566     1   109.8000471 387.438400
    553    552    564     1   109.5600471 388.275200
    553    552    554     1   108.4600466 328.025600
    554    552    564     1   109.5600471 388.275200
    555    567    568     1   109.8000471 387.438400
    555    567    569     1   109.8000471 387.438400
    556    555    567     1   109.5600471 388.275200
    556    555    557     1   108.4600466 328.025600
    557    555    567     1   109.5600471 388.275200
    558    561    562     1   109.8000471 387.438400
    558    561    563     1   109.8000471 387.438400
    559    558    561     1   109.5600471 388.275200
    559    558    560     1   108.4600466 328.025600
    560    558    561     1   109.5600471 388.275200
    561    570    571     1   109.5600471 388.275200
    561    570    572     1   109.5600471 388.275200
    562    561    570     1   109.8000471 387.438400
    562    561    563     1   107.5800459 329.699200
    563    561    570     1   109.8000471 387.438400
    564    576    577     1   109.5600471 388.275200
    564    576    578     1   109.5600471 388.275200
    565    564    576     1   109.8000471 387.438400
    565    564    566     1   107.5800459 329.699200
    566    564    576     1   109.8000471 387.438400
    567    573    574     1   109.5600471 388.275200
    567    573    575     1   109.5600471 388.275200
    568    567    573     1   109.8000471 387.438400
    568    567    569     1   107.5800459 329.699200
    569    567    573     1   109.8000471 387.438400
    571    570    579     1   109.7800468 425.094400
    571    570    572     1   108.4600466 328.025600
    572    570    579     1   109.7800468 425.094400
    574    573   1188     1   109.7800468 425.094400
    574    573    575     1   108.4600466 328.025600
    575    573   1188     1   109.7800468 425.094400
    577    576   1217     1   109.7800468 425.094400
    577    576    578     1   108.4600466 328.025600
    578    576   1217     1   109.7800468 425.094400
    580    581    582     1   109.8800469 414.216000
    580    581    583     1   109.8800469 414.216000
    580    584    585     1   109.8800469 414.216000
    580    584    586     1   109.8800469 414.216000
    580    587    588     1   109.8800469 414.216000
    580    587    589     1   109.8800469 414.216000
    581    593    594     1   109.8000471 387.438400
    581    593    595     1   109.8000471 387.438400
    582    581    593     1   109.5600471 388.275200
    582    581    583     1   108.4600466 328.025600
    583    581    593     1   109.5600471 388.275200
    584    596    597     1   109.8000471 387.438400
    584    596    598     1   109.8000471 387.438400
    585    584    596     1   109.5600471 388.275200
    585    584    586     1   108.4600466 328.025600
    586    584    596     1   109.5600471 388.275200
    587    590    591     1   109.8000471 387.438400
    587    590    592     1   109.8000471 387.438400
    588    587    590     1   109.5600471 388.275200
    588    587    589     1   108.4600466 328.025600
    589    587    590     1   109.5600471 388.275200
    590    599    600     1   109.5600471 388.275200
    590    599    601     1   109.5600471 388.275200
    591    590    599     1   109.8000471 387.438400
    591    590    592     1   107.5800459 329.699200
    592    590    599     1   109.8000471 387.438400
    593    605    606     1   109.5600471 388.275200
    593    605    607     1   109.5600471 388.275200
    594    593    605     1   109.8000471 387.438400
    594    593    595     1   107.5800459 329.699200
    595    593    605     1   109.8000471 387.438400
    596    602    603     1   109.5600471 388.275200
    596    602    604     1   109.5600471 388.275200
    597    596    602     1   109.8000471 387.438400
    597    596    598     1   107.5800459 329.699200
    598    596    602     1   109.8000471 387.438400
    600    599    608     1   109.7800468 425.094400
    600    599    601     1   108.4600466 328.025600
    601    599    608     1   109.7800468 425.094400
    603    602   1246     1   109.7800468 425.094400
    603    602    604     1   108.4600466 328.025600
    604    602   1246     1   109.7800468 425.094400
    606    605   1275     1   109.7800468 425.094400
    606    605    607     1   108.4600466 328.025600
    607    605   1275     1   109.7800468 425.094400
    609    610    611     1   109.8800469 414.216000
    609    610    612     1   109.8800469 414.216000
    609    613    614     1   109.8800469 414.216000
    609    613    615     1   109.8800469 414.216000
    609    616    617     1   109.8800469 414.216000
    609    616    618     1   109.8800469 414.216000
    610    622    623     1   109.8000471 387.438400
    610    622    624     1   109.8000471 387.438400
    611    610    622     1   109.5600471 388.275200
    611    610    612     1   108.4600466 328.025600
    612    610    622     1   109.5600471 388.275200
    613    625    626     1   109.8000471 387.438400
    613    625    627     1   109.8000471 387.438400
    614    613    625     1   109.5600471 388.275200
    614    613    615     1   108.4600466 328.025600
    615    613    625     1   109.5600471 388.275200
    616    619    620     1   109.8000471 387.438400
    616    619    621     1   109.8000471 387.438400
    617    616    619     1   109.5600471 388.275200
    617    616    618     1   108.4600466 328.025600
    618    616    619     1   109.5600471 388.275200
    619    628    629     1   109.5600471 388.275200
    619    628    630     1   109.5600471 388.275200
    620    619    628     1   109.8000471 387.438400
    620    619    621     1   107.5800459 329.699200
    621    619    628     1   109.8000471 387.438400
    622    634    635     1   109.5600471 388.275200
    622    634    636     1   109.5600471 388.275200
    623    622    634     1   109.8000471 387.438400
    623    622    624     1   107.5800459 329.699200
    624    622    634     1   109.8000471 387.438400
    625    631    632     1   109.5600471 388.275200
    625    631    633     1   109.5600471 388.275200
    626    625    631     1   109.8000471 387.438400
    626    625    627     1   107.5800459 329.699200
    627    625    631     1   109.8000471 387.438400
    629    628    637     1   109.7800468 425.094400
    629    628    630     1   108.4600466 328.025600
    630    628    637     1   109.7800468 425.094400
    632    631   1304     1   109.7800468 425.094400
    632    631    633     1   108.4600466 328.025600
    633    631   1304     1   109.7800468 425.094400
    635    634   1333     1   109.7800468 425.094400
    635    634    636     1   108.4600466 328.025600
    636    634   1333     1   109.7800468 425.094400
    638    639    640     1   109.8800469 414.216000
    638    639    641     1   109.8800469 414.216000
    638    642    643     1   109.8800469 414.216000
    638    642    644     1   109.8800469 414.216000
    638    645    646     1   109.8800469 414.216000
    638    645    647     1   109.8800469 414.216000
    639    651    652     1   109.8000471 387.438400
    639    651    653     1   109.8000471 387.438400
    640    639    651     1   109.5600471 388.275200
    640    639    641     1   108.4600466 328.025600
    641    639    651     1   109.5600471 388.275200
    642    654    655     1   109.8000471 387.438400
    642    654    656     1   109.8000471 387.438400
    643    642    654     1   109.5600471 388.275200
    643    642    644     1   108.4600466 328.025600
    644    642    654     1   109.5600471 388.275200
    645    648    649     1   109.8000471 387.438400
    645    648    650     1   109.8000471 387.438400
    646    645    648     1   109.5600471 388.275200
    646    645    647     1   108.4600466 328.025600
    647    645    648     1   109.5600471 388.275200
    648    657    658     1   109.5600471 388.275200
    648    657    659     1   109.5600471 388.275200
    649    648    657     1   109.8000471 387.438400
    649    648    650     1   107.5800459 329.699200
    650    648    657     1   109.8000471 387.438400
    651    663    664     1   109.5600471 388.275200
    651    663    665     1   109.5600471 388.275200
    652    651    663     1   109.8000471 387.438400
    652    651    653     1   107.5800459 329.699200
    653    651    663     1   109.8000471 387.438400
    654    660    661     1   109.5600471 388.275200
    654    660    662     1   109.5600471 388.275200
    655    654    660     1   109.8000471 387.438400
    655    654    656     1   107.5800459 329.699200
    656    654    660     1   109.8000471 387.438400
    658    657    666     1   109.7800468 425.094400
    658    657    659     1   108.4600466 328.025600
    659    657    666     1   109.7800468 425.094400
    661    660   1362     1   109.7800468 425.094400
    661    660    662     1   108.4600466 328.025600
    662    660   1362     1   109.7800468 425.094400
    664    663   1391     1   109.7800468 425.094400
    664    663    665     1   108.4600466 328.025600
    665    663   1391     1   109.7800468 425.094400
    667    668    669     1   109.8800469 414.216000
    667    668    670     1   109.8800469 414.216000
    667    671    672     1   109.8800469 414.216000
    667    671    673     1   109.8800469 414.216000
    667    674    675     1   109.8800469 414.216000
    667    674    676     1   109.8800469 414.216000
    668    680    681     1   109.8000471 387.438400
    668    680    682     1   109.8000471 387.438400
    669    668    680     1   109.5600471 388.275200
    669    668    670     1   108.4600466 328.025600
    670    668    680     1   109.5600471 388.275200
    671    683    684     1   109.8000471 387.438400
    671    683    685     1   109.8000471 387.438400
    672    671    683     1   109.5600471 388.275200
    672    671    673     1   108.4600466 328.025600
    673    671    683     1   109.5600471 388.275200
    674    677    678     1   109.8000471 387.438400
    674    677    679     1   109.8000471 387.438400
    675    674    677     1   109.5600471 388.275200
    675    674    676     1   108.4600466 328.025600
    676    674    677     1   109.5600471 388.275200
    677    686    687     1   109.5600471 388.275200
    677    686    688     1   109.5600471 388.275200
    678    677    686     1   109.8000471 387.438400
    678    677    679     1   107.5800459 329.699200
    679    677    686     1   109.8000471 387.438400
    680    692    693     1   109.5600471 388.275200
    680    692    694     1   109.5600471 388.275200
    681    680    692     1   109.8000471 387.438400
    681    680    682     1   107.5800459 329.699200
    682    680    692     1   109.8000471 387.438400
    683    689    690     1   109.5600471 388.275200
    683    689    691     1   109.5600471 388.275200
    684    683    689     1   109.8000471 387.438400
    684    683    685     1   107.5800459 329.699200
    685    683    689     1   109.8000471 387.438400
    687    686    695     1   109.7800468 425.094400
    687    686    688     1   108.4600466 328.025600
    688    686    695     1   109.7800468 425.094400
    690    689   1420     1   109.7800468 425.094400
    690    689    691     1   108.4600466 328.025600
    691    689   1420     1   109.7800468 425.094400
    693    692   1449     1   109.7800468 425.094400
    693    692    694     1   108.4600466 328.025600
    694    692   1449     1   109.7800468 425.094400
    696    697    698     1   109.8800469 414.216000
    696    697    699     1   109.8800469 414.216000
    696    700    701     1   109.8800469 414.216000
    696    700    702     1   109.8800469 414.216000
    696    703    704     1   109.8800469 414.216000
    696    703    705     1   109.8800469 414.216000
    697    709    710     1   109.8000471 387.438400
    697    709    711     1   109.8000471 387.438400
    698    697    709     1   109.5600471 388.275200
    698    697    699     1   108.4600466 328.025600
    699    697    709     1   109.5600471 388.275200
    700    712    713     1   109.8000471 387.438400
    700    712    714     1   109.8000471 387.438400
    701    700    712     1   109.5600471 388.275200
    701    700    702     1   108.4600466 328.025600
    702    700    712     1   109.5600471 388.275200
    703    706    707     1   109.8000471 387.438400
    703    706    708     1   109.8000471 387.438400
    704    703    706     1   109.5600471 388.275200
    704    703    705     1   108.4600466 328.025600
    705    703    706     1   109.5600471 388.275200
    706    715    716     1   109.5600471 388.275200
    706    715    717     1   109.5600471 388.275200
    707    706    715     1   109.8000471 387.438400
    707    706    708     1   107.5800459 329.699200
    708    706    715     1   109.8000471 387.438400
    709    721    722     1   109.5600471 388.275200
    709    721    723     1   109.5600471 388.275200
    710    709    721     1   109.8000471 387.438400
    710    709    711     1   107.5800459 329.699200
    711    709    721     1   109.8000471 387.438400
    712    718    719     1   109.5600471 388.275200
    712    718    720     1   109.5600471 388.275200
    713    712    718     1   109.8000471 387.438400
    713    712    714     1   107.5800459 329.699200
    714    712    718     1   109.8000471 387.438400
    716    715    724     1   109.7800468 425.094400
    716    715    717     1   108.4600466 328.025600
    717    715    724     1   109.7800468 425.094400
    719    718   1478     1   109.7800468 425.094400
    719    718    720     1   108.4600466 328.025600
    720    718   1478     1   109.7800468 425.094400
    722    721   1507     1   109.7800468 425.094400
    722    721    723     1   108.4600466 328.025600
    723    721   1507     1   109.7800468 425.094400
    725    726    727     1   109.8800469 414.216000
    725    726    728     1   109.8800469 414.216000
    725    729    730     1   109.8800469 414.216000
    725    729    731     1   109.8800469 414.216000
    725    732    733     1   109.8800469 414.216000
    725    732    734     1   109.8800469 414.216000
    726    738    739     1   109.8000471 387.438400
    726    738    740     1   109.8000471 387.438400
    727    726    738     1   109.5600471 388.275200
    727    726    728     1   108.4600466 328.025600
    728    726    738     1   109.5600471 388.275200
    729    741    742     1   109.8000471 387.438400
    729    741    743     1   109.8000471 387.438400
    730    729    741     1   109.5600471 388.275200
    730    729    731     1   108.4600466 328.025600
    731    729    741     1   109.5600471 388.275200
    732    735    736     1   109.8000471 387.438400
    732    735    737     1   109.8000471 387.438400
    733    732    735     1   109.5600471 388.275200
    733    732    734     1   108.4600466 328.025600
    734    732    735     1   109.5600471 388.275200
    735    744    745     1   109.5600471 388.275200
    735    744    746     1   109.5600471 388.275200
    736    735    744     1   109.8000471 387.438400
    736    735    737     1   107.5800459 329.699200
    737    735    744     1   109.8000471 387.438400
    738    750    751     1   109.5600471 388.275200
    738    750    752     1   109.5600471 388.275200
    739    738    750     1   109.8000471 387.438400
    739    738    740     1   107.5800459 329.699200
    740    738    750     1   109.8000471 387.438400
    741    747    748     1   109.5600471 388.275200
    741    747    749     1   109.5600471 388.275200
    742    741    747     1   109.8000471 387.438400
    742    741    743     1   107.5800459 329.699200
    743    741    747     1   109.8000471 387.438400
    745    744    753     1   109.7800468 425.094400
    745    744    746     1   108.4600466 328.025600
    746    744    753     1   109.7800468 425.094400
    748    747   1536     1   109.7800468 425.094400
    748    747    749     1   108.4600466 328.025600
    749    747   1536     1   109.7800468 425.094400
    751    750   1565     1   109.7800468 425.094400
    751    750    752     1   108.4600466 328.025600
    752    750   1565     1   109.7800468 425.094400
    754    755    756     1   109.8800469 414.216000
    754    755    757     1   109.8800469 414.216000
    754    758    759     1   109.8800469 414.216000
    754    758    760     1   109.8800469 414.216000
    754    761    762     1   109.8800469 414.216000
    754    761    763     1   109.8800469 414.216000
    755    767    768     1   109.8000471 387.438400
    755    767    769     1   109.8000471 387.438400
    756    755    767     1   109.5600471 388.275200
    756    755    757     1   108.4600466 328.025600
    757    755    767     1   109.5600471 388.275200
    758    770    771     1   109.8000471 387.438400
    758    770    772     1   109.8000471 387.438400
    759    758    770     1   109.5600471 388.275200
    759    758    760     1   108.4600466 328.025600
    760    758    770     1   109.5600471 388.275200
    761    764    765     1   109.8000471 387.438400
    761    764    766     1   109.8000471 387.438400
    762    761    764     1   109.5600471 388.275200
    762    761    763     1   108.4600466 328.025600
    763    761    764     1   109.5600471 388.275200
    764    773    774     1   109.5600471 388.275200
    764    773    775     1   109.5600471 388.275200
    765    764    773     1   109.8000471 387.438400
    765    764    766     1   107.5800459 329.699200
    766    764    773     1   109.8000471 387.438400
    767    779    780     1   109.5600471 388.275200
    767    779    781     1   109.5600471 388.275200
    768    767    779     1   109.8000471 387.438400
    768    767    769     1   107.5800459 329.699200
    769    767    779     1   109.8000471 387.438400
    770    776    777     1   109.5600471 388.275200
    770    776    778     1   109.5600471 388.275200
    771    770    776     1   109.8000471 387.438400
    771    770    772     1   107.5800459 329.699200
    772    770    776     1   109.8000471 387.438400
    774    773    782     1   109.7800468 425.094400
    774    773    775     1   108.4600466 328.025600
    775    773    782     1   109.7800468 425.094400
    777    776   1594     1   109.7800468 425.094400
    777    776    778     1   108.4600466 328.025600
    778    776   1594     1   109.7800468 425.094400
    780    779   1623     1   109.7800468 425.094400
    780    779    781     1   108.4600466 328.025600
    781    779   1623     1   109.7800468 425.094400
    783    784    785     1   109.8800469 414.216000
    783    784    786     1   109.8800469 414.216000
    783    787    788     1   109.8800469 414.216000
    783    787    789     1   109.8800469 414.216000
    783    790    791     1   109.8800469 414.216000
    783    790    792     1   109.8800469 414.216000
    784    796    797     1   109.8000471 387.438400
    784    796    798     1   109.8000471 387.438400
    785    784    796     1   109.5600471 388.275200
    785    784    786     1   108.4600466 328.025600
    786    784    796     1   109.5600471 388.275200
    787    799    800     1   109.8000471 387.438400
    787    799    801     1   109.8000471 387.438400
    788    787    799     1   109.5600471 388.275200
    788    787    789     1   108.4600466 328.025600
    789    787    799     1   109.5600471 388.275200
    790    793    794     1   109.8000471 387.438400
    790    793    795     1   109.8000471 387.438400
    791    790    793     1   109.5600471 388.275200
    791    790    792     1   108.4600466 328.025600
    792    790    793     1   109.5600471 388.275200
    793    802    803     1   109.5600471 388.275200
    793    802    804     1   109.5600471 388.275200
    794    793    802     1   109.8000471 387.438400
    794    793    795     1   107.5800459 329.699200
    795    793    802     1   109.8000471 387.438400
    796    808    809     1   109.5600471 388.275200
    796    808    810     1   109.5600471 388.275200
    797    796    808     1   109.8000471 387.438400
    797    796    798     1   107.5800459 329.699200
    798    796    808     1   109.8000471 387.438400
    799    805    806     1   109.5600471 388.275200
    799    805    807     1   109.5600471 388.275200
    800    799    805     1   109.8000471 387.438400
    800    799    801     1   107.5800459 329.699200
    801    799    805     1   109.8000471 387.438400
    803    802    811     1   109.7800468 425.094400
    803    802    804     1   108.4600466 328.025600
    804    802    811     1   109.7800468 425.094400
    806    805   1652     1   109.7800468 425.094400
    806    805    807     1   108.4600466 328.025600
    807    805   1652     1   109.7800468 425.094400
    809    808   1681     1   109.7800468 425.094400
    809    808    810     1   108.4600466 328.025600
    810    808   1681     1   109.7800468 425.094400
    812    813    814     1   109.8800469 414.216000
    812    813    815     1   109.8800469 414.216000
    812    816    817     1   109.8800469 414.216000
    812    816    818     1   109.8800469 414.216000
    812    819    820     1   109.8800469 414.216000
    812    819    821     1   109.8800469 414.216000
    813    825    826     1   109.8000471 387.438400
    813    825    827     1   109.8000471 387.438400
    814    813    825     1   109.5600471 388.275200
    814    813    815     1   108.4600466 328.025600
    815    813    825     1   109.5600471 388.275200
    816    828    829     1   109.8000471 387.438400
    816    828    830     1   109.8000471 387.438400
    817    816    828     1   109.5600471 388.275200
    817    816    818     1   108.4600466 328.025600
    818    816    828     1   109.5600471 388.275200
    819    822    823     1   109.8000471 387.438400
    819    822    824     1   109.8000471 387.438400
    820    819    822     1   109.5600471 388.275200
    820    819    821     1   108.4600466 328.025600
    821    819    822     1   109.5600471 388.275200
    822    831    832     1   109.5600471 388.275200
    822    831    833     1   109.5600471 388.275200
    823    822    831     1   109.8000471 387.438400
    823    822    824     1   107.5800459 329.699200
    824    822    831     1   109.8000471 387.438400
    825    837    838     1   109.5600471 388.275200
    825    837    839     1   109.5600471 388.275200
    826    825    837     1   109.8000471 387.438400
    826    825    827     1   107.5800459 329.699200
    827    825    837     1   109.8000471 387.438400
    828    834    835     1   109.5600471 388.275200
    828    834    836     1   109.5600471 388.275200
    829    828    834     1   109.8000471 387.438400
    829    828    830     1   107.5800459 329.699200
    830    828    834     1   109.8000471 387.438400
    832    831    840     1   109.7800468 425.094400
    832    831    833     1   108.4600466 328.025600
    833    831    840     1   109.7800468 425.094400
    835    834   1710     1   109.7800468 425.094400
    835    834    836     1   108.4600466 328.025600
    836    834   1710     1   109.7800468 425.094400
    838    837   1739     1   109.7800468 425.094400
    838    837    839     1   108.4600466 328.025600
    839    837   1739     1   109.7800468 425.094400
    841    842    843     1   109.8800469 414.216000
    841    842    844     1   109.8800469 414.216000
    841    845    846     1   109.8800469 414.216000
    841    845    847     1   109.8800469 414.216000
    841    848    849     1   109.8800469 414.216000
    841    848    850     1   109.8800469 414.216000
    842    854    855     1   109.8000471 387.438400
    842    854    856     1   109.8000471 387.438400
    843    842    854     1   109.5600471 388.275200
    843    842    844     1   108.4600466 328.025600
    844    842    854     1   109.5600471 388.275200
    845    857    858     1   109.8000471 387.438400
    845    857    859     1   109.8000471 387.438400
    846    845    857     1   109.5600471 388.275200
    846    845    847     1   108.4600466 328.025600
    847    845    857     1   109.5600471 388.275200
    848    851    852     1   109.8000471 387.438400
    848    851    853     1   109.8000471 387.438400
    849    848    851     1   109.5600471 388.275200
    849    848    850     1   108.4600466 328.025600
    850    848    851     1   109.5600471 388.275200
    851    860    861     1   109.5600471 388.275200
    851    860    862     1   109.5600471 388.275200
    852    851    860     1   109.8000471 387.438400
    852    851    853     1   107.5800459 329.699200
    853    851    860     1   109.8000471 387.438400
    854    866    867     1   109.5600471 388.275200
    854    866    868     1   109.5600471 388.275200
    855    854    866     1   109.8000471 387.438400
    855    854    856     1   107.5800459 329.699200
    856    854    866     1   109.8000471 387.438400
    857    863    864     1   109.5600471 388.275200
    857    863    865     1   109.5600471 388.275200
    858    857    863     1   109.8000471 387.438400
    858    857    859     1   107.5800459 329.699200
    859    857    863     1   109.8000471 387.438400
    861    860    869     1   109.7800468 425.094400
    861    860    862     1   108.4600466 328.025600
    862    860    869     1   109.7800468 425.094400
    864    863   1768     1   109.7800468 425.094400
    864    863    865     1   108.4600466 328.025600
    865    863   1768     1   109.7800468 425.094400
    867    866   1797     1   109.7800468 425.094400
    867    866    868     1   108.4600466 328.025600
    868    866   1797     1   109.7800468 425.094400
    870    871    872     1   109.8800469 414.216000
    870    871    873     1   109.8800469 414.216000
    870    874    875     1   109.8800469 414.216000
    870    874    876     1   109.8800469 414.216000
    870    877    878     1   109.8800469 414.216000
    870    877    879     1   109.8800469 414.216000
    871    883    884     1   109.8000471 387.438400
    871    883    885     1   109.8000471 387.438400
    872    871    883     1   109.5600471 388.275200
    872    871    873     1   108.4600466 328.025600
    873    871    883     1   109.5600471 388.275200
    874    886    887     1   109.8000471 387.438400
    874    886    888     1   109.8000471 387.438400
    875    874    886     1   109.5600471 388.275200
    875    874    876     1   108.4600466 328.025600
    876    874    886     1   109.5600471 388.275200
    877    880    881     1   109.8000471 387.438400
    877    880    882     1   109.8000471 387.438400
    878    877    880     1   109.5600471 388.275200
    878    877    879     1   108.4600466 328.025600
    879    877    880     1   109.5600471 388.275200
    880    889    890     1   109.5600471 388.275200
    880    889    891     1   109.5600471 388.275200
    881    880    889     1   109.8000471 387.438400
    881    880    882     1   107.5800459 329.699200
    882    880    889     1   109.8000471 387.438400
    883    895    896     1   109.5600471 388.275200
    883    895    897     1   109.5600471 388.275200
    884    883    895     1   109.8000471 387.438400
    884    883    885     1   107.5800459 329.699200
    885    883    895     1   109.8000471 387.438400
    886    892    893     1   109.5600471 388.275200
    886    892    894     1   109.5600471 388.275200
    887    886    892     1   109.8000471 387.438400
    887    886    888     1   107.5800459 329.699200
    888    886    892     1   109.8000471 387.438400
    890    889    898     1   109.7800468 425.094400
    890    889    891     1   108.4600466 328.025600
    891    889    898     1   109.7800468 425.094400
    893    892   1826     1   109.7800468 425.094400
    893    892    894     1   108.4600466 328.025600
    894    892   1826     1   109.7800468 425.094400
    896    895   1855     1   109.7800468 425.094400
    896    895    897     1   108.4600466 328.025600
    897    895   1855     1   109.7800468 425.094400
    899    900    901     1   109.8800469 414.216000
    899    900    902     1   109.8800469 414.216000
    899    903    904     1   109.8800469 414.216000
    899    903    905     1   109.8800469 414.216000
    899    906    907     1   109.8800469 414.216000
    899    906    908     1   109.8800469 414.216000
    900    912    913     1   109.8000471 387.438400
    900    912    914     1   109.8000471 387.438400
    901    900    912     1   109.5600471 388.275200
    901    900    902     1   108.4600466 328.025600
    902    900    912     1   109.5600471 388.275200
    903    915    916     1   109.8000471 387.438400
    903    915    917     1   109.8000471 387.438400
    904    903    915     1   109.5600471 388.275200
    904    903    905     1   108.4600466 328.025600
    905    903    915     1   109.5600471 388.275200
    906    909    910     1   109.8000471 387.438400
    906    909    911     1   109.8000471 387.438400
    907    906    909     1   109.5600471 388.275200
    907    906    908     1   108.4600466 328.025600
    908    906    909     1   109.5600471 388.275200
    909    918    919     1   109.5600471 388.275200
    909    918    920     1   109.5600471 388.275200
    910    909    918     1   109.8000471 387.438400
    910    909    911     1   107.5800459 329.699200
    911    909    918     1   109.8000471 387.438400
    912    924    925     1   109.5600471 388.275200
    912    924    926     1   109.5600471 388.275200
    913    912    924     1   109.8000471 387.438400
    913    912    914     1   107.5800459 329.699200
    914    912    924     1   109.8000471 387.438400
    915    921    922     1   109.5600471 388.275200
    915    921    923     1   109.5600471 388.275200
    916    915    921     1   109.8000471 387.438400
    916    915    917     1   107.5800459 329.699200
    917    915    921     1   109.8000471 387.438400
    919    918    927     1   109.7800468 425.094400
    919    918    920     1   108.4600466 328.025600
    920    918    927     1   109.7800468 425.094400
    922    921   1884     1   109.7800468 425.094400
    922    921    923     1   108.4600466 328.025600
    923    921   1884     1   109.7800468 425.094400
    925    924   1913     1   109.7800468 425.094400
    925    924    926     1   108.4600466 328.025600
    926    924   1913     1   109.7800468 425.094400
    928    929    930     1   109.8800469 414.216000
    928    929    931     1   109.8800469 414.216000
    928    932    933     1   109.8800469 414.216000
    928    932    934     1   109.8800469 414.216000
    928    935    936     1   109.8800469 414.216000
    928    935    937     1   109.8800469 414.216000
    929    941    942     1   109.8000471 387.438400
    929    941    943     1   109.8000471 387.438400
    930    929    941     1   109.5600471 388.275200
    930    929    931     1   108.4600466 328.025600
    931    929    941     1   109.5600471 388.275200
    932    944    945     1   109.8000471 387.438400
    932    944    946     1   109.8000471 387.438400
    933    932    944     1   109.5600471 388.275200
    933    932    934     1   108.4600466 328.025600
    934    932    944     1   109.5600471 388.275200
    935    938    939     1   109.8000471 387.438400
    935    938    940     1   109.8000471 387.438400
    936    935    938     1   109.5600471 388.275200
    936    935    937     1   108.4600466 328.025600
    937    935    938     1   109.5600471 388.275200
    938    947    948     1   109.5600471 388.275200
    938    947    949     1   109.5600471 388.275200
    939    938    947     1   109.8000471 387.438400
    939    938    940     1   107.5800459 329.699200
    940    938    947     1   109.8000471 387.438400
    941    953    954     1   109.5600471 388.275200
    941    953    955     1   109.5600471 388.275200
    942    941    953     1   109.8000471 387.438400
    942    941    943     1   107.5800459 329.699200
    943    941    953     1   109.8000471 387.438400
    944    950    951     1   109.5600471 388.275200
    944    950    952     1   109.5600471 388.275200
    945    944    950     1   109.8000471 387.438400
    945    944    946     1   107.5800459 329.699200
    946    944    950     1   109.8000471 387.438400
    948    947    956     1   109.7800468 425.094400
    948    947    949     1   108.4600466 328.025600
    949    947    956     1   109.7800468 425.094400
    951    950   1942     1   109.7800468 425.094400
    951    950    952     1   108.4600466 328.025600
    952    950   1942     1   109.7800468 425.094400
    954    953   1971     1   109.7800468 425.094400
    954    953    955     1   108.4600466 328.025600
    955    953   1971     1   109.7800468 425.094400
    957    958    959     1   109.8800469 414.216000
    957    958    960     1   109.8800469 414.216000
    957    961    962     1   109.8800469 414.216000
    957    961    963     1   109.8800469 414.216000
    957    964    965     1   109.8800469 414.216000
    957    964    966     1   109.8800469 414.216000
    958    970    971     1   109.8000471 387.438400
    958    970    972     1   109.8000471 387.438400
    959    958    970     1   109.5600471 388.275200
    959    958    960     1   108.4600466 328.025600
    960    958    970     1   109.5600471 388.275200
    961    973    974     1   109.8000471 387.438400
    961    973    975     1   109.8000471 387.438400
    962    961    973     1   109.5600471 388.275200
    962    961    963     1   108.4600466 328.025600
    963    961    973     1   109.5600471 388.275200
    964    967    968     1   109.8000471 387.438400
    964    967    969     1   109.8000471 387.438400
    965    964    967     1   109.5600471 388.275200
    965    964    966     1   108.4600466 328.025600
    966    964    967     1   109.5600471 388.275200
    967    976    977     1   109.5600471 388.275200
    967    976    978     1   109.5600471 388.275200
    968    967    976     1   109.8000471 387.438400
    968    967    969     1   107.5800459 329.699200
    969    967    976     1   109.8000471 387.438400
    970    982    983     1   109.5600471 388.275200
    970    982    984     1   109.5600471 388.275200
    971    970    982     1   109.8000471 387.438400
    971    970    972     1   107.5800459 329.699200
    972    970    982     1   109.8000471 387.438400
    973    979    980     1   109.5600471 388.275200
    973    979    981     1   109.5600471 388.275200
    974    973    979     1   109.8000471 387.438400
    974    973    975     1   107.5800459 329.699200
    975    973    979     1   109.8000471 387.438400
    977    976    985     1   109.7800468 425.094400
    977    976    978     1   108.4600466 328.025600
    978    976    985     1   109.7800468 425.094400
    980    979   2000     1   109.7800468 425.094400
    980    979    981     1   108.4600466 328.025600
    981    979   2000     1   109.7800468 425.094400
    983    982   2029     1   109.7800468 425.094400
    983    982    984     1   108.4600466 328.025600
    984    982   2029     1   109.7800468 425.094400
    986    987    988     1   109.8800469 414.216000
    986    987    989     1   109.8800469 414.216000
    986    990    991     1   109.8800469 414.216000
    986    990    992     1   109.8800469 414.216000
    986    993    994     1   109.8800469 414.216000
    986    993    995     1   109.8800469 414.216000
    987    999   1000     1   109.8000471 387.438400
    987    999   1001     1   109.8000471 387.438400
    988    987    999     1   109.5600471 388.275200
    988    987    989     1   108.4600466 328.025600
    989    987    999     1   109.5600471 388.275200
    990   1002   1003     1   109.8000471 387.438400
    990   1002   1004     1   109.8000471 387.438400
    991    990   1002     1   109.5600471 388.275200
    991    990    992     1   108.4600466 328.025600
    992    990   1002     1   109.5600471 388.275200
    993    996    997     1   109.8000471 387.438400
    993    996    998     1   109.8000471 387.438400
    994    993    996     1   109.5600471 388.275200
    994    993    995     1   108.4600466 328.025600
    995    993    996     1   109.5600471 388.275200
    996   1005   1006     1   109.5600471 388.275200
    996   1005   1007     1   109.5600471 388.275200
    997    996   1005     1   109.8000471 387.438400
    997    996    998     1   107.5800459 329.699200
    998    996   1005     1   109.8000471 387.438400
    999   1011   1012     1   109.5600471 388.275200
    999   1011   1013     1   109.5600471 388.275200
   1000    999   1011     1   109.8000471 387.438400
   1000    999   1001     1   107.5800459 329.699200
   1001    999   1011     1   109.8000471 387.438400
   1002   1008   1009     1   109.5600471 388.275200
   1002   1008   1010     1   109.5600471 388.275200
   1003   1002   1008     1   109.8000471 387.438400
   1003   1002   1004     1   107.5800459 329.699200
   1004   1002   1008     1   109.8000471 387.438400
   1006   1005   1014     1   109.7800468 425.094400
   1006   1005   1007     1   108.4600466 328.025600
   1007   1005   1014     1   109.7800468 425.094400
   1009   1008   2058     1   109.7800468 425.094400
   1009   1008   1010     1   108.4600466 328.025600
   1010   1008   2058     1   109.7800468 425.094400
   1012   1011   2087     1   109.7800468 425.094400
   1012   1011   1013     1   108.4600466 328.025600
   1013   1011   2087     1   109.7800468 425.094400
   1015   1016   1017     1   109.8800469 414.216000
   1015   1016   1018     1   109.8800469 414.216000
   1015   1019   1020     1   109.8800469 414.216000
   1015   1019   1021     1   109.8800469 414.216000
   1015   1022   1023     1   109.8800469 414.216000
   1015   1022   1024     1   109.8800469 414.216000
   1016   1028   1029     1   109.8000471 387.438400
   1016   1028   1030     1   109.8000471 387.438400
   1017   1016   1028     1   109.5600471 388.275200
   1017   1016   1018     1   108.4600466 328.025600
   1018   1016   1028     1   109.5600471 388.275200
   1019   1031   1032     1   109.8000471 387.438400
   1019   1031   1033     1   109.8000471 387.438400
   1020   1019   1031     1   109.5600471 388.275200
   1020   1019   1021     1   108.4600466 328.025600
   1021   1019   1031     1   109.5600471 388.275200
   1022   1025   1026     1   109.8000471 387.438400
   1022   1025   1027     1   109.8000471 387.438400
   1023   1022   1025     1   109.5600471 388.275200
   1023   1022   1024     1   108.4600466 328.025600
   1024   1022   1025     1   109.5600471 388.275200
   1025   1034   1035     1   109.5600471 388.275200
   1025   1034   1036     1   109.5600471 388.275200
   1026   1025   1034     1   109.8000471 387.438400
   1026   1025   1027     1   107.5800459 329.699200
   1027   1025   1034     1   109.8000471 387.438400
   1028   1040   1041     1   109.5600471 388.275200
   1028   1040   1042     1   109.5600471 388.275200
   1029   1028   1040     1   109.8000471 387.438400
   1029   1028   1030     1   107.5800459 329.699200
   1030   1028   1040     1   109.8000471 387.438400
   1031   1037   1038     1   109.5600471 388.275200
   1031   1037   1039     1   109.5600471 388.275200
   1032   1031   1037     1   109.8000471 387.438400
   1032   1031   1033     1   107.5800459 329.699200
   1033   1031   1037     1   109.8000471 387.438400
   1035   1034   1043     1   109.7800468 425.094400
   1035   1034   1036     1   108.4600466 328.025600
   1036   1034   1043     1   109.7800468 425.094400
   1038   1037   2116     1   109.7800468 425.094400
   1038   1037   1039     1   108.4600466 328.025600
   1039   1037   2116     1   109.7800468 425.094400
   1041   1040   2145     1   109.7800468 425.094400
   1041   1040   1042     1   108.4600466 328.025600
   1042   1040   2145     1   109.7800468 425.094400
   1044   1045   1046     1   109.8800469 414.216000
   1044   1045   1047     1   109.8800469 414.216000
   1044   1048   1049     1   109.8800469 414.216000
   1044   1048   1050     1   109.8800469 414.216000
   1044   1051   1052     1   109.8800469 414.216000
   1044   1051   1053     1   109.8800469 414.216000
   1045   1057   1058     1   109.8000471 387.438400
   1045   1057   1059     1   109.8000471 387.438400
   1046   1045   1057     1   109.5600471 388.275200
   1046   1045   1047     1   108.4600466 328.025600
   1047   1045   1057     1   109.5600471 388.275200
   1048   1060   1061     1   109.8000471 387.438400
   1048   1060   1062     1   109.8000471 387.438400
   1049   1048   1060     1   109.5600471 388.275200
   1049   1048   1050     1   108.4600466 328.025600
   1050   1048   1060     1   109.5600471 388.275200
   1051   1054   1055     1   109.8000471 387.438400
   1051   1054   1056     1   109.8000471 387.438400
   1052   1051   1054     1   109.5600471 388.275200
   1052   1051   1053     1   108.4600466 328.025600
   1053   1051   1054     1   109.5600471 388.275200
   1054   1063   1064     1   109.5600471 388.275200
   1054   1063   1065     1   109.5600471 388.275200
   1055   1054   1063     1   109.8000471 387.438400
   1055   1054   1056     1   107.5800459 329.699200
   1056   1054   1063     1   109.8000471 387.438400
   1057   1069   1070     1   109.5600471 388.275200
   1057   1069   1071     1   109.5600471 388.275200
   1058   1057   1069     1   109.8000471 387.438400
   1058   1057   1059     1   107.5800459 329.699200
   1059   1057   1069     1   109.8000471 387.438400
   1060   1066   1067     1   109.5600471 388.275200
   1060   1066   1068     1   109.5600471 388.275200
   1061   1060   1066     1   109.8000471 387.438400
   1061   1060   1062     1   107.5800459 329.699200
   1062   1060   1066     1   109.8000471 387.438400
   1064   1063   1072     1   109.7800468 425.094400
   1064   1063   1065     1   108.4600466 328.025600
   1065   1063   1072     1   109.7800468 425.094400
   1067   1066   2174     1   109.7800468 425.094400
   1067   1066   1068     1   108.4600466 328.025600
   1068   1066   2174     1   109.7800468 425.094400
   1070   1069   2203     1   109.7800468 425.094400
   1070   1069   1071     1   108.4600466 328.025600
   1071   1069   2203     1   109.7800468 425.094400
   1073   1074   1075     1   109.8800469 414.216000
   1073   1074   1076     1   109.8800469 414.216000
   1073   1077   1078     1   109.8800469 414.216000
   1073   1077   1079     1   109.8800469 414.216000
   1073   1080   1081     1   109.8800469 414.216000
   1073   1080   1082     1   109.8800469 414.216000
   1074   1086   1087     1   109.8000471 387.438400
   1074   1086   1088     1   109.8000471 387.438400
   1075   1074   1086     1   109.5600471 388.275200
   1075   1074   1076     1   108.4600466 328.025600
   1076   1074   1086     1   109.5600471 388.275200
   1077   1089   1090     1   109.8000471 387.438400
   1077   1089   1091     1   109.8000471 387.438400
   1078   1077   1089     1   109.5600471 388.275200
   1078   1077   1079     1   108.4600466 328.025600
   1079   1077   1089     1   109.5600471 388.275200
   1080   1083   1084     1   109.8000471 387.438400
   1080   1083   1085     1   109.8000471 387.438400
   1081   1080   1083     1   109.5600471 388.275200
   1081   1080   1082     1   108.4600466 328.025600
   1082   1080   1083     1   109.5600471 388.275200
   1083   1092   1093     1   109.5600471 388.275200
   1083   1092   1094     1   109.5600471 388.275200
   1084   1083   1092     1   109.8000471 387.438400
   1084   1083   1085     1   107.5800459 329.699200
   1085   1083   1092     1   109.8000471 387.438400
   1086   1098   1099     1   109.5600471 388.275200
   1086   1098   1100     1   109.5600471 388.275200
   1087   1086   1098     1   109.8000471 387.438400
   1087   1086   1088     1   107.5800459 329.699200
   1088   1086   1098     1   109.8000471 387.438400
   1089   1095   1096     1   109.5600471 388.275200
   1089   1095   1097     1   109.5600471 388.275200
   1090   1089   1095     1   109.8000471 387.438400
   1090   1089   1091     1   107.5800459 329.699200
   1091   1089   1095     1   109.8000471 387.438400
   1093   1092   1101     1   109.7800468 425.094400
   1093   1092   1094     1   108.4600466 328.025600
   1094   1092   1101     1   109.7800468 425.094400
   1096   1095   2232     1   109.7800468 425.094400
   1096   1095   1097     1   108.4600466 328.025600
   1097   1095   2232     1   109.7800468 425.094400
   1099   1098   2261     1   109.7800468 425.094400
   1099   1098   1100     1   108.4600466 328.025600
   1100   1098   2261     1   109.7800468 425.094400
   1102   1103   1104     1   109.8800469 414.216000
   1102   1103   1105     1   109.8800469 414.216000
   1102   1106   1107     1   109.8800469 414.216000
   1102   1106   1108     1   109.8800469 414.216000
   1102   1109   1110     1   109.8800469 414.216000
   1102   1109   1111     1   109.8800469 414.216000
   1103   1115   1116     1   109.8000471 387.438400
   1103   1115   1117     1   109.8000471 387.438400
   1104   1103   1115     1   109.5600471 388.275200
   1104   1103   1105     1   108.4600466 328.025600
   1105   1103   1115     1   109.5600471 388.275200
   1106   1118   1119     1   109.8000471 387.438400
   1106   1118   1120     1   109.8000471 387.438400
   1107   1106   1118     1   109.5600471 388.275200
   1107   1106   1108     1   108.4600466 328.025600
   1108   1106   1118     1   109.5600471 388.275200
   1109   1112   1113     1   109.8000471 387.438400
   1109   1112   1114     1   109.8000471 387.438400
   1110   1109   1112     1   109.5600471 388.275200
   1110   1109   1111     1   108.4600466 328.025600
   1111   1109   1112     1   109.5600471 388.275200
   1112   1121   1122     1   109.5600471 388.275200
   1112   1121   1123     1   109.5600471 388.275200
   1113   1112   1121     1   109.8000471 387.438400
   1113   1112   1114     1   107.5800459 329.699200
   1114   1112   1121     1   109.8000471 387.438400
   1115   1127   1128     1   109.5600471 388.275200
   1115   1127   1129     1   109.5600471 388.275200
   1116   1115   1127     1   109.8000471 387.438400
   1116   1115   1117     1   107.5800459 329.699200
   1117   1115   1127     1   109.8000471 387.438400
   1118   1124   1125     1   109.5600471 388.275200
   1118   1124   1126     1   109.5600471 388.275200
   1119   1118   1124     1   109.8000471 387.438400
   1119   1118   1120     1   107.5800459 329.699200
   1120   1118   1124     1   109.8000471 387.438400
   1122   1121   1130     1   109.7800468 425.094400
   1122   1121   1123     1   108.4600466 328.025600
   1123   1121   1130     1   109.7800468 425.094400
   1125   1124   2290     1   109.7800468 425.094400
   1125   1124   1126     1   108.4600466 328.025600
   1126   1124   2290     1   109.7800468 425.094400
   1128   1127   2319     1   109.7800468 425.094400
   1128   1127   1129     1   108.4600466 328.025600
   1129   1127   2319     1   109.7800468 425.094400
   1131   1132   1133     1   109.8800469 414.216000
   1131   1132   1134     1   109.8800469 414.216000
   1131   1135   1136     1   109.8800469 414.216000
   1131   1135   1137     1   109.8800469 414.216000
   1131   1138   1139     1   109.8800469 414.216000
   1131   1138   1140     1   109.8800469 414.216000
   1132   1144   1145     1   109.8000471 387.438400
   1132   1144   1146     1   109.8000471 387.438400
   1133   1132   1144     1   109.5600471 388.275200
   1133   1132   1134     1   108.4600466 328.025600
   1134   1132   1144     1   109.5600471 388.275200
   1135   1147   1148     1   109.8000471 387.438400
   1135   1147   1149     1   109.8000471 387.438400
   1136   1135   1147     1   109.5600471 388.275200
   1136   1135   1137     1   108.4600466 328.025600
   1137   1135   1147     1   109.5600471 388.275200
   1138   1141   1142     1   109.8000471 387.438400
   1138   1141   1143     1   109.8000471 387.438400
   1139   1138   1141     1   109.5600471 388.275200
   1139   1138   1140     1   108.4600466 328.025600
   1140   1138   1141     1   109.5600471 388.275200
   1141   1150   1151     1   109.5600471 388.275200
   1141   1150   1152     1   109.5600471 388.275200
   1142   1141   1150     1   109.8000471 387.438400
   1142   1141   1143     1   107.5800459 329.699200
   1143   1141   1150     1   109.8000471 387.438400
   1144   1156   1157     1   109.5600471 388.275200
   1144   1156   1158     1   109.5600471 388.275200
   1145   1144   1156     1   109.8000471 387.438400
   1145   1144   1146     1   107.5800459 329.699200
   1146   1144   1156     1   109.8000471 387.438400
   1147   1153   1154     1   109.5600471 388.275200
   1147   1153   1155     1   109.5600471 388.275200
   1148   1147   1153     1   109.8000471 387.438400
   1148   1147   1149     1   107.5800459 329.699200
   1149   1147   1153     1   109.8000471 387.438400
   1151   1150   1159     1   109.7800468 425.094400
   1151   1150   1152     1   108.4600466 328.025600
   1152   1150   1159     1   109.7800468 425.094400
   1154   1153   2348     1   109.7800468 425.094400
   1154   1153   1155     1   108.4600466 328.025600
   1155   1153   2348     1   109.7800468 425.094400
   1157   1156   2377     1   109.7800468 425.094400
   1157   1156   1158     1   108.4600466 328.025600
   1158   1156   2377     1   109.7800468 425.094400
   1160   1161   1162     1   109.8800469 414.216000
   1160   1161   1163     1   109.8800469 414.216000
   1160   1164   1165     1   109.8800469 414.216000
   1160   1164   1166     1   109.8800469 414.216000
   1160   1167   1168     1   109.8800469 414.216000
   1160   1167   1169     1   109.8800469 414.216000
   1161   1173   1174     1   109.8000471 387.438400
   1161   1173   1175     1   109.8000471 387.438400
   1162   1161   1173     1   109.5600471 388.275200
   1162   1161   1163     1   108.4600466 328.025600
   1163   1161   1173     1   109.5600471 388.275200
   1164   1176   1177     1   109.8000471 387.438400
   1164   1176   1178     1   109.8000471 387.438400
   1165   1164   1176     1   109.5600471 388.275200
   1165   1164   1166     1   108.4600466 328.025600
   1166   1164   1176     1   109.5600471 388.275200
   1167   1170   1171     1   109.8000471 387.438400
   1167   1170   1172     1   109.8000471 387.438400
   1168   1167   1170     1   109.5600471 388.275200
   1168   1167   1169     1   108.4600466 328.025600
   1169   1167   1170     1   109.5600471 388.275200
   1170   1179   1180     1   109.5600471 388.275200
   1170   1179   1181     1   109.5600471 388.275200
   1171   1170   1179     1   109.8000471 387.438400
   1171   1170   1172     1   107.5800459 329.699200
   1172   1170   1179     1   109.8000471 387.438400
   1173   1185   1186     1   109.5600471 388.275200
   1173   1185   1187     1   109.5600471 388.275200
   1174   1173   1185     1   109.8000471 387.438400
   1174   1173   1175     1   107.5800459 329.699200
   1175   1173   1185     1   109.8000471 387.438400
   1176   1182   1183     1   109.5600471 388.275200
   1176   1182   1184     1   109.5600471 388.275200
   1177   1176   1182     1   109.8000471 387.438400
   1177   1176   1178     1   107.5800459 329.699200
   1178   1176   1182     1   109.8000471 387.438400
   1180   1179   1188     1   109.7800468 425.094400
   1180   1179   1181     1   108.4600466 328.025600
   1181   1179   1188     1   109.7800468 425.094400
   1183   1182   2406     1   109.7800468 425.094400
   1183   1182   1184     1   108.4600466 328.025600
   1184   1182   2406     1   109.7800468 425.094400
   1186   1185   2435     1   109.7800468 425.094400
   1186   1185   1187     1   108.4600466 328.025600
   1187   1185   2435     1   109.7800468 425.094400
   1189   1190   1191     1   109.8800469 414.216000
   1189   1190   1192     1   109.8800469 414.216000
   1189   1193   1194     1   109.8800469 414.216000
   1189   1193   1195     1   109.8800469 414.216000
   1189   1196   1197     1   109.8800469 414.216000
   1189   1196   1198     1   109.8800469 414.216000
   1190   1202   1203     1   109.8000471 387.438400
   1190   1202   1204     1   109.8000471 387.438400
   1191   1190   1202     1   109.5600471 388.275200
   1191   1190   1192     1   108.4600466 328.025600
   1192   1190   1202     1   109.5600471 388.275200
   1193   1205   1206     1   109.8000471 387.438400
   1193   1205   1207     1   109.8000471 387.438400
   1194   1193   1205     1   109.5600471 388.275200
   1194   1193   1195     1   108.4600466 328.025600
   1195   1193   1205     1   109.5600471 388.275200
   1196   1199   1200     1   109.8000471 387.438400
   1196   1199   1201     1   109.8000471 387.438400
   1197   1196   1199     1   109.5600471 388.275200
   1197   1196   1198     1   108.4600466 328.025600
   1198   1196   1199     1   109.5600471 388.275200
   1199   1208   1209     1   109.5600471 388.275200
   1199   1208   1210     1   109.5600471 388.275200
   1200   1199   1208     1   109.8000471 387.438400
   1200   1199   1201     1   107.5800459 329.699200
   1201   1199   1208     1   109.8000471 387.438400
   1202   1214   1215     1   109.5600471 388.275200
   1202   1214   1216     1   109.5600471 388.275200
   1203   1202   1214     1   109.8000471 387.438400
   1203   1202   1204     1   107.5800459 329.699200
   1204   1202   1214     1   109.8000471 387.438400
   1205   1211   1212     1   109.5600471 388.275200
   1205   1211   1213     1   109.5600471 388.275200
   1206   1205   1211     1   109.8000471 387.438400
   1206   1205   1207     1   107.5800459 329.699200
   1207   1205   1211     1   109.8000471 387.438400
   1209   1208   1217     1   109.7800468 425.094400
   1209   1208   1210     1   108.4600466 328.025600
   1210   1208   1217     1   109.7800468 425.094400
   1212   1211   2464     1   109.7800468 425.094400
   1212   1211   1213     1   108.4600466 328.025600
   1213   1211   2464     1   109.7800468 425.094400
   1215   1214   2493     1   109.7800468 425.094400
   1215   1214   1216     1   108.4600466 328.025600
   1216   1214   2493     1   109.7800468 425.094400
   1218   1219   1220     1   109.8800469 414.216000
   1218   1219   1221     1   109.8800469 414.216000
   1218   1222   1223     1   109.8800469 414.216000
   1218   1222   1224     1   109.8800469 414.216000
   1218   1225   1226     1   109.8800469 414.216000
   1218   1225   1227     1   109.8800469 414.216000
   1219   1231   1232     1   109.8000471 387.438400
   1219   1231   1233     1   109.8000471 387.438400
   1220   1219   1231     1   109.5600471 388.275200
   1220   1219   1221     1   108.4600466 328.025600
   1221   1219   1231     1   109.5600471 388.275200
   1222   1234   1235     1   109.8000471 387.438400
   1222   1234   1236     1   109.8000471 387.438400
   1223   1222   1234     1   109.5600471 388.275200
   1223   1222   1224     1   108.4600466 328.025600
   1224   1222   1234     1   109.5600471 388.275200
   1225   1228   1229     1   109.8000471 387.438400
   1225   1228   1230     1   109.8000471 387.438400
   1226   1225   1228     1   109.5600471 388.275200
   1226   1225   1227     1   108.4600466 328.025600
   1227   1225   1228     1   109.5600471 388.275200
   1228   1237   1238     1   109.5600471 388.275200
   1228   1237   1239     1   109.5600471 388.275200
   1229   1228   1237     1   109.8000471 387.438400
   1229   1228   1230     1   107.5800459 329.699200
   1230   1228   1237     1   109.8000471 387.438400
   1231   1243   1244     1   109.5600471 388.275200
   1231   1243   1245     1   109.5600471 388.275200
   1232   1231   1243     1   109.8000471 387.438400
   1232   1231   1233     1   107.5800459 329.699200
   1233   1231   1243     1   109.8000471 387.438400
   1234   1240   1241     1   109.5600471 388.275200
   1234   1240   1242     1   109.5600471 388.275200
   1235   1234   1240     1   109.8000471 387.438400
   1235   1234   1236     1   107.5800459 329.699200
   1236   1234   1240     1   109.8000471 387.438400
   1238   1237   1246     1   109.7800468 425.094400
   1238   1237   1239     1   108.4600466 328.025600
   1239   1237   1246     1   109.7800468 425.094400
   1241   1240   2522     1   109.7800468 425.094400
   1241   1240   1242     1   108.4600466 328.025600
   1242   1240   2522     1   109.7800468 425.094400
   1244   1243   2551     1   109.7800468 425.094400
   1244   1243   1245     1   108.4600466 328.025600
   1245   1243   2551     1   109.7800468 425.094400
   1247   1248   1249     1   109.8800469 414.216000
   1247   1248   1250     1   109.8800469 414.216000
   1247   1251   1252     1   109.8800469 414.216000
   1247   1251   1253     1   109.8800469 414.216000
   1247   1254   1255     1   109.8800469 414.216000
   1247   1254   1256     1   109.8800469 414.216000
   1248   1260   1261     1   109.8000471 387.438400
   1248   1260   1262     1   109.8000471 387.438400
   1249   1248   1260     1   109.5600471 388.275200
   1249   1248   1250     1   108.4600466 328.025600
   1250   1248   1260     1   109.5600471 388.275200
   1251   1263   1264     1   109.8000471 387.438400
   1251   1263   1265     1   109.8000471 387.438400
   1252   1251   1263     1   109.5600471 388.275200
   1252   1251   1253     1   108.4600466 328.025600
   1253   1251   1263     1   109.5600471 388.275200
   1254   1257   1258     1   109.8000471 387.438400
   1254   1257   1259     1   109.8000471 387.438400
   1255   1254   1257     1   109.5600471 388.275200
   1255   1254   1256     1   108.4600466 328.025600
   1256   1254   1257     1   109.5600471 388.275200
   1257   1266   1267     1   109.5600471 388.275200
   1257   1266   1268     1   109.5600471 388.275200
   1258   1257   1266     1   109.8000471 387.438400
   1258   1257   1259     1   107.5800459 329.699200
   1259   1257   1266     1   109.8000471 387.438400
   1260   1272   1273     1   109.5600471 388.275200
   1260   1272   1274     1   109.5600471 388.275200
   1261   1260   1272     1   109.8000471 387.438400
   1261   1260   1262     1   107.5800459 329.699200
   1262   1260   1272     1   109.8000471 387.438400
   1263   1269   1270     1   109.5600471 388.275200
   1263   1269   1271     1   109.5600471 388.275200
   1264   1263   1269     1   109.8000471 387.438400
   1264   1263   1265     1   107.5800459 329.699200
   1265   1263   1269     1   109.8000471 387.438400
   1267   1266   1275     1   109.7800468 425.094400
   1267   1266   1268     1   108.4600466 328.025600
   1268   1266   1275     1   109.7800468 425.094400
   1270   1269   2580     1   109.7800468 425.094400
   1270   1269   1271     1   108.4600466 328.025600
   1271   1269   2580     1   109.7800468 425.094400
   1273   1272   2609     1   109.7800468 425.094400
   1273   1272   1274     1   108.4600466 328.025600
   1274   1272   2609     1   109.7800468 425.094400
   1276   1277   1278     1   109.8800469 414.216000
   1276   1277   1279     1   109.8800469 414.216000
   1276   1280   1281     1   109.8800469 414.216000
   1276   1280   1282     1   109.8800469 414.216000
   1276   1283   1284     1   109.8800469 414.216000
   1276   1283   1285     1   109.8800469 414.216000
   1277   1289   1290     1   109.8000471 387.438400
   1277   1289   1291     1   109.8000471 387.438400
   1278   1277   1289     1   109.5600471 388.275200
   1278   1277   1279     1   108.4600466 328.025600
   1279   1277   1289     1   109.5600471 388.275200
   1280   1292   1293     1   109.8000471 387.438400
   1280   1292   1294     1   109.8000471 387.438400
   1281   1280   1292     1   109.5600471 388.275200
   1281   1280   1282     1   108.4600466 328.025600
   1282   1280   1292     1   109.5600471 388.275200
   1283   1286   1287     1   109.8000471 387.438400
   1283   1286   1288     1   109.8000471 387.438400
   1284   1283   1286     1   109.5600471 388.275200
   1284   1283   1285     1   108.4600466 328.025600
   1285   1283   1286     1   109.5600471 388.275200
   1286   1295   1296     1   109.5600471 388.275200
   1286   1295   1297     1   109.5600471 388.275200
   1287   1286   1295     1   109.8000471 387.438400
   1287   1286   1288     1   107.5800459 329.699200
   1288   1286   1295     1   109.8000471 387.438400
   1289   1301   1302     1   109.5600471 388.275200
   1289   1301   1303     1   109.5600471 388.275200
   1290   1289   1301     1   109.8000471 387.438400
   1290   1289   1291     1   107.5800459 329.699200
   1291   1289   1301     1   109.8000471 387.438400
   1292   1298   1299     1   109.5600471 388.275200
   1292   1298   1300     1   109.5600471 388.275200
   1293   1292   1298     1   109.8000471 387.438400
   1293   1292   1294     1   107.5800459 329.699200
   1294   1292   1298     1   109.8000471 387.438400
   1296   1295   1304     1   109.7800468 425.094400
   1296   1295   1297     1   108.4600466 328.025600
   1297   1295   1304     1   109.7800468 425.094400
   1299   1298   2638     1   109.7800468 425.094400
   1299   1298   1300     1   108.4600466 328.025600
   1300   1298   2638     1   109.7800468 425.094400
   1302   1301   2667     1   109.7800468 425.094400
   1302   1301   1303     1   108.4600466 328.025600
   1303   1301   2667     1   109.7800468 425.094400
   1305   1306   1307     1   109.8800469 414.216000
   1305   1306   1308     1   109.8800469 414.216000
   1305   1309   1310     1   109.8800469 414.216000
   1305   1309   1311     1   109.8800469 414.216000
   1305   1312   1313     1   109.8800469 414.216000
   1305   1312   1314     1   109.8800469 414.216000
   1306   1318   1319     1   109.8000471 387.438400
   1306   1318   1320     1   109.8000471 387.438400
   1307   1306   1318     1   109.5600471 388.275200
   1307   1306   1308     1   108.4600466 328.025600
   1308   1306   1318     1   109.5600471 388.275200
   1309   1321   1322     1   109.8000471 387.438400
   1309   1321   1323     1   109.8000471 387.438400
   1310   1309   1321     1   109.5600471 388.275200
   1310   1309   1311     1   108.4600466 328.025600
   1311   1309   1321     1   109.5600471 388.275200
   1312   1315   1316     1   109.8000471 387.438400
   1312   1315   1317     1   109.8000471 387.438400
   1313   1312   1315     1   109.5600471 388.275200
   1313   1312   1314     1   108.4600466 328.025600
   1314   1312   1315     1   109.5600471 388.275200
   1315   1324   1325     1   109.5600471 388.275200
   1315   1324   1326     1   109.5600471 388.275200
   1316   1315   1324     1   109.8000471 387.438400
   1316   1315   1317     1   107.5800459 329.699200
   1317   1315   1324     1   109.8000471 387.438400
   1318   1330   1331     1   109.5600471 388.275200
   1318   1330   1332     1   109.5600471 388.275200
   1319   1318   1330     1   109.8000471 387.438400
   1319   1318   1320     1   107.5800459 329.699200
   1320   1318   1330     1   109.8000471 387.438400
   1321   1327   1328     1   109.5600471 388.275200
   1321   1327   1329     1   109.5600471 388.275200
   1322   1321   1327     1   109.8000471 387.438400
   1322   1321   1323     1   107.5800459 329.699200
   1323   1321   1327     1   109.8000471 387.438400
   1325   1324   1333     1   109.7800468 425.094400
   1325   1324   1326     1   108.4600466 328.025600
   1326   1324   1333     1   109.7800468 425.094400
   1328   1327   2696     1   109.7800468 425.094400
   1328   1327   1329     1   108.4600466 328.025600
   1329   1327   2696     1   109.7800468 425.094400
   1331   1330   2725     1   109.7800468 425.094400
   1331   1330   1332     1   108.4600466 328.025600
   1332   1330   2725     1   109.7800468 425.094400
   1334   1335   1336     1   109.8800469 414.216000
   1334   1335   1337     1   109.8800469 414.216000
   1334   1338   1339     1   109.8800469 414.216000
   1334   1338   1340     1   109.8800469 414.216000
   1334   1341   1342     1   109.8800469 414.216000
   1334   1341   1343     1   109.8800469 414.216000
   1335   1347   1348     1   109.8000471 387.438400
   1335   1347   1349     1   109.8000471 387.438400
   1336   1335   1347     1   109.5600471 388.275200
   1336   1335   1337     1   108.4600466 328.025600
   1337   1335   1347     1   109.5600471 388.275200
   1338   1350   1351     1   109.8000471 387.438400
   1338   1350   1352     1   109.8000471 387.438400
   1339   1338   1350     1   109.5600471 388.275200
   1339   1338   1340     1   108.4600466 328.025600
   1340   1338   1350     1   109.5600471 388.275200
   1341   1344   1345     1   109.8000471 387.438400
   1341   1344   1346     1   109.8000471 387.438400
   1342   1341   1344     1   109.5600471 388.275200
   1342   1341   1343     1   108.4600466 328.025600
   1343   1341   1344     1   109.5600471 388.275200
   1344   1353   1354     1   109.5600471 388.275200
   1344   1353   1355     1   109.5600471 388.275200
   1345   1344   1353     1   109.8000471 387.438400
   1345   1344   1346     1   107.5800459 329.699200
   1346   1344   1353     1   109.8000471 387.438400
   1347   1359   1360     1   109.5600471 388.275200
   1347   1359   1361     1   109.5600471 388.275200
   1348   1347   1359     1   109.8000471 387.438400
   1348   1347   1349     1   107.5800459 329.699200
   1349   1347   1359     1   109.8000471 387.438400
   1350   1356   1357     1   109.5600471 388.275200
   1350   1356   1358     1   109.5600471 388.275200
   1351   1350   1356     1   109.8000471 387.438400
   1351   1350   1352     1   107.5800459 329.699200
   1352   1350   1356     1   109.8000471 387.438400
   1354   1353   1362     1   109.7800468 425.094400
   1354   1353   1355     1   108.4600466 328.025600
   1355   1353   1362     1   109.7800468 425.094400
   1357   1356   2754     1   109.7800468 425.094400
   1357   1356   1358     1   108.4600466 328.025600
   1358   1356   2754     1   109.7800468 425.094400
   1360   1359   2783     1   109.7800468 425.094400
   1360   1359   1361     1   108.4600466 328.025600
   1361   1359   2783     1   109.7800468 425.094400
   1363   1364   1365     1   109.8800469 414.216000
   1363   1364   1366     1   109.8800469 414.216000
   1363   1367   1368     1   109.8800469 414.216000
   1363   1367   1369     1   109.8800469 414.216000
   1363   1370   1371     1   109.8800469 414.216000
   1363   1370   1372     1   109.8800469 414.216000
   1364   1376   1377     1   109.8000471 387.438400
   1364   1376   1378     1   109.8000471 387.438400
   1365   1364   1376     1   109.5600471 388.275200
   1365   1364   1366     1   108.4600466 328.025600
   1366   1364   1376     1   109.5600471 388.275200
   1367   1379   1380     1   109.8000471 387.438400
   1367   1379   1381     1   109.8000471 387.438400
   1368   1367   1379     1   109.5600471 388.275200
   1368   1367   1369     1   108.4600466 328.025600
   1369   1367   1379     1   109.5600471 388.275200
   1370   1373   1374     1   109.8000471 387.438400
   1370   1373   1375     1   109.8000471 387.438400
   1371   1370   1373     1   109.5600471 388.275200
   1371   1370   1372     1   108.4600466 328.025600
   1372   1370   1373     1   109.5600471 388.275200
   1373   1382   1383     1   109.5600471 388.275200
   1373   1382   1384     1   109.5600471 388.275200
   1374   1373   1382     1   109.8000471 387.438400
   1374   1373   1375     1   107.5800459 329.699200
   1375   1373   1382     1   109.8000471 387.438400
   1376   1388   1389     1   109.5600471 388.275200
   1376   1388   1390     1   109.5600471 388.275200
   1377   1376   1388     1   109.8000471 387.438400
   1377   1376   1378     1   107.5800459 329.699200
   1378   1376   1388     1   109.8000471 387.438400
   1379   1385   1386     1   109.5600471 388.275200
   1379   1385   1387     1   109.5600471 388.275200
   1380   1379   1385     1   109.8000471 387.438400
   1380   1379   1381     1   107.5800459 329.699200
   1381   1379   1385     1   109.8000471 387.438400
   1383   1382   1391     1   109.7800468 425.094400
   1383   1382   1384     1   108.4600466 328.025600
   1384   1382   1391     1   109.7800468 425.094400
   1386   1385   2812     1   109.7800468 425.094400
   1386   1385   1387     1   108.4600466 328.025600
   1387   1385   2812     1   109.7800468 425.094400
   1389   1388   2841     1   109.7800468 425.094400
   1389   1388   1390     1   108.4600466 328.025600
   1390   1388   2841     1   109.7800468 425.094400
   1392   1393   1394     1   109.8800469 414.216000
   1392   1393   1395     1   109.8800469 414.216000
   1392   1396   1397     1   109.8800469 414.216000
   1392   1396   1398     1   109.8800469 414.216000
   1392   1399   1400     1   109.8800469 414.216000
   1392   1399   1401     1   109.8800469 414.216000
   1393   1405   1406     1   109.8000471 387.438400
   1393   1405   1407     1   109.8000471 387.438400
   1394   1393   1405     1   109.5600471 388.275200
   1394   1393   1395     1   108.4600466 328.025600
   1395   1393   1405     1   109.5600471 388.275200
   1396   1408   1409     1   109.8000471 387.438400
   1396   1408   1410     1   109.8000471 387.438400
   1397   1396   1408     1   109.5600471 388.275200
   1397   1396   1398     1   108.4600466 328.025600
   1398   1396   1408     1   109.5600471 388.275200
   1399   1402   1403     1   109.8000471 387.438400
   1399   1402   1404     1   109.8000471 387.438400
   1400   1399   1402     1   109.5600471 388.275200
   1400   1399   1401     1   108.4600466 328.025600
   1401   1399   1402     1   109.5600471 388.275200
   1402   1411   1412     1   109.5600471 388.275200
   1402   1411   1413     1   109.5600471 388.275200
   1403   1402   1411     1   109.8000471 387.438400
   1403   1402   1404     1   107.5800459 329.699200
   1404   1402   1411     1   109.8000471 387.438400
   1405   1417   1418     1   109.5600471 388.275200
   1405   1417   1419     1   109.5600471 388.275200
   1406   1405   1417     1   109.8000471 387.438400
   1406   1405   1407     1   107.5800459 329.699200
   1407   1405   1417     1   109.8000471 387.438400
   1408   1414   1415     1   109.5600471 388.275200
   1408   1414   1416     1   109.5600471 388.275200
   1409   1408   1414     1   109.8000471 387.438400
   1409   1408   1410     1   107.5800459 329.699200
   1410   1408   1414     1   109.8000471 387.438400
   1412   1411   1420     1   109.7800468 425.094400
   1412   1411   1413     1   108.4600466 328.025600
   1413   1411   1420     1   109.7800468 425.094400
   1415   1414   2870     1   109.7800468 425.094400
   1415   1414   1416     1   108.4600466 328.025600
   1416   1414   2870     1   109.7800468 425.094400
   1418   1417   2899     1   109.7800468 425.094400
   1418   1417   1419     1   108.4600466 328.025600
   1419   1417   2899     1   109.7800468 425.094400
   1421   1422   1423     1   109.8800469 414.216000
   1421   1422   1424     1   109.8800469 414.216000
   1421   1425   1426     1   109.8800469 414.216000
   1421   1425   1427     1   109.8800469 414.216000
   1421   1428   1429     1   109.8800469 414.216000
   1421   1428   1430     1   109.8800469 414.216000
   1422   1434   1435     1   109.8000471 387.438400
   1422   1434   1436     1   109.8000471 387.438400
   1423   1422   1434     1   109.5600471 388.275200
   1423   1422   1424     1   108.4600466 328.025600
   1424   1422   1434     1   109.5600471 388.275200
   1425   1437   1438     1   109.8000471 387.438400
   1425   1437   1439     1   109.8000471 387.438400
   1426   1425   1437     1   109.5600471 388.275200
   1426   1425   1427     1   108.4600466 328.025600
   1427   1425   1437     1   109.5600471 388.275200
   1428   1431   1432     1   109.8000471 387.438400
   1428   1431   1433     1   109.8000471 387.438400
   1429   1428   1431     1   109.5600471 388.275200
   1429   1428   1430     1   108.4600466 328.025600
   1430   1428   1431     1   109.5600471 388.275200
   1431   1440   1441     1   109.5600471 388.275200
   1431   1440   1442     1   109.5600471 388.275200
   1432   1431   1440     1   109.8000471 387.438400
   1432   1431   1433     1   107.5800459 329.699200
   1433   1431   1440     1   109.8000471 387.438400
   1434   1446   1447     1   109.5600471 388.275200
   1434   1446   1448     1   109.5600471 388.275200
   1435   1434   1446     1   109.8000471 387.438400
   1435   1434   1436     1   107.5800459 329.699200
   1436   1434   1446     1   109.8000471 387.438400
   1437   1443   1444     1   109.5600471 388.275200
   1437   1443   1445     1   109.5600471 388.275200
   1438   1437   1443     1   109.8000471 387.438400
   1438   1437   1439     1   107.5800459 329.699200
   1439   1437   1443     1   109.8000471 387.438400
   1441   1440   1449     1   109.7800468 425.094400
   1441   1440   1442     1   108.4600466 328.025600
   1442   1440   1449     1   109.7800468 425.094400
   1444   1443   2928     1   109.7800468 425.094400
   1444   1443   1445     1   108.4600466 328.025600
   1445   1443   2928     1   109.7800468 425.094400
   1447   1446   2957     1   109.7800468 425.094400
   1447   1446   1448     1   108.4600466 328.025600
   1448   1446   2957     1   109.7800468 425.094400
   1450   1451   1452     1   109.8800469 414.216000
   1450   1451   1453     1   109.8800469 414.216000
   1450   1454   1455     1   109.8800469 414.216000
   1450   1454   1456     1   109.8800469 414.216000
   1450   1457   1458     1   109.8800469 414.216000
   1450   1457   1459     1   109.8800469 414.216000
   1451   1463   1464     1   109.8000471 387.438400
   1451   1463   1465     1   109.8000471 387.438400
   1452   1451   1463     1   109.5600471 388.275200
   1452   1451   1453     1   108.4600466 328.025600
   1453   1451   1463     1   109.5600471 388.275200
   1454   1466   1467     1   109.8000471 387.438400
   1454   1466   1468     1   109.8000471 387.438400
   1455   1454   1466     1   109.5600471 388.275200
   1455   1454   1456     1   108.4600466 328.025600
   1456   1454   1466     1   109.5600471 388.275200
   1457   1460   1461     1   109.8000471 387.438400
   1457   1460   1462     1   109.8000471 387.438400
   1458   1457   1460     1   109.5600471 388.275200
   1458   1457   1459     1   108.4600466 328.025600
   1459   1457   1460     1   109.5600471 388.275200
   1460   1469   1470     1   109.5600471 388.275200
   1460   1469   1471     1   109.5600471 388.275200
   1461   1460   1469     1   109.8000471 387.438400
   1461   1460   1462     1   107.5800459 329.699200
   1462   1460   1469     1   109.8000471 387.438400
   1463   1475   1476     1   109.5600471 388.275200
   1463   1475   1477     1   109.5600471 388.275200
   1464   1463   1475     1   109.8000471 387.438400
   1464   1463   1465     1   107.5800459 329.699200
   1465   1463   1475     1   109.8000471 387.438400
   1466   1472   1473     1   109.5600471 388.275200
   1466   1472   1474     1   109.5600471 388.275200
   1467   1466   1472     1   109.8000471 387.438400
   1467   1466   1468     1   107.5800459 329.699200
   1468   1466   1472     1   109.8000471 387.438400
   1470   1469   1478     1   109.7800468 425.094400
   1470   1469   1471     1   108.4600466 328.025600
   1471   1469   1478     1   109.7800468 425.094400
   1473   1472   2986     1   109.7800468 425.094400
   1473   1472   1474     1   108.4600466 328.025600
   1474   1472   2986     1   109.7800468 425.094400
   1476   1475   3015     1   109.7800468 425.094400
   1476   1475   1477     1   108.4600466 328.025600
   1477   1475   3015     1   109.7800468 425.094400
   1479   1480   1481     1   109.8800469 414.216000
   1479   1480   1482     1   109.8800469 414.216000
   1479   1483   1484     1   109.8800469 414.216000
   1479   1483   1485     1   109.8800469 414.216000
   1479   1486   1487     1   109.8800469 414.216000
   1479   1486   1488     1   109.8800469 414.216000
   1480   1492   1493     1   109.8000471 387.438400
   1480   1492   1494     1   109.8000471 387.438400
   1481   1480   1492     1   109.5600471 388.275200
   1481   1480   1482     1   108.4600466 328.025600
   1482   1480   1492     1   109.5600471 388.275200
   1483   1495   1496     1   109.8000471 387.438400
   1483   1495   1497     1   109.8000471 387.438400
   1484   1483   1495     1   109.5600471 388.275200
   1484   1483   1485     1   108.4600466 328.025600
   1485   1483   1495     1   109.5600471 388.275200
   1486   1489   1490     1   109.8000471 387.438400
   1486   1489   1491     1   109.8000471 387.438400
   1487   1486   1489     1   109.5600471 388.275200
   1487   1486   1488     1   108.4600466 328.025600
   1488   1486   1489     1   109.5600471 388.275200
   1489   1498   1499     1   109.5600471 388.275200
   1489   1498   1500     1   109.5600471 388.275200
   1490   1489   1498     1   109.8000471 387.438400
   1490   1489   1491     1   107.5800459 329.699200
   1491   1489   1498     1   109.8000471 387.438400
   1492   1504   1505     1   109.5600471 388.275200
   1492   1504   1506     1   109.5600471 388.275200
   1493   1492   1504     1   109.8000471 387.438400
   1493   1492   1494     1   107.5800459 329.699200
   1494   1492   1504     1   109.8000471 387.438400
   1495   1501   1502     1   109.5600471 388.275200
   1495   1501   1503     1   109.5600471 388.275200
   1496   1495   1501     1   109.8000471 387.438400
   1496   1495   1497     1   107.5800459 329.699200
   1497   1495   1501     1   109.8000471 387.438400
   1499   1498   1507     1   109.7800468 425.094400
   1499   1498   1500     1   108.4600466 328.025600
   1500   1498   1507     1   109.7800468 425.094400
   1502   1501   3044     1   109.7800468 425.094400
   1502   1501   1503     1   108.4600466 328.025600
   1503   1501   3044     1   109.7800468 425.094400
   1505   1504   3073     1   109.7800468 425.094400
   1505   1504   1506     1   108.4600466 328.025600
   1506   1504   3073     1   109.7800468 425.094400
   1508   1509   1510     1   109.8800469 414.216000
   1508   1509   1511     1   109.8800469 414.216000
   1508   1512   1513     1   109.8800469 414.216000
   1508   1512   1514     1   109.8800469 414.216000
   1508   1515   1516     1   109.8800469 414.216000
   1508   1515   1517     1   109.8800469 414.216000
   1509   1521   1522     1   109.8000471 387.438400
   1509   1521   1523     1   109.8000471 387.438400
   1510   1509   1521     1   109.5600471 388.275200
   1510   1509   1511     1   108.4600466 328.025600
   1511   1509   1521     1   109.5600471 388.275200
   1512   1524   1525     1   109.8000471 387.438400
   1512   1524   1526     1   109.8000471 387.438400
   1513   1512   1524     1   109.5600471 388.275200
   1513   1512   1514     1   108.4600466 328.025600
   1514   1512   1524     1   109.5600471 388.275200
   1515   1518   1519     1   109.8000471 387.438400
   1515   1518   1520     1   109.8000471 387.438400
   1516   1515   1518     1   109.5600471 388.275200
   1516   1515   1517     1   108.4600466 328.025600
   1517   1515   1518     1   109.5600471 388.275200
   1518   1527   1528     1   109.5600471 388.275200
   1518   1527   1529     1   109.5600471 388.275200
   1519   1518   1527     1   109.8000471 387.438400
   1519   1518   1520     1   107.5800459 329.699200
   1520   1518   1527     1   109.8000471 387.438400
   1521   1533   1534     1   109.5600471 388.275200
   1521   1533   1535     1   109.5600471 388.275200
   1522   1521   1533     1   109.8000471 387.438400
   1522   1521   1523     1   107.5800459 329.699200
   1523   1521   1533     1   109.8000471 387.438400
   1524   1530   1531     1   109.5600471 388.275200
   1524   1530   1532     1   109.5600471 388.275200
   1525   1524   1530     1   109.8000471 387.438400
   1525   1524   1526     1   107.5800459 329.699200
   1526   1524   1530     1   109.8000471 387.438400
   1528   1527   1536     1   109.7800468 425.094400
   1528   1527   1529     1   108.4600466 328.025600
   1529   1527   1536     1   109.7800468 425.094400
   1531   1530   3102     1   109.7800468 425.094400
   1531   1530   1532     1   108.4600466 328.025600
   1532   1530   3102     1   109.7800468 425.094400
   1534   1533   3131     1   109.7800468 425.094400
   1534   1533   1535     1   108.4600466 328.025600
   1535   1533   3131     1   109.7800468 425.094400
   1537   1538   1539     1   109.8800469 414.216000
   1537   1538   1540     1   109.8800469 414.216000
   1537   1541   1542     1   109.8800469 414.216000
   1537   1541   1543     1   109.8800469 414.216000
   1537   1544   1545     1   109.8800469 414.216000
   1537   1544   1546     1   109.8800469 414.216000
   1538   1550   1551     1   109.8000471 387.438400
   1538   1550   1552     1   109.8000471 387.438400
   1539   1538   1550     1   109.5600471 388.275200
   1539   1538   1540     1   108.4600466 328.025600
   1540   1538   1550     1   109.5600471 388.275200
   1541   1553   1554     1   109.8000471 387.438400
   1541   1553   1555     1   109.8000471 387.438400
   1542   1541   1553     1   109.5600471 388.275200
   1542   1541   1543     1   108.4600466 328.025600
   1543   1541   1553     1   109.5600471 388.275200
   1544   1547   1548     1   109.8000471 387.438400
   1544   1547   1549     1   109.8000471 387.438400
   1545   1544   1547     1   109.5600471 388.275200
   1545   1544   1546     1   108.4600466 328.025600
   1546   1544   1547     1   109.5600471 388.275200
   1547   1556   1557     1   109.5600471 388.275200
   1547   1556   1558     1   109.5600471 388.275200
   1548   1547   1556     1   109.8000471 387.438400
   1548   1547   1549     1   107.5800459 329.699200
   1549   1547   1556     1   109.8000471 387.438400
   1550   1562   1563     1   109.5600471 388.275200
   1550   1562   1564     1   109.5600471 388.275200
   1551   1550   1562     1   109.8000471 387.438400
   1551   1550   1552     1   107.5800459 329.699200
   1552   1550   1562     1   109.8000471 387.438400
   1553   1559   1560     1   109.5600471 388.275200
   1553   1559   1561     1   109.5600471 388.275200
   1554   1553   1559     1   109.8000471 387.438400
   1554   1553   1555     1   107.5800459 329.699200
   1555   1553   1559     1   109.8000471 387.438400
   1557   1556   1565     1   109.7800468 425.094400
   1557   1556   1558     1   108.4600466 328.025600
   1558   1556   1565     1   109.7800468 425.094400
   1560   1559   3160     1   109.7800468 425.094400
   1560   1559   1561     1   108.4600466 328.025600
   1561   1559   3160     1   109.7800468 425.094400
   1563   1562   3189     1   109.7800468 425.094400
   1563   1562   1564     1   108.4600466 328.025600
   1564   1562   3189     1   109.7800468 425.094400
   1566   1567   1568     1   109.8800469 414.216000
   1566   1567   1569     1   109.8800469 414.216000
   1566   1570   1571     1   109.8800469 414.216000
   1566   1570   1572     1   109.8800469 414.216000
   1566   1573   1574     1   109.8800469 414.216000
   1566   1573   1575     1   109.8800469 414.216000
   1567   1579   1580     1   109.8000471 387.438400
   1567   1579   1581     1   109.8000471 387.438400
   1568   1567   1579     1   109.5600471 388.275200
   1568   1567   1569     1   108.4600466 328.025600
   1569   1567   1579     1   109.5600471 388.275200
   1570   1582   1583     1   109.8000471 387.438400
   1570   1582   1584     1   109.8000471 387.438400
   1571   1570   1582     1   109.5600471 388.275200
   1571   1570   1572     1   108.4600466 328.025600
   1572   1570   1582     1   109.5600471 388.275200
   1573   1576   1577     1   109.8000471 387.438400
   1573   1576   1578     1   109.8000471 387.438400
   1574   1573   1576     1   109.5600471 388.275200
   1574   1573   1575     1   108.4600466 328.025600
   1575   1573   1576     1   109.5600471 388.275200
   1576   1585   1586     1   109.5600471 388.275200
   1576   1585   1587     1   109.5600471 388.275200
   1577   1576   1585     1   109.8000471 387.438400
   1577   1576   1578     1   107.5800459 329.699200
   1578   1576   1585     1   109.8000471 387.438400
   1579   1591   1592     1   109.5600471 388.275200
   1579   1591   1593     1   109.5600471 388.275200
   1580   1579   1591     1   109.8000471 387.438400
   1580   1579   1581     1   107.5800459 329.699200
   1581   1579   1591     1   109.8000471 387.438400
   1582   1588   1589     1   109.5600471 388.275200
   1582   1588   1590     1   109.5600471 388.275200
   1583   1582   1588     1   109.8000471 387.438400
   1583   1582   1584     1   107.5800459 329.699200
   1584   1582   1588     1   109.8000471 387.438400
   1586   1585   1594     1   109.7800468 425.094400
   1586   1585   1587     1   108.4600466 328.025600
   1587   1585   1594     1   109.7800468 425.094400
   1589   1588   3218     1   109.7800468 425.094400
   1589   1588   1590     1   108.4600466 328.025600
   1590   1588   3218     1   109.7800468 425.094400
   1592   1591   3247     1   109.7800468 425.094400
   1592   1591   1593     1   108.4600466 328.025600
   1593   1591   3247     1   109.7800468 425.094400
   1595   1596   1597     1   109.8800469 414.216000
   1595   1596   1598     1   109.8800469 414.216000
   1595   1599   1600     1   109.8800469 414.216000
   1595   1599   1601     1   109.8800469 414.216000
   1595   1602   1603     1   109.8800469 414.216000
   1595   1602   1604     1   109.8800469 414.216000
   1596   1608   1609     1   109.8000471 387.438400
   1596   1608   1610     1   109.8000471 387.438400
   1597   1596   1608     1   109.5600471 388.275200
   1597   1596   1598     1   108.4600466 328.025600
   1598   1596   1608     1   109.5600471 388.275200
   1599   1611   1612     1   109.8000471 387.438400
   1599   1611   1613     1   109.8000471 387.438400
   1600   1599   1611     1   109.5600471 388.275200
   1600   1599   1601     1   108.4600466 328.025600
   1601   1599   1611     1   109.5600471 388.275200
   1602   1605   1606     1   109.8000471 387.438400
   1602   1605   1607     1   109.8000471 387.438400
   1603   1602   1605     1   109.5600471 388.275200
   1603   1602   1604     1   108.4600466 328.025600
   1604   1602   1605     1   109.5600471 388.275200
   1605   1614   1615     1   109.5600471 388.275200
   1605   1614   1616     1   109.5600471 388.275200
   1606   1605   1614     1   109.8000471 387.438400
   1606   1605   1607     1   107.5800459 329.699200
   1607   1605   1614     1   109.8000471 387.438400
   1608   1620   1621     1   109.5600471 388.275200
   1608   1620   1622     1   109.5600471 388.275200
   1609   1608   1620     1   109.8000471 387.438400
   1609   1608   1610     1   107.5800459 329.699200
   1610   1608   1620     1   109.8000471 387.438400
   1611   1617   1618     1   109.5600471 388.275200
   1611   1617   1619     1   109.5600471 388.275200
   1612   1611   1617     1   109.8000471 387.438400
   1612   1611   1613     1   107.5800459 329.699200
   1613   1611   1617     1   109.8000471 387.438400
   1615   1614   1623     1   109.7800468 425.094400
   1615   1614   1616     1   108.4600466 328.025600
   1616   1614   1623     1   109.7800468 425.094400
   1618   1617   3276     1   109.7800468 425.094400
   1618   1617   1619     1   108.4600466 328.025600
   1619   1617   3276     1   109.7800468 425.094400
   1621   1620   3305     1   109.7800468 425.094400
   1621   1620   1622     1   108.4600466 328.025600
   1622   1620   3305     1   109.7800468 425.094400
   1624   1625   1626     1   109.8800469 414.216000
   1624   1625   1627     1   109.8800469 414.216000
   1624   1628   1629     1   109.8800469 414.216000
   1624   1628   1630     1   109.8800469 414.216000
   1624   1631   1632     1   109.8800469 414.216000
   1624   1631   1633     1   109.8800469 414.216000
   1625   1637   1638     1   109.8000471 387.438400
   1625   1637   1639     1   109.8000471 387.438400
   1626   1625   1637     1   109.5600471 388.275200
   1626   1625   1627     1   108.4600466 328.025600
   1627   1625   1637     1   109.5600471 388.275200
   1628   1640   1641     1   109.8000471 387.438400
   1628   1640   1642     1   109.8000471 387.438400
   1629   1628   1640     1   109.5600471 388.275200
   1629   1628   1630     1   108.4600466 328.025600
   1630   1628   1640     1   109.5600471 388.275200
   1631   1634   1635     1   109.8000471 387.438400
   1631   1634   1636     1   109.8000471 387.438400
   1632   1631   1634     1   109.5600471 388.275200
   1632   1631   1633     1   108.4600466 328.025600
   1633   1631   1634     1   109.5600471 388.275200
   1634   1643   1644     1   109.5600471 388.275200
   1634   1643   1645     1   109.5600471 388.275200
   1635   1634   1643     1   109.8000471 387.438400
   1635   1634   1636     1   107.5800459 329.699200
   1636   1634   1643     1   109.8000471 387.438400
   1637   1649   1650     1   109.5600471 388.275200
   1637   1649   1651     1   109.5600471 388.275200
   1638   1637   1649     1   109.8000471 387.438400
   1638   1637   1639     1   107.5800459 329.699200
   1639   1637   1649     1   109.8000471 387.438400
   1640   1646   1647     1   109.5600471 388.275200
   1640   1646   1648     1   109.5600471 388.275200
   1641   1640   1646     1   109.8000471 387.438400
   1641   1640   1642     1   107.5800459 329.699200
   1642   1640   1646     1   109.8000471 387.438400
   1644   1643   1652     1   109.7800468 425.094400
   1644   1643   1645     1   108.4600466 328.025600
   1645   1643   1652     1   109.7800468 425.094400
   1647   1646   3334     1   109.7800468 425.094400
   1647   1646   1648     1   108.4600466 328.025600
   1648   1646   3334     1   109.7800468 425.094400
   1650   1649   3363     1   109.7800468 425.094400
   1650   1649   1651     1   108.4600466 328.025600
   1651   1649   3363     1   109.7800468 425.094400
   1653   1654   1655     1   109.8800469 414.216000
   1653   1654   1656     1   109.8800469 414.216000
   1653   1657   1658     1   109.8800469 414.216000
   1653   1657   1659     1   109.8800469 414.216000
   1653   1660   1661     1   109.8800469 414.216000
   1653   1660   1662     1   109.8800469 414.216000
   1654   1666   1667     1   109.8000471 387.438400
   1654   1666   1668     1   109.8000471 387.438400
   1655   1654   1666     1   109.5600471 388.275200
   1655   1654   1656     1   108.4600466 328.025600
   1656   1654   1666     1   109.5600471 388.275200
   1657   1669   1670     1   109.8000471 387.438400
   1657   1669   1671     1   109.8000471 387.438400
   1658   1657   1669     1   109.5600471 388.275200
   1658   1657   1659     1   108.4600466 328.025600
   1659   1657   1669     1   109.5600471 388.275200
   1660   1663   1664     1   109.8000471 387.438400
   1660   1663   1665     1   109.8000471 387.438400
   1661   1660   1663     1   109.5600471 388.275200
   1661   1660   1662     1   108.4600466 328.025600
   1662   1660   1663     1   109.5600471 388.275200
   1663   1672   1673     1   109.5600471 388.275200
   1663   1672   1674     1   109.5600471 388.275200
   1664   1663   1672     1   109.8000471 387.438400
   1664   1663   1665     1   107.5800459 329.699200
   1665   1663   1672     1   109.8000471 387.438400
   1666   1678   1679     1   109.5600471 388.275200
   1666   1678   1680     1   109.5600471 388.275200
   1667   1666   1678     1   109.8000471 387.438400
   1667   1666   1668     1   107.5800459 329.699200
   1668   1666   1678     1   109.8000471 387.438400
   1669   1675   1676     1   109.5600471 388.275200
   1669   1675   1677     1   109.5600471 388.275200
   1670   1669   1675     1   109.8000471 387.438400
   1670   1669   1671     1   107.5800459 329.699200
   1671   1669   1675     1   109.8000471 387.438400
   1673   1672   1681     1   109.7800468 425.094400
   1673   1672   1674     1   108.4600466 328.025600
   1674   1672   1681     1   109.7800468 425.094400
   1676   1675   3392     1   109.7800468 425.094400
   1676   1675   1677     1   108.4600466 328.025600
   1677   1675   3392     1   109.7800468 425.094400
   1679   1678   3421     1   109.7800468 425.094400
   1679   1678   1680     1   108.4600466 328.025600
   1680   1678   3421     1   109.7800468 425.094400
   1682   1683   1684     1   109.8800469 414.216000
   1682   1683   1685     1   109.8800469 414.216000
   1682   1686   1687     1   109.8800469 414.216000
   1682   1686   1688     1   109.8800469 414.216000
   1682   1689   1690     1   109.8800469 414.216000
   1682   1689   1691     1   109.8800469 414.216000
   1683   1695   1696     1   109.8000471 387.438400
   1683   1695   1697     1   109.8000471 387.438400
   1684   1683   1695     1   109.5600471 388.275200
   1684   1683   1685     1   108.4600466 328.025600
   1685   1683   1695     1   109.5600471 388.275200
   1686   1698   1699     1   109.8000471 387.438400
   1686   1698   1700     1   109.8000471 387.438400
   1687   1686   1698     1   109.5600471 388.275200
   1687   1686   1688     1   108.4600466 328.025600
   1688   1686   1698     1   109.5600471 388.275200
   1689   1692   1693     1   109.8000471 387.438400
   1689   1692   1694     1   109.8000471 387.438400
   1690   1689   1692     1   109.5600471 388.275200
   1690   1689   1691     1   108.4600466 328.025600
   1691   1689   1692     1   109.5600471 388.275200
   1692   1701   1702     1   109.5600471 388.275200
   1692   1701   1703     1   109.5600471 388.275200
   1693   1692   1701     1   109.8000471 387.438400
   1693   1692   1694     1   107.5800459 329.699200
   1694   1692   1701     1   109.8000471 387.438400
   1695   1707   1708     1   109.5600471 388.275200
   1695   1707   1709     1   109.5600471 388.275200
   1696   1695   1707     1   109.8000471 387.438400
   1696   1695   1697     1   107.5800459 329.699200
   1697   1695   1707     1   109.8000471 387.438400
   1698   1704   1705     1   109.5600471 388.275200
   1698   1704   1706     1   109.5600471 388.275200
   1699   1698   1704     1   109.8000471 387.438400
   1699   1698   1700     1   107.5800459 329.699200
   1700   1698   1704     1   109.8000471 387.438400
   1702   1701   1710     1   109.7800468 425.094400
   1702   1701   1703     1   108.4600466 328.025600
   1703   1701   1710     1   109.7800468 425.094400
   1705   1704   3450     1   109.7800468 425.094400
   1705   1704   1706     1   108.4600466 328.025600
   1706   1704   3450     1   109.7800468 425.094400
   1708   1707   3479     1   109.7800468 425.094400
   1708   1707   1709     1   108.4600466 328.025600
   1709   1707   3479     1   109.7800468 425.094400
   1711   1712   1713     1   109.8800469 414.216000
   1711   1712   1714     1   109.8800469 414.216000
   1711   1715   1716     1   109.8800469 414.216000
   1711   1715   1717     1   109.8800469 414.216000
   1711   1718   1719     1   109.8800469 414.216000
   1711   1718   1720     1   109.8800469 414.216000
   1712   1724   1725     1   109.8000471 387.438400
   1712   1724   1726     1   109.8000471 387.438400
   1713   1712   1724     1   109.5600471 388.275200
   1713   1712   1714     1   108.4600466 328.025600
   1714   1712   1724     1   109.5600471 388.275200
   1715   1727   1728     1   109.8000471 387.438400
   1715   1727   1729     1   109.8000471 387.438400
   1716   1715   1727     1   109.5600471 388.275200
   1716   1715   1717     1   108.4600466 328.025600
   1717   1715   1727     1   109.5600471 388.275200
   1718   1721   1722     1   109.8000471 387.438400
   1718   1721   1723     1   109.8000471 387.438400
   1719   1718   1721     1   109.5600471 388.275200
   1719   1718   1720     1   108.4600466 328.025600
   1720   1718   1721     1   109.5600471 388.275200
   1721   1730   1731     1   109.5600471 388.275200
   1721   1730   1732     1   109.5600471 388.275200
   1722   1721   1730     1   109.8000471 387.438400
   1722   1721   1723     1   107.5800459 329.699200
   1723   1721   1730     1   109.8000471 387.438400
   1724   1736   1737     1   109.5600471 388.275200
   1724   1736   1738     1   109.5600471 388.275200
   1725   1724   1736     1   109.8000471 387.438400
   1725   1724   1726     1   107.5800459 329.699200
   1726   1724   1736     1   109.8000471 387.438400
   1727   1733   1734     1   109.5600471 388.275200
   1727   1733   1735     1   109.5600471 388.275200
   1728   1727   1733     1   109.8000471 387.438400
   1728   1727   1729     1   107.5800459 329.699200
   1729   1727   1733     1   109.8000471 387.438400
   1731   1730   1739     1   109.7800468 425.094400
   1731   1730   1732     1   108.4600466 328.025600
   1732   1730   1739     1   109.7800468 425.094400
   1734   1733   3508     1   109.7800468 425.094400
   1734   1733   1735     1   108.4600466 328.025600
   1735   1733   3508     1   109.7800468 425.094400
   1737   1736   3537     1   109.7800468 425.094400
   1737   1736   1738     1   108.4600466 328.025600
   1738   1736   3537     1   109.7800468 425.094400
   1740   1741   1742     1   109.8800469 414.216000
   1740   1741   1743     1   109.8800469 414.216000
   1740   1744   1745     1   109.8800469 414.216000
   1740   1744   1746     1   109.8800469 414.216000
   1740   1747   1748     1   109.8800469 414.216000
   1740   1747   1749     1   109.8800469 414.216000
   1741   1753   1754     1   109.8000471 387.438400
   1741   1753   1755     1   109.8000471 387.438400
   1742   1741   1753     1   109.5600471 388.275200
   1742   1741   1743     1   108.4600466 328.025600
   1743   1741   1753     1   109.5600471 388.275200
   1744   1756   1757     1   109.8000471 387.438400
   1744   1756   1758     1   109.8000471 387.438400
   1745   1744   1756     1   109.5600471 388.275200
   1745   1744   1746     1   108.4600466 328.025600
   1746   1744   1756     1   109.5600471 388.275200
   1747   1750   1751     1   109.8000471 387.438400
   1747   1750   1752     1   109.8000471 387.438400
   1748   1747   1750     1   109.5600471 388.275200
   1748   1747   1749     1   108.4600466 328.025600
   1749   1747   1750     1   109.5600471 388.275200
   1750   1759   1760     1   109.5600471 388.275200
   1750   1759   1761     1   109.5600471 388.275200
   1751   1750   1759     1   109.8000471 387.438400
   1751   1750   1752     1   107.5800459 329.699200
   1752   1750   1759     1   109.8000471 387.438400
   1753   1765   1766     1   109.5600471 388.275200
   1753   1765   1767     1   109.5600471 388.275200
   1754   1753   1765     1   109.8000471 387.438400
   1754   1753   1755     1   107.5800459 329.699200
   1755   1753   1765     1   109.8000471 387.438400
   1756   1762   1763     1   109.5600471 388.275200
   1756   1762   1764     1   109.5600471 388.275200
   1757   1756   1762     1   109.8000471 387.438400
   1757   1756   1758     1   107.5800459 329.699200
   1758   1756   1762     1   109.8000471 387.438400
   1760   1759   1768     1   109.7800468 425.094400
   1760   1759   1761     1   108.4600466 328.025600
   1761   1759   1768     1   109.7800468 425.094400
   1763   1762   3566     1   109.7800468 425.094400
   1763   1762   1764     1   108.4600466 328.025600
   1764   1762   3566     1   109.7800468 425.094400
   1766   1765   3595     1   109.7800468 425.094400
   1766   1765   1767     1   108.4600466 328.025600
   1767   1765   3595     1   109.7800468 425.094400
   1769   1770   1771     1   109.8800469 414.216000
   1769   1770   1772     1   109.8800469 414.216000
   1769   1773   1774     1   109.8800469 414.216000
   1769   1773   1775     1   109.8800469 414.216000
   1769   1776   1777     1   109.8800469 414.216000
   1769   1776   1778     1   109.8800469 414.216000
   1770   1782   1783     1   109.8000471 387.438400
   1770   1782   1784     1   109.8000471 387.438400
   1771   1770   1782     1   109.5600471 388.275200
   1771   1770   1772     1   108.4600466 328.025600
   1772   1770   1782     1   109.5600471 388.275200
   1773   1785   1786     1   109.8000471 387.438400
   1773   1785   1787     1   109.8000471 387.438400
   1774   1773   1785     1   109.5600471 388.275200
   1774   1773   1775     1   108.4600466 328.025600
   1775   1773   1785     1   109.5600471 388.275200
   1776   1779   1780     1   109.8000471 387.438400
   1776   1779   1781     1   109.8000471 387.438400
   1777   1776   1779     1   109.5600471 388.275200
   1777   1776   1778     1   108.4600466 328.025600
   1778   1776   1779     1   109.5600471 388.275200
   1779   1788   1789     1   109.5600471 388.275200
   1779   1788   1790     1   109.5600471 388.275200
   1780   1779   1788     1   109.8000471 387.438400
   1780   1779   1781     1   107.5800459 329.699200
   1781   1779   1788     1   109.8000471 387.438400
   1782   1794   1795     1   109.5600471 388.275200
   1782   1794   1796     1   109.5600471 388.275200
   1783   1782   1794     1   109.8000471 387.438400
   1783   1782   1784     1   107.5800459 329.699200
   1784   1782   1794     1   109.8000471 387.438400
   1785   1791   1792     1   109.5600471 388.275200
   1785   1791   1793     1   109.5600471 388.275200
   1786   1785   1791     1   109.8000471 387.438400
   1786   1785   1787     1   107.5800459 329.699200
   1787   1785   1791     1   109.8000471 387.438400
   1789   1788   1797     1   109.7800468 425.094400
   1789   1788   1790     1   108.4600466 328.025600
   1790   1788   1797     1   109.7800468 425.094400
   1792   1791   3624     1   109.7800468 425.094400
   1792   1791   1793     1   108.4600466 328.025600
   1793   1791   3624     1   109.7800468 425.094400
   1795   1794   3653     1   109.7800468 425.094400
   1795   1794   1796     1   108.4600466 328.025600
   1796   1794   3653     1   109.7800468 425.094400
   1798   1799   1800     1   109.8800469 414.216000
   1798   1799   1801     1   109.8800469 414.216000
   1798   1802   1803     1   109.8800469 414.216000
   1798   1802   1804     1   109.8800469 414.216000
   1798   1805   1806     1   109.8800469 414.216000
   1798   1805   1807     1   109.8800469 414.216000
   1799   1811   1812     1   109.8000471 387.438400
   1799   1811   1813     1   109.8000471 387.438400
   1800   1799   1811     1   109.5600471 388.275200
   1800   1799   1801     1   108.4600466 328.025600
   1801   1799   1811     1   109.5600471 388.275200
   1802   1814   1815     1   109.8000471 387.438400
   1802   1814   1816     1   109.8000471 387.438400
   1803   1802   1814     1   109.5600471 388.275200
   1803   1802   1804     1   108.4600466 328.025600
   1804   1802   1814     1   109.5600471 388.275200
   1805   1808   1809     1   109.8000471 387.438400
   1805   1808   1810     1   109.8000471 387.438400
   1806   1805   1808     1   109.5600471 388.275200
   1806   1805   1807     1   108.4600466 328.025600
   1807   1805   1808     1   109.5600471 388.275200
   1808   1817   1818     1   109.5600471 388.275200
   1808   1817   1819     1   109.5600471 388.275200
   1809   1808   1817     1   109.8000471 387.438400
   1809   1808   1810     1   107.5800459 329.699200
   1810   1808   1817     1   109.8000471 387.438400
   1811   1823   1824     1   109.5600471 388.275200
   1811   1823   1825     1   109.5600471 388.275200
   1812   1811   1823     1   109.8000471 387.438400
   1812   1811   1813     1   107.5800459 329.699200
   1813   1811   1823     1   109.8000471 387.438400
   1814   1820   1821     1   109.5600471 388.275200
   1814   1820   1822     1   109.5600471 388.275200
   1815   1814   1820     1   109.8000471 387.438400
   1815   1814   1816     1   107.5800459 329.699200
   1816   1814   1820     1   109.8000471 387.438400
   1818   1817   1826     1   109.7800468 425.094400
   1818   1817   1819     1   108.4600466 328.025600
   1819   1817   1826     1   109.7800468 425.094400
   1821   1820   3682     1   109.7800468 425.094400
   1821   1820   1822     1   108.4600466 328.025600
   1822   1820   3682     1   109.7800468 425.094400
   1824   1823   3711     1   109.7800468 425.094400
   1824   1823   1825     1   108.4600466 328.025600
   1825   1823   3711     1   109.7800468 425.094400
   1827   1828   1829     1   109.8800469 414.216000
   1827   1828   1830     1   109.8800469 414.216000
   1827   1831   1832     1   109.8800469 414.216000
   1827   1831   1833     1   109.8800469 414.216000
   1827   1834   1835     1   109.8800469 414.216000
   1827   1834   1836     1   109.8800469 414.216000
   1828   1840   1841     1   109.8000471 387.438400
   1828   1840   1842     1   109.8000471 387.438400
   1829   1828   1840     1   109.5600471 388.275200
   1829   1828   1830     1   108.4600466 328.025600
   1830   1828   1840     1   109.5600471 388.275200
   1831   1843   1844     1   109.8000471 387.438400
   1831   1843   1845     1   109.8000471 387.438400
   1832   1831   1843     1   109.5600471 388.275200
   1832   1831   1833     1   108.4600466 328.025600
   1833   1831   1843     1   109.5600471 388.275200
   1834   1837   1838     1   109.8000471 387.438400
   1834   1837   1839     1   109.8000471 387.438400
   1835   1834   1837     1   109.5600471 388.275200
   1835   1834   1836     1   108.4600466 328.025600
   1836   1834   1837     1   109.5600471 388.275200
   1837   1846   1847     1   109.5600471 388.275200
   1837   1846   1848     1   109.5600471 388.275200
   1838   1837   1846     1   109.8000471 387.438400
   1838   1837   1839     1   107.5800459 329.699200
   1839   1837   1846     1   109.8000471 387.438400
   1840   1852   1853     1   109.5600471 388.275200
   1840   1852   1854     1   109.5600471 388.275200
   1841   1840   1852     1   109.8000471 387.438400
   1841   1840   1842     1   107.5800459 329.699200
   1842   1840   1852     1   109.8000471 387.438400
   1843   1849   1850     1   109.5600471 388.275200
   1843   1849   1851     1   109.5600471 388.275200
   1844   1843   1849     1   109.8000471 387.438400
   1844   1843   1845     1   107.5800459 329.699200
   1845   1843   1849     1   109.8000471 387.438400
   1847   1846   1855     1   109.7800468 425.094400
   1847   1846   1848     1   108.4600466 328.025600
   1848   1846   1855     1   109.7800468 425.094400
   1850   1849   3740     1   109.7800468 425.094400
   1850   1849   1851     1   108.4600466 328.025600
   1851   1849   3740     1   109.7800468 425.094400
   1853   1852   3769     1   109.7800468 425.094400
   1853   1852   1854     1   108.4600466 328.025600
   1854   1852   3769     1   109.7800468 425.094400
   1856   1857   1858     1   109.8800469 414.216000
   1856   1857   1859     1   109.8800469 414.216000
   1856   1860   1861     1   109.8800469 414.216000
   1856   1860   1862     1   109.8800469 414.216000
   1856   1863   1864     1   109.8800469 414.216000
   1856   1863   1865     1   109.8800469 414.216000
   1857   1869   1870     1   109.8000471 387.438400
   1857   1869   1871     1   109.8000471 387.438400
   1858   1857   1869     1   109.5600471 388.275200
   1858   1857   1859     1   108.4600466 328.025600
   1859   1857   1869     1   109.5600471 388.275200
   1860   1872   1873     1   109.8000471 387.438400
   1860   1872   1874     1   109.8000471 387.438400
   1861   1860   1872     1   109.5600471 388.275200
   1861   1860   1862     1   108.4600466 328.025600
   1862   1860   1872     1   109.5600471 388.275200
   1863   1866   1867     1   109.8000471 387.438400
   1863   1866   1868     1   109.8000471 387.438400
   1864   1863   1866     1   109.5600471 388.275200
   1864   1863   1865     1   108.4600466 328.025600
   1865   1863   1866     1   109.5600471 388.275200
   1866   1875   1876     1   109.5600471 388.275200
   1866   1875   1877     1   109.5600471 388.275200
   1867   1866   1875     1   109.8000471 387.438400
   1867   1866   1868     1   107.5800459 329.699200
   1868   1866   1875     1   109.8000471 387.438400
   1869   1881   1882     1   109.5600471 388.275200
   1869   1881   1883     1   109.5600471 388.275200
   1870   1869   1881     1   109.8000471 387.438400
   1870   1869   1871     1   107.5800459 329.699200
   1871   1869   1881     1   109.8000471 387.438400
   1872   1878   1879     1   109.5600471 388.275200
   1872   1878   1880     1   109.5600471 388.275200
   1873   1872   1878     1   109.8000471 387.438400
   1873   1872   1874     1   107.5800459 329.699200
   1874   1872   1878     1   109.8000471 387.438400
   1876   1875   1884     1   109.7800468 425.094400
   1876   1875   1877     1   108.4600466 328.025600
   1877   1875   1884     1   109.7800468 425.094400
   1879   1878   3798     1   109.7800468 425.094400
   1879   1878   1880     1   108.4600466 328.025600
   1880   1878   3798     1   109.7800468 425.094400
   1882   1881   3827     1   109.7800468 425.094400
   1882   1881   1883     1   108.4600466 328.025600
   1883   1881   3827     1   109.7800468 425.094400
   1885   1886   1887     1   109.8800469 414.216000
   1885   1886   1888     1   109.8800469 414.216000
   1885   1889   1890     1   109.8800469 414.216000
   1885   1889   1891     1   109.8800469 414.216000
   1885   1892   1893     1   109.8800469 414.216000
   1885   1892   1894     1   109.8800469 414.216000
   1886   1898   1899     1   109.8000471 387.438400
   1886   1898   1900     1   109.8000471 387.438400
   1887   1886   1898     1   109.5600471 388.275200
   1887   1886   1888     1   108.4600466 328.025600
   1888   1886   1898     1   109.5600471 388.275200
   1889   1901   1902     1   109.8000471 387.438400
   1889   1901   1903     1   109.8000471 387.438400
   1890   1889   1901     1   109.5600471 388.275200
   1890   1889   1891     1   108.4600466 328.025600
   1891   1889   1901     1   109.5600471 388.275200
   1892   1895   1896     1   109.8000471 387.438400
   1892   1895   1897     1   109.8000471 387.438400
   1893   1892   1895     1   109.5600471 388.275200
   1893   1892   1894     1   108.4600466 328.025600
   1894   1892   1895     1   109.5600471 388.275200
   1895   1904   1905     1   109.5600471 388.275200
   1895   1904   1906     1   109.5600471 388.275200
   1896   1895   1904     1   109.8000471 387.438400
   1896   1895   1897     1   107.5800459 329.699200
   1897   1895   1904     1   109.8000471 387.438400
   1898   1910   1911     1   109.5600471 388.275200
   1898   1910   1912     1   109.5600471 388.275200
   1899   1898   1910     1   109.8000471 387.438400
   1899   1898   1900     1   107.5800459 329.699200
   1900   1898   1910     1   109.8000471 387.438400
   1901   1907   1908     1   109.5600471 388.275200
   1901   1907   1909     1   109.5600471 388.275200
   1902   1901   1907     1   109.8000471 387.438400
   1902   1901   1903     1   107.5800459 329.699200
   1903   1901   1907     1   109.8000471 387.438400
   1905   1904   1913     1   109.7800468 425.094400
   1905   1904   1906     1   108.4600466 328.025600
   1906   1904   1913     1   109.7800468 425.094400
   1908   1907   3856     1   109.7800468 425.094400
   1908   1907   1909     1   108.4600466 328.025600
   1909   1907   3856     1   109.7800468 425.094400
   1911   1910   3885     1   109.7800468 425.094400
   1911   1910   1912     1   108.4600466 328.025600
   1912   1910   3885     1   109.7800468 425.094400
   1914   1915   1916     1   109.8800469 414.216000
   1914   1915   1917     1   109.8800469 414.216000
   1914   1918   1919     1   109.8800469 414.216000
   1914   1918   1920     1   109.8800469 414.216000
   1914   1921   1922     1   109.8800469 414.216000
   1914   1921   1923     1   109.8800469 414.216000
   1915   1927   1928     1   109.8000471 387.438400
   1915   1927   1929     1   109.8000471 387.438400
   1916   1915   1927     1   109.5600471 388.275200
   1916   1915   1917     1   108.4600466 328.025600
   1917   1915   1927     1   109.5600471 388.275200
   1918   1930   1931     1   109.8000471 387.438400
   1918   1930   1932     1   109.8000471 387.438400
   1919   1918   1930     1   109.5600471 388.275200
   1919   1918   1920     1   108.4600466 328.025600
   1920   1918   1930     1   109.5600471 388.275200
   1921   1924   1925     1   109.8000471 387.438400
   1921   1924   1926     1   109.8000471 387.438400
   1922   1921   1924     1   109.5600471 388.275200
   1922   1921   1923     1   108.4600466 328.025600
   1923   1921   1924     1   109.5600471 388.275200
   1924   1933   1934     1   109.5600471 388.275200
   1924   1933   1935     1   109.5600471 388.275200
   1925   1924   1933     1   109.8000471 387.438400
   1925   1924   1926     1   107.5800459 329.699200
   1926   1924   1933     1   109.8000471 387.438400
   1927   1939   1940     1   109.5600471 388.275200
   1927   1939   1941     1   109.5600471 388.275200
   1928   1927   1939     1   109.8000471 387.438400
   1928   1927   1929     1   107.5800459 329.699200
   1929   1927   1939     1   109.8000471 387.438400
   1930   1936   1937     1   109.5600471 388.275200
   1930   1936   1938     1   109.5600471 388.275200
   1931   1930   1936     1   109.8000471 387.438400
   1931   1930   1932     1   107.5800459 329.699200
   1932   1930   1936     1   109.8000471 387.438400
   1934   1933   1942     1   109.7800468 425.094400
   1934   1933   1935     1   108.4600466 328.025600
   1935   1933   1942     1   109.7800468 425.094400
   1937   1936   3914     1   109.7800468 425.094400
   1937   1936   1938     1   108.4600466 328.025600
   1938   1936   3914     1   109.7800468 425.094400
   1940   1939   3943     1   109.7800468 425.094400
   1940   1939   1941     1   108.4600466 328.025600
   1941   1939   3943     1   109.7800468 425.094400
   1943   1944   1945     1   109.8800469 414.216000
   1943   1944   1946     1   109.8800469 414.216000
   1943   1947   1948     1   109.8800469 414.216000
   1943   1947   1949     1   109.8800469 414.216000
   1943   1950   1951     1   109.8800469 414.216000
   1943   1950   1952     1   109.8800469 414.216000
   1944   1956   1957     1   109.8000471 387.438400
   1944   1956   1958     1   109.8000471 387.438400
   1945   1944   1956     1   109.5600471 388.275200
   1945   1944   1946     1   108.4600466 328.025600
   1946   1944   1956     1   109.5600471 388.275200
   1947   1959   1960     1   109.8000471 387.438400
   1947   1959   1961     1   109.8000471 387.438400
   1948   1947   1959     1   109.5600471 388.275200
   1948   1947   1949     1   108.4600466 328.025600
   1949   1947   1959     1   109.5600471 388.275200
   1950   1953   1954     1   109.8000471 387.438400
   1950   1953   1955     1   109.8000471 387.438400
   1951   1950   1953     1   109.5600471 388.275200
   1951   1950   1952     1   108.4600466 328.025600
   1952   1950   1953     1   109.5600471 388.275200
   1953   1962   1963     1   109.5600471 388.275200
   1953   1962   1964     1   109.5600471 388.275200
   1954   1953   1962     1   109.8000471 387.438400
   1954   1953   1955     1   107.5800459 329.699200
   1955   1953   1962     1   109.8000471 387.438400
   1956   1968   1969     1   109.5600471 388.275200
   1956   1968   1970     1   109.5600471 388.275200
   1957   1956   1968     1   109.8000471 387.438400
   1957   1956   1958     1   107.5800459 329.699200
   1958   1956   1968     1   109.8000471 387.438400
   1959   1965   1966     1   109.5600471 388.275200
   1959   1965   1967     1   109.5600471 388.275200
   1960   1959   1965     1   109.8000471 387.438400
   1960   1959   1961     1   107.5800459 329.699200
   1961   1959   1965     1   109.8000471 387.438400
   1963   1962   1971     1   109.7800468 425.094400
   1963   1962   1964     1   108.4600466 328.025600
   1964   1962   1971     1   109.7800468 425.094400
   1966   1965   3972     1   109.7800468 425.094400
   1966   1965   1967     1   108.4600466 328.025600
   1967   1965   3972     1   109.7800468 425.094400
   1969   1968   4001     1   109.7800468 425.094400
   1969   1968   1970     1   108.4600466 328.025600
   1970   1968   4001     1   109.7800468 425.094400
   1972   1973   1974     1   109.8800469 414.216000
   1972   1973   1975     1   109.8800469 414.216000
   1972   1976   1977     1   109.8800469 414.216000
   1972   1976   1978     1   109.8800469 414.216000
   1972   1979   1980     1   109.8800469 414.216000
   1972   1979   1981     1   109.8800469 414.216000
   1973   1985   1986     1   109.8000471 387.438400
   1973   1985   1987     1   109.8000471 387.438400
   1974   1973   1985     1   109.5600471 388.275200
   1974   1973   1975     1   108.4600466 328.025600
   1975   1973   1985     1   109.5600471 388.275200
   1976   1988   1989     1   109.8000471 387.438400
   1976   1988   1990     1   109.8000471 387.438400
   1977   1976   1988     1   109.5600471 388.275200
   1977   1976   1978     1   108.4600466 328.025600
   1978   1976   1988     1   109.5600471 388.275200
   1979   1982   1983     1   109.8000471 387.438400
   1979   1982   1984     1   109.8000471 387.438400
   1980   1979   1982     1   109.5600471 388.275200
   1980   1979   1981     1   108.4600466 328.025600
   1981   1979   1982     1   109.5600471 388.275200
   1982   1991   1992     1   109.5600471 388.275200
   1982   1991   1993     1   109.5600471 388.275200
   1983   1982   1991     1   109.8000471 387.438400
   1983   1982   1984     1   107.5800459 329.699200
   1984   1982   1991     1   109.8000471 387.438400
   1985   1997   1998     1   109.5600471 388.275200
   1985   1997   1999     1   109.5600471 388.275200
   1986   1985   1997     1   109.8000471 387.438400
   1986   1985   1987     1   107.5800459 329.699200
   1987   1985   1997     1   109.8000471 387.438400
   1988   1994   1995     1   109.5600471 388.275200
   1988   1994   1996     1   109.5600471 388.275200
   1989   1988   1994     1   109.8000471 387.438400
   1989   1988   1990     1   107.5800459 329.699200
   1990   1988   1994     1   109.8000471 387.438400
   1992   1991   2000     1   109.7800468 425.094400
   1992   1991   1993     1   108.4600466 328.025600
   1993   1991   2000     1   109.7800468 425.094400
   1995   1994   4030     1   109.7800468 425.094400
   1995   1994   1996     1   108.4600466 328.025600
   1996   1994   4030     1   109.7800468 425.094400
   1998   1997   4059     1   109.7800468 425.094400
   1998   1997   1999     1   108.4600466 328.025600
   1999   1997   4059     1   109.7800468 425.094400
   2001   2002   2003     1   109.8800469 414.216000
   2001   2002   2004     1   109.8800469 414.216000
   2001   2005   2006     1   109.8800469 414.216000
   2001   2005   2007     1   109.8800469 414.216000
   2001   2008   2009     1   109.8800469 414.216000
   2001   2008   2010     1   109.8800469 414.216000
   2002   2014   2015     1   109.8000471 387.438400
   2002   2014   2016     1   109.8000471 387.438400
   2003   2002   2014     1   109.5600471 388.275200
   2003   2002   2004     1   108.4600466 328.025600
   2004   2002   2014     1   109.5600471 388.275200
   2005   2017   2018     1   109.8000471 387.438400
   2005   2017   2019     1   109.8000471 387.438400
   2006   2005   2017     1   109.5600471 388.275200
   2006   2005   2007     1   108.4600466 328.025600
   2007   2005   2017     1   109.5600471 388.275200
   2008   2011   2012     1   109.8000471 387.438400
   2008   2011   2013     1   109.8000471 387.438400
   2009   2008   2011     1   109.5600471 388.275200
   2009   2008   2010     1   108.4600466 328.025600
   2010   2008   2011     1   109.5600471 388.275200
   2011   2020   2021     1   109.5600471 388.275200
   2011   2020   2022     1   109.5600471 388.275200
   2012   2011   2020     1   109.8000471 387.438400
   2012   2011   2013     1   107.5800459 329.699200
   2013   2011   2020     1   109.8000471 387.438400
   2014   2026   2027     1   109.5600471 388.275200
   2014   2026   2028     1   109.5600471 388.275200
   2015   2014   2026     1   109.8000471 387.438400
   2015   2014   2016     1   107.5800459 329.699200
   2016   2014   2026     1   109.8000471 387.438400
   2017   2023   2024     1   109.5600471 388.275200
   2017   2023   2025     1   109.5600471 388.275200
   2018   2017   2023     1   109.8000471 387.438400
   2018   2017   2019     1   107.5800459 329.699200
   2019   2017   2023     1   109.8000471 387.438400
   2021   2020   2029     1   109.7800468 425.094400
   2021   2020   2022     1   108.4600466 328.025600
   2022   2020   2029     1   109.7800468 425.094400
   2024   2023   4088     1   109.7800468 425.094400
   2024   2023   2025     1   108.4600466 328.025600
   2025   2023   4088     1   109.7800468 425.094400
   2027   2026   4117     1   109.7800468 425.094400
   2027   2026   2028     1   108.4600466 328.025600
   2028   2026   4117     1   109.7800468 425.094400
   2030   2031   2032     1   109.8800469 414.216000
   2030   2031   2033     1   109.8800469 414.216000
   2030   2034   2035     1   109.8800469 414.216000
   2030   2034   2036     1   109.8800469 414.216000
   2030   2037   2038     1   109.8800469 414.216000
   2030   2037   2039     1   109.8800469 414.216000
   2031   2043   2044     1   109.8000471 387.438400
   2031   2043   2045     1   109.8000471 387.438400
   2032   2031   2043     1   109.5600471 388.275200
   2032   2031   2033     1   108.4600466 328.025600
   2033   2031   2043     1   109.5600471 388.275200
   2034   2046   2047     1   109.8000471 387.438400
   2034   2046   2048     1   109.8000471 387.438400
   2035   2034   2046     1   109.5600471 388.275200
   2035   2034   2036     1   108.4600466 328.025600
   2036   2034   2046     1   109.5600471 388.275200
   2037   2040   2041     1   109.8000471 387.438400
   2037   2040   2042     1   109.8000471 387.438400
   2038   2037   2040     1   109.5600471 388.275200
   2038   2037   2039     1   108.4600466 328.025600
   2039   2037   2040     1   109.5600471 388.275200
   2040   2049   2050     1   109.5600471 388.275200
   2040   2049   2051     1   109.5600471 388.275200
   2041   2040   2049     1   109.8000471 387.438400
   2041   2040   2042     1   107.5800459 329.699200
   2042   2040   2049     1   109.8000471 387.438400
   2043   2055   2056     1   109.5600471 388.275200
   2043   2055   2057     1   109.5600471 388.275200
   2044   2043   2055     1   109.8000471 387.438400
   2044   2043   2045     1   107.5800459 329.699200
   2045   2043   2055     1   109.8000471 387.438400
   2046   2052   2053     1   109.5600471 388.275200
   2046   2052   2054     1   109.5600471 388.275200
   2047   2046   2052     1   109.8000471 387.438400
   2047   2046   2048     1   107.5800459 329.699200
   2048   2046   2052     1   109.8000471 387.438400
   2050   2049   2058     1   109.7800468 425.094400
   2050   2049   2051     1   108.4600466 328.025600
   2051   2049   2058     1   109.7800468 425.094400
   2053   2052   4146     1   109.7800468 425.094400
   2053   2052   2054     1   108.4600466 328.025600
   2054   2052   4146     1   109.7800468 425.094400
   2056   2055   4175     1   109.7800468 425.094400
   2056   2055   2057     1   108.4600466 328.025600
   2057   2055   4175     1   109.7800468 425.094400
   2059   2060   2061     1   109.8800469 414.216000
   2059   2060   2062     1   109.8800469 414.216000
   2059   2063   2064     1   109.8800469 414.216000
   2059   2063   2065     1   109.8800469 414.216000
   2059   2066   2067     1   109.8800469 414.216000
   2059   2066   2068     1   109.8800469 414.216000
   2060   2072   2073     1   109.8000471 387.438400
   2060   2072   2074     1   109.8000471 387.438400
   2061   2060   2072     1   109.5600471 388.275200
   2061   2060   2062     1   108.4600466 328.025600
   2062   2060   2072     1   109.5600471 388.275200
   2063   2075   2076     1   109.8000471 387.438400
   2063   2075   2077     1   109.8000471 387.438400
   2064   2063   2075     1   109.5600471 388.275200
   2064   2063   2065     1   108.4600466 328.025600
   2065   2063   2075     1   109.5600471 388.275200
   2066   2069   2070     1   109.8000471 387.438400
   2066   2069   2071     1   109.8000471 387.438400
   2067   2066   2069     1   109.5600471 388.275200
   2067   2066   2068     1   108.4600466 328.025600
   2068   2066   2069     1   109.5600471 388.275200
   2069   2078   2079     1   109.5600471 388.275200
   2069   2078   2080     1   109.5600471 388.275200
   2070   2069   2078     1   109.8000471 387.438400
   2070   2069   2071     1   107.5800459 329.699200
   2071   2069   2078     1   109.8000471 387.438400
   2072   2084   2085     1   109.5600471 388.275200
   2072   2084   2086     1   109.5600471 388.275200
   2073   2072   2084     1   109.8000471 387.438400
   2073   2072   2074     1   107.5800459 329.699200
   2074   2072   2084     1   109.8000471 387.438400
   2075   2081   2082     1   109.5600471 388.275200
   2075   2081   2083     1   109.5600471 388.275200
   2076   2075   2081     1   109.8000471 387.438400
   2076   2075   2077     1   107.5800459 329.699200
   2077   2075   2081     1   109.8000471 387.438400
   2079   2078   2087     1   109.7800468 425.094400
   2079   2078   2080     1   108.4600466 328.025600
   2080   2078   2087     1   109.7800468 425.094400
   2082   2081   4204     1   109.7800468 425.094400
   2082   2081   2083     1   108.4600466 328.025600
   2083   2081   4204     1   109.7800468 425.094400
   2085   2084   4233     1   109.7800468 425.094400
   2085   2084   2086     1   108.4600466 328.025600
   2086   2084   4233     1   109.7800468 425.094400
   2088   2089   2090     1   109.8800469 414.216000
   2088   2089   2091     1   109.8800469 414.216000
   2088   2092   2093     1   109.8800469 414.216000
   2088   2092   2094     1   109.8800469 414.216000
   2088   2095   2096     1   109.8800469 414.216000
   2088   2095   2097     1   109.8800469 414.216000
   2089   2101   2102     1   109.8000471 387.438400
   2089   2101   2103     1   109.8000471 387.438400
   2090   2089   2101     1   109.5600471 388.275200
   2090   2089   2091     1   108.4600466 328.025600
   2091   2089   2101     1   109.5600471 388.275200
   2092   2104   2105     1   109.8000471 387.438400
   2092   2104   2106     1   109.8000471 387.438400
   2093   2092   2104     1   109.5600471 388.275200
   2093   2092   2094     1   108.4600466 328.025600
   2094   2092   2104     1   109.5600471 388.275200
   2095   2098   2099     1   109.8000471 387.438400
   2095   2098   2100     1   109.8000471 387.438400
   2096   2095   2098     1   109.5600471 388.275200
   2096   2095   2097     1   108.4600466 328.025600
   2097   2095   2098     1   109.5600471 388.275200
   2098   2107   2108     1   109.5600471 388.275200
   2098   2107   2109     1   109.5600471 388.275200
   2099   2098   2107     1   109.8000471 387.438400
   2099   2098   2100     1   107.5800459 329.699200
   2100   2098   2107     1   109.8000471 387.438400
   2101   2113   2114     1   109.5600471 388.275200
   2101   2113   2115     1   109.5600471 388.275200
   2102   2101   2113     1   109.8000471 387.438400
   2102   2101   2103     1   107.5800459 329.699200
   2103   2101   2113     1   109.8000471 387.438400
   2104   2110   2111     1   109.5600471 388.275200
   2104   2110   2112     1   109.5600471 388.275200
   2105   2104   2110     1   109.8000471 387.438400
   2105   2104   2106     1   107.5800459 329.699200
   2106   2104   2110     1   109.8000471 387.438400
   2108   2107   2116     1   109.7800468 425.094400
   2108   2107   2109     1   108.4600466 328.025600
   2109   2107   2116     1   109.7800468 425.094400
   2111   2110   4262     1   109.7800468 425.094400
   2111   2110   2112     1   108.4600466 328.025600
   2112   2110   4262     1   109.7800468 425.094400
   2114   2113   4291     1   109.7800468 425.094400
   2114   2113   2115     1   108.4600466 328.025600
   2115   2113   4291     1   109.7800468 425.094400
   2117   2118   2119     1   109.8800469 414.216000
   2117   2118   2120     1   109.8800469 414.216000
   2117   2121   2122     1   109.8800469 414.216000
   2117   2121   2123     1   109.8800469 414.216000
   2117   2124   2125     1   109.8800469 414.216000
   2117   2124   2126     1   109.8800469 414.216000
   2118   2130   2131     1   109.8000471 387.438400
   2118   2130   2132     1   109.8000471 387.438400
   2119   2118   2130     1   109.5600471 388.275200
   2119   2118   2120     1   108.4600466 328.025600
   2120   2118   2130     1   109.5600471 388.275200
   2121   2133   2134     1   109.8000471 387.438400
   2121   2133   2135     1   109.8000471 387.438400
   2122   2121   2133     1   109.5600471 388.275200
   2122   2121   2123     1   108.4600466 328.025600
   2123   2121   2133     1   109.5600471 388.275200
   2124   2127   2128     1   109.8000471 387.438400
   2124   2127   2129     1   109.8000471 387.438400
   2125   2124   2127     1   109.5600471 388.275200
   2125   2124   2126     1   108.4600466 328.025600
   2126   2124   2127     1   109.5600471 388.275200
   2127   2136   2137     1   109.5600471 388.275200
   2127   2136   2138     1   109.5600471 388.275200
   2128   2127   2136     1   109.8000471 387.438400
   2128   2127   2129     1   107.5800459 329.699200
   2129   2127   2136     1   109.8000471 387.438400
   2130   2142   2143     1   109.5600471 388.275200
   2130   2142   2144     1   109.5600471 388.275200
   2131   2130   2142     1   109.8000471 387.438400
   2131   2130   2132     1   107.5800459 329.699200
   2132   2130   2142     1   109.8000471 387.438400
   2133   2139   2140     1   109.5600471 388.275200
   2133   2139   2141     1   109.5600471 388.275200
   2134   2133   2139     1   109.8000471 387.438400
   2134   2133   2135     1   107.5800459 329.699200
   2135   2133   2139     1   109.8000471 387.438400
   2137   2136   2145     1   109.7800468 425.094400
   2137   2136   2138     1   108.4600466 328.025600
   2138   2136   2145     1   109.7800468 425.094400
   2140   2139   4320     1   109.7800468 425.094400
   2140   2139   2141     1   108.4600466 328.025600
   2141   2139   4320     1   109.7800468 425.094400
   2143   2142   4349     1   109.7800468 425.094400
   2143   2142   2144     1   108.4600466 328.025600
   2144   2142   4349     1   109.7800468 425.094400
   2146   2147   2148     1   109.8800469 414.216000
   2146   2147   2149     1   109.8800469 414.216000
   2146   2150   2151     1   109.8800469 414.216000
   2146   2150   2152     1   109.8800469 414.216000
   2146   2153   2154     1   109.8800469 414.216000
   2146   2153   2155     1   109.8800469 414.216000
   2147   2159   2160     1   109.8000471 387.438400
   2147   2159   2161     1   109.8000471 387.438400
   2148   2147   2159     1   109.5600471 388.275200
   2148   2147   2149     1   108.4600466 328.025600
   2149   2147   2159     1   109.5600471 388.275200
   2150   2162   2163     1   109.8000471 387.438400
   2150   2162   2164     1   109.8000471 387.438400
   2151   2150   2162     1   109.5600471 388.275200
   2151   2150   2152     1   108.4600466 328.025600
   2152   2150   2162     1   109.5600471 388.275200
   2153   2156   2157     1   109.8000471 387.438400
   2153   2156   2158     1   109.8000471 387.438400
   2154   2153   2156     1   109.5600471 388.275200
   2154   2153   2155     1   108.4600466 328.025600
   2155   2153   2156     1   109.5600471 388.275200
   2156   2165   2166     1   109.5600471 388.275200
   2156   2165   2167     1   109.5600471 388.275200
   2157   2156   2165     1   109.8000471 387.438400
   2157   2156   2158     1   107.5800459 329.699200
   2158   2156   2165     1   109.8000471 387.438400
   2159   2171   2172     1   109.5600471 388.275200
   2159   2171   2173     1   109.5600471 388.275200
   2160   2159   2171     1   109.8000471 387.438400
   2160   2159   2161     1   107.5800459 329.699200
   2161   2159   2171     1   109.8000471 387.438400
   2162   2168   2169     1   109.5600471 388.275200
   2162   2168   2170     1   109.5600471 388.275200
   2163   2162   2168     1   109.8000471 387.438400
   2163   2162   2164     1   107.5800459 329.699200
   2164   2162   2168     1   109.8000471 387.438400
   2166   2165   2174     1   109.7800468 425.094400
   2166   2165   2167     1   108.4600466 328.025600
   2167   2165   2174     1   109.7800468 425.094400
   2169   2168   4378     1   109.7800468 425.094400
   2169   2168   2170     1   108.4600466 328.025600
   2170   2168   4378     1   109.7800468 425.094400
   2172   2171   4407     1   109.7800468 425.094400
   2172   2171   2173     1   108.4600466 328.025600
   2173   2171   4407     1   109.7800468 425.094400
   2175   2176   2177     1   109.8800469 414.216000
   2175   2176   2178     1   109.8800469 414.216000
   2175   2179   2180     1   109.8800469 414.216000
   2175   2179   2181     1   109.8800469 414.216000
   2175   2182   2183     1   109.8800469 414.216000
   2175   2182   2184     1   109.8800469 414.216000
   2176   2188   2189     1   109.8000471 387.438400
   2176   2188   2190     1   109.8000471 387.438400
   2177   2176   2188     1   109.5600471 388.275200
   2177   2176   2178     1   108.4600466 328.025600
   2178   2176   2188     1   109.5600471 388.275200
   2179   2191   2192     1   109.8000471 387.438400
   2179   2191   2193     1   109.8000471 387.438400
   2180   2179   2191     1   109.5600471 388.275200
   2180   2179   2181     1   108.4600466 328.025600
   2181   2179   2191     1   109.5600471 388.275200
   2182   2185   2186     1   109.8000471 387.438400
   2182   2185   2187     1   109.8000471 387.438400
   2183   2182   2185     1   109.5600471 388.275200
   2183   2182   2184     1   108.4600466 328.025600
   2184   2182   2185     1   109.5600471 388.275200
   2185   2194   2195     1   109.5600471 388.275200
   2185   2194   2196     1   109.5600471 388.275200
   2186   2185   2194     1   109.8000471 387.438400
   2186   2185   2187     1   107.5800459 329.699200
   2187   2185   2194     1   109.8000471 387.438400
   2188   2200   2201     1   109.5600471 388.275200
   2188   2200   2202     1   109.5600471 388.275200
   2189   2188   2200     1   109.8000471 387.438400
   2189   2188   2190     1   107.5800459 329.699200
   2190   2188   2200     1   109.8000471 387.438400
   2191   2197   2198     1   109.5600471 388.275200
   2191   2197   2199     1   109.5600471 388.275200
   2192   2191   2197     1   109.8000471 387.438400
   2192   2191   2193     1   107.5800459 329.699200
   2193   2191   2197     1   109.8000471 387.438400
   2195   2194   2203     1   109.7800468 425.094400
   2195   2194   2196     1   108.4600466 328.025600
   2196   2194   2203     1   109.7800468 425.094400
   2198   2197   4436     1   109.7800468 425.094400
   2198   2197   2199     1   108.4600466 328.025600
   2199   2197   4436     1   109.7800468 425.094400
   2201   2200   4465     1   109.7800468 425.094400
   2201   2200   2202     1   108.4600466 328.025600
   2202   2200   4465     1   109.7800468 425.094400
   2204   2205   2206     1   109.8800469 414.216000
   2204   2205   2207     1   109.8800469 414.216000
   2204   2208   2209     1   109.8800469 414.216000
   2204   2208   2210     1   109.8800469 414.216000
   2204   2211   2212     1   109.8800469 414.216000
   2204   2211   2213     1   109.8800469 414.216000
   2205   2217   2218     1   109.8000471 387.438400
   2205   2217   2219     1   109.8000471 387.438400
   2206   2205   2217     1   109.5600471 388.275200
   2206   2205   2207     1   108.4600466 328.025600
   2207   2205   2217     1   109.5600471 388.275200
   2208   2220   2221     1   109.8000471 387.438400
   2208   2220   2222     1   109.8000471 387.438400
   2209   2208   2220     1   109.5600471 388.275200
   2209   2208   2210     1   108.4600466 328.025600
   2210   2208   2220     1   109.5600471 388.275200
   2211   2214   2215     1   109.8000471 387.438400
   2211   2214   2216     1   109.8000471 387.438400
   2212   2211   2214     1   109.5600471 388.275200
   2212   2211   2213     1   108.4600466 328.025600
   2213   2211   2214     1   109.5600471 388.275200
   2214   2223   2224     1   109.5600471 388.275200
   2214   2223   2225     1   109.5600471 388.275200
   2215   2214   2223     1   109.8000471 387.438400
   2215   2214   2216     1   107.5800459 329.699200
   2216   2214   2223     1   109.8000471 387.438400
   2217   2229   2230     1   109.5600471 388.275200
   2217   2229   2231     1   109.5600471 388.275200
   2218   2217   2229     1   109.8000471 387.438400
   2218   2217   2219     1   107.5800459 329.699200
   2219   2217   2229     1   109.8000471 387.438400
   2220   2226   2227     1   109.5600471 388.275200
   2220   2226   2228     1   109.5600471 388.275200
   2221   2220   2226     1   109.8000471 387.438400
   2221   2220   2222     1   107.5800459 329.699200
   2222   2220   2226     1   109.8000471 387.438400
   2224   2223   2232     1   109.7800468 425.094400
   2224   2223   2225     1   108.4600466 328.025600
   2225   2223   2232     1   109.7800468 425.094400
   2227   2226   4494     1   109.7800468 425.094400
   2227   2226   2228     1   108.4600466 328.025600
   2228   2226   4494     1   109.7800468 425.094400
   2230   2229   4523     1   109.7800468 425.094400
   2230   2229   2231     1   108.4600466 328.025600
   2231   2229   4523     1   109.7800468 425.094400
   2233   2234   2235     1   109.8800469 414.216000
   2233   2234   2236     1   109.8800469 414.216000
   2233   2237   2238     1   109.8800469 414.216000
   2233   2237   2239     1   109.8800469 414.216000
   2233   2240   2241     1   109.8800469 414.216000
   2233   2240   2242     1   109.8800469 414.216000
   2234   2246   2247     1   109.8000471 387.438400
   2234   2246   2248     1   109.8000471 387.438400
   2235   2234   2246     1   109.5600471 388.275200
   2235   2234   2236     1   108.4600466 328.025600
   2236   2234   2246     1   109.5600471 388.275200
   2237   2249   2250     1   109.8000471 387.438400
   2237   2249   2251     1   109.8000471 387.438400
   2238   2237   2249     1   109.5600471 388.275200
   2238   2237   2239     1   108.4600466 328.025600
   2239   2237   2249     1   109.5600471 388.275200
   2240   2243   2244     1   109.8000471 387.438400
   2240   2243   2245     1   109.8000471 387.438400
   2241   2240   2243     1   109.5600471 388.275200
   2241   2240   2242     1   108.4600466 328.025600
   2242   2240   2243     1   109.5600471 388.275200
   2243   2252   2253     1   109.5600471 388.275200
   2243   2252   2254     1   109.5600471 388.275200
   2244   2243   2252     1   109.8000471 387.438400
   2244   2243   2245     1   107.5800459 329.699200
   2245   2243   2252     1   109.8000471 387.438400
   2246   2258   2259     1   109.5600471 388.275200
   2246   2258   2260     1   109.5600471 388.275200
   2247   2246   2258     1   109.8000471 387.438400
   2247   2246   2248     1   107.5800459 329.699200
   2248   2246   2258     1   109.8000471 387.438400
   2249   2255   2256     1   109.5600471 388.275200
   2249   2255   2257     1   109.5600471 388.275200
   2250   2249   2255     1   109.8000471 387.438400
   2250   2249   2251     1   107.5800459 329.699200
   2251   2249   2255     1   109.8000471 387.438400
   2253   2252   2261     1   109.7800468 425.094400
   2253   2252   2254     1   108.4600466 328.025600
   2254   2252   2261     1   109.7800468 425.094400
   2256   2255   4552     1   109.7800468 425.094400
   2256   2255   2257     1   108.4600466 328.025600
   2257   2255   4552     1   109.7800468 425.094400
   2259   2258   4581     1   109.7800468 425.094400
   2259   2258   2260     1   108.4600466 328.025600
   2260   2258   4581     1   109.7800468 425.094400
   2262   2263   2264     1   109.8800469 414.216000
   2262   2263   2265     1   109.8800469 414.216000
   2262   2266   2267     1   109.8800469 414.216000
   2262   2266   2268     1   109.8800469 414.216000
   2262   2269   2270     1   109.8800469 414.216000
   2262   2269   2271     1   109.8800469 414.216000
   2263   2275   2276     1   109.8000471 387.438400
   2263   2275   2277     1   109.8000471 387.438400
   2264   2263   2275     1   109.5600471 388.275200
   2264   2263   2265     1   108.4600466 328.025600
   2265   2263   2275     1   109.5600471 388.275200
   2266   2278   2279     1   109.8000471 387.438400
   2266   2278   2280     1   109.8000471 387.438400
   2267   2266   2278     1   109.5600471 388.275200
   2267   2266   2268     1   108.4600466 328.025600
   2268   2266   2278     1   109.5600471 388.275200
   2269   2272   2273     1   109.8000471 387.438400
   2269   2272   2274     1   109.8000471 387.438400
   2270   2269   2272     1   109.5600471 388.275200
   2270   2269   2271     1   108.4600466 328.025600
   2271   2269   2272     1   109.5600471 388.275200
   2272   2281   2282     1   109.5600471 388.275200
   2272   2281   2283     1   109.5600471 388.275200
   2273   2272   2281     1   109.8000471 387.438400
   2273   2272   2274     1   107.5800459 329.699200
   2274   2272   2281     1   109.8000471 387.438400
   2275   2287   2288     1   109.5600471 388.275200
   2275   2287   2289     1   109.5600471 388.275200
   2276   2275   2287     1   109.8000471 387.438400
   2276   2275   2277     1   107.5800459 329.699200
   2277   2275   2287     1   109.8000471 387.438400
   2278   2284   2285     1   109.5600471 388.275200
   2278   2284   2286     1   109.5600471 388.275200
   2279   2278   2284     1   109.8000471 387.438400
   2279   2278   2280     1   107.5800459 329.699200
   2280   2278   2284     1   109.8000471 387.438400
   2282   2281   2290     1   109.7800468 425.094400
   2282   2281   2283     1   108.4600466 328.025600
   2283   2281   2290     1   109.7800468 425.094400
   2285   2284   4610     1   109.7800468 425.094400
   2285   2284   2286     1   108.4600466 328.025600
   2286   2284   4610     1   109.7800468 425.094400
   2288   2287   4639     1   109.7800468 425.094400
   2288   2287   2289     1   108.4600466 328.025600
   2289   2287   4639     1   109.7800468 425.094400
   2291   2292   2293     1   109.8800469 414.216000
   2291   2292   2294     1   109.8800469 414.216000
   2291   2295   2296     1   109.8800469 414.216000
   2291   2295   2297     1   109.8800469 414.216000
   2291   2298   2299     1   109.8800469 414.216000
   2291   2298   2300     1   109.8800469 414.216000
   2292   2304   2305     1   109.8000471 387.438400
   2292   2304   2306     1   109.8000471 387.438400
   2293   2292   2304     1   109.5600471 388.275200
   2293   2292   2294     1   108.4600466 328.025600
   2294   2292   2304     1   109.5600471 388.275200
   2295   2307   2308     1   109.8000471 387.438400
   2295   2307   2309     1   109.8000471 387.438400
   2296   2295   2307     1   109.5600471 388.275200
   2296   2295   2297     1   108.4600466 328.025600
   2297   2295   2307     1   109.5600471 388.275200
   2298   2301   2302     1   109.8000471 387.438400
   2298   2301   2303     1   109.8000471 387.438400
   2299   2298   2301     1   109.5600471 388.275200
   2299   2298   2300     1   108.4600466 328.025600
   2300   2298   2301     1   109.5600471 388.275200
   2301   2310   2311     1   109.5600471 388.275200
   2301   2310   2312     1   109.5600471 388.275200
   2302   2301   2310     1   109.8000471 387.438400
   2302   2301   2303     1   107.5800459 329.699200
   2303   2301   2310     1   109.8000471 387.438400
   2304   2316   2317     1   109.5600471 388.275200
   2304   2316   2318     1   109.5600471 388.275200
   2305   2304   2316     1   109.8000471 387.438400
   2305   2304   2306     1   107.5800459 329.699200
   2306   2304   2316     1   109.8000471 387.438400
   2307   2313   2314     1   109.5600471 388.275200
   2307   2313   2315     1   109.5600471 388.275200
   2308   2307   2313     1   109.8000471 387.438400
   2308   2307   2309     1   107.5800459 329.699200
   2309   2307   2313     1   109.8000471 387.438400
   2311   2310   2319     1   109.7800468 425.094400
   2311   2310   2312     1   108.4600466 328.025600
   2312   2310   2319     1   109.7800468 425.094400
   2314   2313   4668     1   109.7800468 425.094400
   2314   2313   2315     1   108.4600466 328.025600
   2315   2313   4668     1   109.7800468 425.094400
   2317   2316   4697     1   109.7800468 425.094400
   2317   2316   2318     1   108.4600466 328.025600
   2318   2316   4697     1   109.7800468 425.094400
   2320   2321   2322     1   109.8800469 414.216000
   2320   2321   2323     1   109.8800469 414.216000
   2320   2324   2325     1   109.8800469 414.216000
   2320   2324   2326     1   109.8800469 414.216000
   2320   2327   2328     1   109.8800469 414.216000
   2320   2327   2329     1   109.8800469 414.216000
   2321   2333   2334     1   109.8000471 387.438400
   2321   2333   2335     1   109.8000471 387.438400
   2322   2321   2333     1   109.5600471 388.275200
   2322   2321   2323     1   108.4600466 328.025600
   2323   2321   2333     1   109.5600471 388.275200
   2324   2336   2337     1   109.8000471 387.438400
   2324   2336   2338     1   109.8000471 387.438400
   2325   2324   2336     1   109.5600471 388.275200
   2325   2324   2326     1   108.4600466 328.025600
   2326   2324   2336     1   109.5600471 388.275200
   2327   2330   2331     1   109.8000471 387.438400
   2327   2330   2332     1   109.8000471 387.438400
   2328   2327   2330     1   109.5600471 388.275200
   2328   2327   2329     1   108.4600466 328.025600
   2329   2327   2330     1   109.5600471 388.275200
   2330   2339   2340     1   109.5600471 388.275200
   2330   2339   2341     1   109.5600471 388.275200
   2331   2330   2339     1   109.8000471 387.438400
   2331   2330   2332     1   107.5800459 329.699200
   2332   2330   2339     1   109.8000471 387.438400
   2333   2345   2346     1   109.5600471 388.275200
   2333   2345   2347     1   109.5600471 388.275200
   2334   2333   2345     1   109.8000471 387.438400
   2334   2333   2335     1   107.5800459 329.699200
   2335   2333   2345     1   109.8000471 387.438400
   2336   2342   2343     1   109.5600471 388.275200
   2336   2342   2344     1   109.5600471 388.275200
   2337   2336   2342     1   109.8000471 387.438400
   2337   2336   2338     1   107.5800459 329.699200
   2338   2336   2342     1   109.8000471 387.438400
   2340   2339   2348     1   109.7800468 425.094400
   2340   2339   2341     1   108.4600466 328.025600
   2341   2339   2348     1   109.7800468 425.094400
   2343   2342   4726     1   109.7800468 425.094400
   2343   2342   2344     1   108.4600466 328.025600
   2344   2342   4726     1   109.7800468 425.094400
   2346   2345   4755     1   109.7800468 425.094400
   2346   2345   2347     1   108.4600466 328.025600
   2347   2345   4755     1   109.7800468 425.094400
   2349   2350   2351     1   109.8800469 414.216000
   2349   2350   2352     1   109.8800469 414.216000
   2349   2353   2354     1   109.8800469 414.216000
   2349   2353   2355     1   109.8800469 414.216000
   2349   2356   2357     1   109.8800469 414.216000
   2349   2356   2358     1   109.8800469 414.216000
   2350   2362   2363     1   109.8000471 387.438400
   2350   2362   2364     1   109.8000471 387.438400
   2351   2350   2362     1   109.5600471 388.275200
   2351   2350   2352     1   108.4600466 328.025600
   2352   2350   2362     1   109.5600471 388.275200
   2353   2365   2366     1   109.8000471 387.438400
   2353   2365   2367     1   109.8000471 387.438400
   2354   2353   2365     1   109.5600471 388.275200
   2354   2353   2355     1   108.4600466 328.025600
   2355   2353   2365     1   109.5600471 388.275200
   2356   2359   2360     1   109.8000471 387.438400
   2356   2359   2361     1   109.8000471 387.438400
   2357   2356   2359     1   109.5600471 388.275200
   2357   2356   2358     1   108.4600466 328.025600
   2358   2356   2359     1   109.5600471 388.275200
   2359   2368   2369     1   109.5600471 388.275200
   2359   2368   2370     1   109.5600471 388.275200
   2360   2359   2368     1   109.8000471 387.438400
   2360   2359   2361     1   107.5800459 329.699200
   2361   2359   2368     1   109.8000471 387.438400
   2362   2374   2375     1   109.5600471 388.275200
   2362   2374   2376     1   109.5600471 388.275200
   2363   2362   2374     1   109.8000471 387.438400
   2363   2362   2364     1   107.5800459 329.699200
   2364   2362   2374     1   109.8000471 387.438400
   2365   2371   2372     1   109.5600471 388.275200
   2365   2371   2373     1   109.5600471 388.275200
   2366   2365   2371     1   109.8000471 387.438400
   2366   2365   2367     1   107.5800459 329.699200
   2367   2365   2371     1   109.8000471 387.438400
   2369   2368   2377     1   109.7800468 425.094400
   2369   2368   2370     1   108.4600466 328.025600
   2370   2368   2377     1   109.7800468 425.094400
   2372   2371   4784     1   109.7800468 425.094400
   2372   2371   2373     1   108.4600466 328.025600
   2373   2371   4784     1   109.7800468 425.094400
   2375   2374   4813     1   109.7800468 425.094400
   2375   2374   2376     1   108.4600466 328.025600
   2376   2374   4813     1   109.7800468 425.094400
   2378   2379   2380     1   109.8800469 414.216000
   2378   2379   2381     1   109.8800469 414.216000
   2378   2382   2383     1   109.8800469 414.216000
   2378   2382   2384     1   109.8800469 414.216000
   2378   2385   2386     1   109.8800469 414.216000
   2378   2385   2387     1   109.8800469 414.216000
   2379   2391   2392     1   109.8000471 387.438400
   2379   2391   2393     1   109.8000471 387.438400
   2380   2379   2391     1   109.5600471 388.275200
   2380   2379   2381     1   108.4600466 328.025600
   2381   2379   2391     1   109.5600471 388.275200
   2382   2394   2395     1   109.8000471 387.438400
   2382   2394   2396     1   109.8000471 387.438400
   2383   2382   2394     1   109.5600471 388.275200
   2383   2382   2384     1   108.4600466 328.025600
   2384   2382   2394     1   109.5600471 388.275200
   2385   2388   2389     1   109.8000471 387.438400
   2385   2388   2390     1   109.8000471 387.438400
   2386   2385   2388     1   109.5600471 388.275200
   2386   2385   2387     1   108.4600466 328.025600
   2387   2385   2388     1   109.5600471 388.275200
   2388   2397   2398     1   109.5600471 388.275200
   2388   2397   2399     1   109.5600471 388.275200
   2389   2388   2397     1   109.8000471 387.438400
   2389   2388   2390     1   107.5800459 329.699200
   2390   2388   2397     1   109.8000471 387.438400
   2391   2403   2404     1   109.5600471 388.275200
   2391   2403   2405     1   109.5600471 388.275200
   2392   2391   2403     1   109.8000471 387.438400
   2392   2391   2393     1   107.5800459 329.699200
   2393   2391   2403     1   109.8000471 387.438400
   2394   2400   2401     1   109.5600471 388.275200
   2394   2400   2402     1   109.5600471 388.275200
   2395   2394   2400     1   109.8000471 387.438400
   2395   2394   2396     1   107.5800459 329.699200
   2396   2394   2400     1   109.8000471 387.438400
   2398   2397   2406     1   109.7800468 425.094400
   2398   2397   2399     1   108.4600466 328.025600
   2399   2397   2406     1   109.7800468 425.094400
   2401   2400   4842     1   109.7800468 425.094400
   2401   2400   2402     1   108.4600466 328.025600
   2402   2400   4842     1   109.7800468 425.094400
   2404   2403   4871     1   109.7800468 425.094400
   2404   2403   2405     1   108.4600466 328.025600
   2405   2403   4871     1   109.7800468 425.094400
   2407   2408   2409     1   109.8800469 414.216000
   2407   2408   2410     1   109.8800469 414.216000
   2407   2411   2412     1   109.8800469 414.216000
   2407   2411   2413     1   109.8800469 414.216000
   2407   2414   2415     1   109.8800469 414.216000
   2407   2414   2416     1   109.8800469 414.216000
   2408   2420   2421     1   109.8000471 387.438400
   2408   2420   2422     1   109.8000471 387.438400
   2409   2408   2420     1   109.5600471 388.275200
   2409   2408   2410     1   108.4600466 328.025600
   2410   2408   2420     1   109.5600471 388.275200
   2411   2423   2424     1   109.8000471 387.438400
   2411   2423   2425     1   109.8000471 387.438400
   2412   2411   2423     1   109.5600471 388.275200
   2412   2411   2413     1   108.4600466 328.025600
   2413   2411   2423     1   109.5600471 388.275200
   2414   2417   2418     1   109.8000471 387.438400
   2414   2417   2419     1   109.8000471 387.438400
   2415   2414   2417     1   109.5600471 388.275200
   2415   2414   2416     1   108.4600466 328.025600
   2416   2414   2417     1   109.5600471 388.275200
   2417   2426   2427     1   109.5600471 388.275200
   2417   2426   2428     1   109.5600471 388.275200
   2418   2417   2426     1   109.8000471 387.438400
   2418   2417   2419     1   107.5800459 329.699200
   2419   2417   2426     1   109.8000471 387.438400
   2420   2432   2433     1   109.5600471 388.275200
   2420   2432   2434     1   109.5600471 388.275200
   2421   2420   2432     1   109.8000471 387.438400
   2421   2420   2422     1   107.5800459 329.699200
   2422   2420   2432     1   109.8000471 387.438400
   2423   2429   2430     1   109.5600471 388.275200
   2423   2429   2431     1   109.5600471 388.275200
   2424   2423   2429     1   109.8000471 387.438400
   2424   2423   2425     1   107.5800459 329.699200
   2425   2423   2429     1   109.8000471 387.438400
   2427   2426   2435     1   109.7800468 425.094400
   2427   2426   2428     1   108.4600466 328.025600
   2428   2426   2435     1   109.7800468 425.094400
   2430   2429   4900     1   109.7800468 425.094400
   2430   2429   2431     1   108.4600466 328.025600
   2431   2429   4900     1   109.7800468 425.094400
   2433   2432   4929     1   109.7800468 425.094400
   2433   2432   2434     1   108.4600466 328.025600
   2434   2432   4929     1   109.7800468 425.094400
   2436   2437   2438     1   109.8800469 414.216000
   2436   2437   2439     1   109.8800469 414.216000
   2436   2440   2441     1   109.8800469 414.216000
   2436   2440   2442     1   109.8800469 414.216000
   2436   2443   2444     1   109.8800469 414.216000
   2436   2443   2445     1   109.8800469 414.216000
   2437   2449   2450     1   109.8000471 387.438400
   2437   2449   2451     1   109.8000471 387.438400
   2438   2437   2449     1   109.5600471 388.275200
   2438   2437   2439     1   108.4600466 328.025600
   2439   2437   2449     1   109.5600471 388.275200
   2440   2452   2453     1   109.8000471 387.438400
   2440   2452   2454     1   109.8000471 387.438400
   2441   2440   2452     1   109.5600471 388.275200
   2441   2440   2442     1   108.4600466 328.025600
   2442   2440   2452     1   109.5600471 388.275200
   2443   2446   2447     1   109.8000471 387.438400
   2443   2446   2448     1   109.8000471 387.438400
   2444   2443   2446     1   109.5600471 388.275200
   2444   2443   2445     1   108.4600466 328.025600
   2445   2443   2446     1   109.5600471 388.275200
   2446   2455   2456     1   109.5600471 388.275200
   2446   2455   2457     1   109.5600471 388.275200
   2447   2446   2455     1   109.8000471 387.438400
   2447   2446   2448     1   107.5800459 329.699200
   2448   2446   2455     1   109.8000471 387.438400
   2449   2461   2462     1   109.5600471 388.275200
   2449   2461   2463     1   109.5600471 388.275200
   2450   2449   2461     1   109.8000471 387.438400
   2450   2449   2451     1   107.5800459 329.699200
   2451   2449   2461     1   109.8000471 387.438400
   2452   2458   2459     1   109.5600471 388.275200
   2452   2458   2460     1   109.5600471 388.275200
   2453   2452   2458     1   109.8000471 387.438400
   2453   2452   2454     1   107.5800459 329.699200
   2454   2452   2458     1   109.8000471 387.438400
   2456   2455   2464     1   109.7800468 425.094400
   2456   2455   2457     1   108.4600466 328.025600
   2457   2455   2464     1   109.7800468 425.094400
   2459   2458   4958     1   109.7800468 425.094400
   2459   2458   2460     1   108.4600466 328.025600
   2460   2458   4958     1   109.7800468 425.094400
   2462   2461   4987     1   109.7800468 425.094400
   2462   2461   2463     1   108.4600466 328.025600
   2463   2461   4987     1   109.7800468 425.094400
   2465   2466   2467     1   109.8800469 414.216000
   2465   2466   2468     1   109.8800469 414.216000
   2465   2469   2470     1   109.8800469 414.216000
   2465   2469   2471     1   109.8800469 414.216000
   2465   2472   2473     1   109.8800469 414.216000
   2465   2472   2474     1   109.8800469 414.216000
   2466   2478   2479     1   109.8000471 387.438400
   2466   2478   2480     1   109.8000471 387.438400
   2467   2466   2478     1   109.5600471 388.275200
   2467   2466   2468     1   108.4600466 328.025600
   2468   2466   2478     1   109.5600471 388.275200
   2469   2481   2482     1   109.8000471 387.438400
   2469   2481   2483     1   109.8000471 387.438400
   2470   2469   2481     1   109.5600471 388.275200
   2470   2469   2471     1   108.4600466 328.025600
   2471   2469   2481     1   109.5600471 388.275200
   2472   2475   2476     1   109.8000471 387.438400
   2472   2475   2477     1   109.8000471 387.438400
   2473   2472   2475     1   109.5600471 388.275200
   2473   2472   2474     1   108.4600466 328.025600
   2474   2472   2475     1   109.5600471 388.275200
   2475   2484   2485     1   109.5600471 388.275200
   2475   2484   2486     1   109.5600471 388.275200
   2476   2475   2484     1   109.8000471 387.438400
   2476   2475   2477     1   107.5800459 329.699200
   2477   2475   2484     1   109.8000471 387.438400
   2478   2490   2491     1   109.5600471 388.275200
   2478   2490   2492     1   109.5600471 388.275200
   2479   2478   2490     1   109.8000471 387.438400
   2479   2478   2480     1   107.5800459 329.699200
   2480   2478   2490     1   109.8000471 387.438400
   2481   2487   2488     1   109.5600471 388.275200
   2481   2487   2489     1   109.5600471 388.275200
   2482   2481   2487     1   109.8000471 387.438400
   2482   2481   2483     1   107.5800459 329.699200
   2483   2481   2487     1   109.8000471 387.438400
   2485   2484   2493     1   109.7800468 425.094400
   2485   2484   2486     1   108.4600466 328.025600
   2486   2484   2493     1   109.7800468 425.094400
   2488   2487   5016     1   109.7800468 425.094400
   2488   2487   2489     1   108.4600466 328.025600
   2489   2487   5016     1   109.7800468 425.094400
   2491   2490   5045     1   109.7800468 425.094400
   2491   2490   2492     1   108.4600466 328.025600
   2492   2490   5045     1   109.7800468 425.094400
   2494   2495   2496     1   109.8800469 414.216000
   2494   2495   2497     1   109.8800469 414.216000
   2494   2498   2499     1   109.8800469 414.216000
   2494   2498   2500     1   109.8800469 414.216000
   2494   2501   2502     1   109.8800469 414.216000
   2494   2501   2503     1   109.8800469 414.216000
   2495   2507   2508     1   109.8000471 387.438400
   2495   2507   2509     1   109.8000471 387.438400
   2496   2495   2507     1   109.5600471 388.275200
   2496   2495   2497     1   108.4600466 328.025600
   2497   2495   2507     1   109.5600471 388.275200
   2498   2510   2511     1   109.8000471 387.438400
   2498   2510   2512     1   109.8000471 387.438400
   2499   2498   2510     1   109.5600471 388.275200
   2499   2498   2500     1   108.4600466 328.025600
   2500   2498   2510     1   109.5600471 388.275200
   2501   2504   2505     1   109.8000471 387.438400
   2501   2504   2506     1   109.8000471 387.438400
   2502   2501   2504     1   109.5600471 388.275200
   2502   2501   2503     1   108.4600466 328.025600
   2503   2501   2504     1   109.5600471 388.275200
   2504   2513   2514     1   109.5600471 388.275200
   2504   2513   2515     1   109.5600471 388.275200
   2505   2504   2513     1   109.8000471 387.438400
   2505   2504   2506     1   107.5800459 329.699200
   2506   2504   2513     1   109.8000471 387.438400
   2507   2519   2520     1   109.5600471 388.275200
   2507   2519   2521     1   109.5600471 388.275200
   2508   2507   2519     1   109.8000471 387.438400
   2508   2507   2509     1   107.5800459 329.699200
   2509   2507   2519     1   109.8000471 387.438400
   2510   2516   2517     1   109.5600471 388.275200
   2510   2516   2518     1   109.5600471 388.275200
   2511   2510   2516     1   109.8000471 387.438400
   2511   2510   2512     1   107.5800459 329.699200
   2512   2510   2516     1   109.8000471 387.438400
   2514   2513   2522     1   109.7800468 425.094400
   2514   2513   2515     1   108.4600466 328.025600
   2515   2513   2522     1   109.7800468 425.094400
   2517   2516   5074     1   109.7800468 425.094400
   2517   2516   2518     1   108.4600466 328.025600
   2518   2516   5074     1   109.7800468 425.094400
   2520   2519   5103     1   109.7800468 425.094400
   2520   2519   2521     1   108.4600466 328.025600
   2521   2519   5103     1   109.7800468 425.094400
   2523   2524   2525     1   109.8800469 414.216000
   2523   2524   2526     1   109.8800469 414.216000
   2523   2527   2528     1   109.8800469 414.216000
   2523   2527   2529     1   109.8800469 414.216000
   2523   2530   2531     1   109.8800469 414.216000
   2523   2530   2532     1   109.8800469 414.216000
   2524   2536   2537     1   109.8000471 387.438400
   2524   2536   2538     1   109.8000471 387.438400
   2525   2524   2536     1   109.5600471 388.275200
   2525   2524   2526     1   108.4600466 328.025600
   2526   2524   2536     1   109.5600471 388.275200
   2527   2539   2540     1   109.8000471 387.438400
   2527   2539   2541     1   109.8000471 387.438400
   2528   2527   2539     1   109.5600471 388.275200
   2528   2527   2529     1   108.4600466 328.025600
   2529   2527   2539     1   109.5600471 388.275200
   2530   2533   2534     1   109.8000471 387.438400
   2530   2533   2535     1   109.8000471 387.438400
   2531   2530   2533     1   109.5600471 388.275200
   2531   2530   2532     1   108.4600466 328.025600
   2532   2530   2533     1   109.5600471 388.275200
   2533   2542   2543     1   109.5600471 388.275200
   2533   2542   2544     1   109.5600471 388.275200
   2534   2533   2542     1   109.8000471 387.438400
   2534   2533   2535     1   107.5800459 329.699200
   2535   2533   2542     1   109.8000471 387.438400
   2536   2548   2549     1   109.5600471 388.275200
   2536   2548   2550     1   109.5600471 388.275200
   2537   2536   2548     1   109.8000471 387.438400
   2537   2536   2538     1   107.5800459 329.699200
   2538   2536   2548     1   109.8000471 387.438400
   2539   2545   2546     1   109.5600471 388.275200
   2539   2545   2547     1   109.5600471 388.275200
   2540   2539   2545     1   109.8000471 387.438400
   2540   2539   2541     1   107.5800459 329.699200
   2541   2539   2545     1   109.8000471 387.438400
   2543   2542   2551     1   109.7800468 425.094400
   2543   2542   2544     1   108.4600466 328.025600
   2544   2542   2551     1   109.7800468 425.094400
   2546   2545   5132     1   109.7800468 425.094400
   2546   2545   2547     1   108.4600466 328.025600
   2547   2545   5132     1   109.7800468 425.094400
   2549   2548   5161     1   109.7800468 425.094400
   2549   2548   2550     1   108.4600466 328.025600
   2550   2548   5161     1   109.7800468 425.094400
   2552   2553   2554     1   109.8800469 414.216000
   2552   2553   2555     1   109.8800469 414.216000
   2552   2556   2557     1   109.8800469 414.216000
   2552   2556   2558     1   109.8800469 414.216000
   2552   2559   2560     1   109.8800469 414.216000
   2552   2559   2561     1   109.8800469 414.216000
   2553   2565   2566     1   109.8000471 387.438400
   2553   2565   2567     1   109.8000471 387.438400
   2554   2553   2565     1   109.5600471 388.275200
   2554   2553   2555     1   108.4600466 328.025600
   2555   2553   2565     1   109.5600471 388.275200
   2556   2568   2569     1   109.8000471 387.438400
   2556   2568   2570     1   109.8000471 387.438400
   2557   2556   2568     1   109.5600471 388.275200
   2557   2556   2558     1   108.4600466 328.025600
   2558   2556   2568     1   109.5600471 388.275200
   2559   2562   2563     1   109.8000471 387.438400
   2559   2562   2564     1   109.8000471 387.438400
   2560   2559   2562     1   109.5600471 388.275200
   2560   2559   2561     1   108.4600466 328.025600
   2561   2559   2562     1   109.5600471 388.275200
   2562   2571   2572     1   109.5600471 388.275200
   2562   2571   2573     1   109.5600471 388.275200
   2563   2562   2571     1   109.8000471 387.438400
   2563   2562   2564     1   107.5800459 329.699200
   2564   2562   2571     1   109.8000471 387.438400
   2565   2577   2578     1   109.5600471 388.275200
   2565   2577   2579     1   109.5600471 388.275200
   2566   2565   2577     1   109.8000471 387.438400
   2566   2565   2567     1   107.5800459 329.699200
   2567   2565   2577     1   109.8000471 387.438400
   2568   2574   2575     1   109.5600471 388.275200
   2568   2574   2576     1   109.5600471 388.275200
   2569   2568   2574     1   109.8000471 387.438400
   2569   2568   2570     1   107.5800459 329.699200
   2570   2568   2574     1   109.8000471 387.438400
   2572   2571   2580     1   109.7800468 425.094400
   2572   2571   2573     1   108.4600466 328.025600
   2573   2571   2580     1   109.7800468 425.094400
   2575   2574   5190     1   109.7800468 425.094400
   2575   2574   2576     1   108.4600466 328.025600
   2576   2574   5190     1   109.7800468 425.094400
   2578   2577   5219     1   109.7800468 425.094400
   2578   2577   2579     1   108.4600466 328.025600
   2579   2577   5219     1   109.7800468 425.094400
   2581   2582   2583     1   109.8800469 414.216000
   2581   2582   2584     1   109.8800469 414.216000
   2581   2585   2586     1   109.8800469 414.216000
   2581   2585   2587     1   109.8800469 414.216000
   2581   2588   2589     1   109.8800469 414.216000
   2581   2588   2590     1   109.8800469 414.216000
   2582   2594   2595     1   109.8000471 387.438400
   2582   2594   2596     1   109.8000471 387.438400
   2583   2582   2594     1   109.5600471 388.275200
   2583   2582   2584     1   108.4600466 328.025600
   2584   2582   2594     1   109.5600471 388.275200
   2585   2597   2598     1   109.8000471 387.438400
   2585   2597   2599     1   109.8000471 387.438400
   2586   2585   2597     1   109.5600471 388.275200
   2586   2585   2587     1   108.4600466 328.025600
   2587   2585   2597     1   109.5600471 388.275200
   2588   2591   2592     1   109.8000471 387.438400
   2588   2591   2593     1   109.8000471 387.438400
   2589   2588   2591     1   109.5600471 388.275200
   2589   2588   2590     1   108.4600466 328.025600
   2590   2588   2591     1   109.5600471 388.275200
   2591   2600   2601     1   109.5600471 388.275200
   2591   2600   2602     1   109.5600471 388.275200
   2592   2591   2600     1   109.8000471 387.438400
   2592   2591   2593     1   107.5800459 329.699200
   2593   2591   2600     1   109.8000471 387.438400
   2594   2606   2607     1   109.5600471 388.275200
   2594   2606   2608     1   109.5600471 388.275200
   2595   2594   2606     1   109.8000471 387.438400
   2595   2594   2596     1   107.5800459 329.699200
   2596   2594   2606     1   109.8000471 387.438400
   2597   2603   2604     1   109.5600471 388.275200
   2597   2603   2605     1   109.5600471 388.275200
   2598   2597   2603     1   109.8000471 387.438400
   2598   2597   2599     1   107.5800459 329.699200
   2599   2597   2603     1   109.8000471 387.438400
   2601   2600   2609     1   109.7800468 425.094400
   2601   2600   2602     1   108.4600466 328.025600
   2602   2600   2609     1   109.7800468 425.094400
   2604   2603   5248     1   109.7800468 425.094400
   2604   2603   2605     1   108.4600466 328.025600
   2605   2603   5248     1   109.7800468 425.094400
   2607   2606   5277     1   109.7800468 425.094400
   2607   2606   2608     1   108.4600466 328.025600
   2608   2606   5277     1   109.7800468 425.094400
   2610   2611   2612     1   109.8800469 414.216000
   2610   2611   2613     1   109.8800469 414.216000
   2610   2614   2615     1   109.8800469 414.216000
   2610   2614   2616     1   109.8800469 414.216000
   2610   2617   2618     1   109.8800469 414.216000
   2610   2617   2619     1   109.8800469 414.216000
   2611   2623   2624     1   109.8000471 387.438400
   2611   2623   2625     1   109.8000471 387.438400
   2612   2611   2623     1   109.5600471 388.275200
   2612   2611   2613     1   108.4600466 328.025600
   2613   2611   2623     1   109.5600471 388.275200
   2614   2626   2627     1   109.8000471 387.438400
   2614   2626   2628     1   109.8000471 387.438400
   2615   2614   2626     1   109.5600471 388.275200
   2615   2614   2616     1   108.4600466 328.025600
   2616   2614   2626     1   109.5600471 388.275200
   2617   2620   2621     1   109.8000471 387.438400
   2617   2620   2622     1   109.8000471 387.438400
   2618   2617   2620     1   109.5600471 388.275200
   2618   2617   2619     1   108.4600466 328.025600
   2619   2617   2620     1   109.5600471 388.275200
   2620   2629   2630     1   109.5600471 388.275200
   2620   2629   2631     1   109.5600471 388.275200
   2621   2620   2629     1   109.8000471 387.438400
   2621   2620   2622     1   107.5800459 329.699200
   2622   2620   2629     1   109.8000471 387.438400
   2623   2635   2636     1   109.5600471 388.275200
   2623   2635   2637     1   109.5600471 388.275200
   2624   2623   2635     1   109.8000471 387.438400
   2624   2623   2625     1   107.5800459 329.699200
   2625   2623   2635     1   109.8000471 387.438400
   2626   2632   2633     1   109.5600471 388.275200
   2626   2632   2634     1   109.5600471 388.275200
   2627   2626   2632     1   109.8000471 387.438400
   2627   2626   2628     1   107.5800459 329.699200
   2628   2626   2632     1   109.8000471 387.438400
   2630   2629   2638     1   109.7800468 425.094400
   2630   2629   2631     1   108.4600466 328.025600
   2631   2629   2638     1   109.7800468 425.094400
   2633   2632   5306     1   109.7800468 425.094400
   2633   2632   2634     1   108.4600466 328.025600
   2634   2632   5306     1   109.7800468 425.094400
   2636   2635   5335     1   109.7800468 425.094400
   2636   2635   2637     1   108.4600466 328.025600
   2637   2635   5335     1   109.7800468 425.094400
   2639   2640   2641     1   109.8800469 414.216000
   2639   2640   2642     1   109.8800469 414.216000
   2639   2643   2644     1   109.8800469 414.216000
   2639   2643   2645     1   109.8800469 414.216000
   2639   2646   2647     1   109.8800469 414.216000
   2639   2646   2648     1   109.8800469 414.216000
   2640   2652   2653     1   109.8000471 387.438400
   2640   2652   2654     1   109.8000471 387.438400
   2641   2640   2652     1   109.5600471 388.275200
   2641   2640   2642     1   108.4600466 328.025600
   2642   2640   2652     1   109.5600471 388.275200
   2643   2655   2656     1   109.8000471 387.438400
   2643   2655   2657     1   109.8000471 387.438400
   2644   2643   2655     1   109.5600471 388.275200
   2644   2643   2645     1   108.4600466 328.025600
   2645   2643   2655     1   109.5600471 388.275200
   2646   2649   2650     1   109.8000471 387.438400
   2646   2649   2651     1   109.8000471 387.438400
   2647   2646   2649     1   109.5600471 388.275200
   2647   2646   2648     1   108.4600466 328.025600
   2648   2646   2649     1   109.5600471 388.275200
   2649   2658   2659     1   109.5600471 388.275200
   2649   2658   2660     1   109.5600471 388.275200
   2650   2649   2658     1   109.8000471 387.438400
   2650   2649   2651     1   107.5800459 329.699200
   2651   2649   2658     1   109.8000471 387.438400
   2652   2664   2665     1   109.5600471 388.275200
   2652   2664   2666     1   109.5600471 388.275200
   2653   2652   2664     1   109.8000471 387.438400
   2653   2652   2654     1   107.5800459 329.699200
   2654   2652   2664     1   109.8000471 387.438400
   2655   2661   2662     1   109.5600471 388.275200
   2655   2661   2663     1   109.5600471 388.275200
   2656   2655   2661     1   109.8000471 387.438400
   2656   2655   2657     1   107.5800459 329.699200
   2657   2655   2661     1   109.8000471 387.438400
   2659   2658   2667     1   109.7800468 425.094400
   2659   2658   2660     1   108.4600466 328.025600
   2660   2658   2667     1   109.7800468 425.094400
   2662   2661   5364     1   109.7800468 425.094400
   2662   2661   2663     1   108.4600466 328.025600
   2663   2661   5364     1   109.7800468 425.094400
   2665   2664   5393     1   109.7800468 425.094400
   2665   2664   2666     1   108.4600466 328.025600
   2666   2664   5393     1   109.7800468 425.094400
   2668   2669   2670     1   109.8800469 414.216000
   2668   2669   2671     1   109.8800469 414.216000
   2668   2672   2673     1   109.8800469 414.216000
   2668   2672   2674     1   109.8800469 414.216000
   2668   2675   2676     1   109.8800469 414.216000
   2668   2675   2677     1   109.8800469 414.216000
   2669   2681   2682     1   109.8000471 387.438400
   2669   2681   2683     1   109.8000471 387.438400
   2670   2669   2681     1   109.5600471 388.275200
   2670   2669   2671     1   108.4600466 328.025600
   2671   2669   2681     1   109.5600471 388.275200
   2672   2684   2685     1   109.8000471 387.438400
   2672   2684   2686     1   109.8000471 387.438400
   2673   2672   2684     1   109.5600471 388.275200
   2673   2672   2674     1   108.4600466 328.025600
   2674   2672   2684     1   109.5600471 388.275200
   2675   2678   2679     1   109.8000471 387.438400
   2675   2678   2680     1   109.8000471 387.438400
   2676   2675   2678     1   109.5600471 388.275200
   2676   2675   2677     1   108.4600466 328.025600
   2677   2675   2678     1   109.5600471 388.275200
   2678   2687   2688     1   109.5600471 388.275200
   2678   2687   2689     1   109.5600471 388.275200
   2679   2678   2687     1   109.8000471 387.438400
   2679   2678   2680     1   107.5800459 329.699200
   2680   2678   2687     1   109.8000471 387.438400
   2681   2693   2694     1   109.5600471 388.275200
   2681   2693   2695     1   109.5600471 388.275200
   2682   2681   2693     1   109.8000471 387.438400
   2682   2681   2683     1   107.5800459 329.699200
   2683   2681   2693     1   109.8000471 387.438400
   2684   2690   2691     1   109.5600471 388.275200
   2684   2690   2692     1   109.5600471 388.275200
   2685   2684   2690     1   109.8000471 387.438400
   2685   2684   2686     1   107.5800459 329.699200
   2686   2684   2690     1   109.8000471 387.438400
   2688   2687   2696     1   109.7800468 425.094400
   2688   2687   2689     1   108.4600466 328.025600
   2689   2687   2696     1   109.7800468 425.094400
   2691   2690   5422     1   109.7800468 425.094400
   2691   2690   2692     1   108.4600466 328.025600
   2692   2690   5422     1   109.7800468 425.094400
   2694   2693   5451     1   109.7800468 425.094400
   2694   2693   2695     1   108.4600466 328.025600
   2695   2693   5451     1   109.7800468 425.094400
   2697   2698   2699     1   109.8800469 414.216000
   2697   2698   2700     1   109.8800469 414.216000
   2697   2701   2702     1   109.8800469 414.216000
   2697   2701   2703     1   109.8800469 414.216000
   2697   2704   2705     1   109.8800469 414.216000
   2697   2704   2706     1   109.8800469 414.216000
   2698   2710   2711     1   109.8000471 387.438400
   2698   2710   2712     1   109.8000471 387.438400
   2699   2698   2710     1   109.5600471 388.275200
   2699   2698   2700     1   108.4600466 328.025600
   2700   2698   2710     1   109.5600471 388.275200
   2701   2713   2714     1   109.8000471 387.438400
   2701   2713   2715     1   109.8000471 387.438400
   2702   2701   2713     1   109.5600471 388.275200
   2702   2701   2703     1   108.4600466 328.025600
   2703   2701   2713     1   109.5600471 388.275200
   2704   2707   2708     1   109.8000471 387.438400
   2704   2707   2709     1   109.8000471 387.438400
   2705   2704   2707     1   109.5600471 388.275200
   2705   2704   2706     1   108.4600466 328.025600
   2706   2704   2707     1   109.5600471 388.275200
   2707   2716   2717     1   109.5600471 388.275200
   2707   2716   2718     1   109.5600471 388.275200
   2708   2707   2716     1   109.8000471 387.438400
   2708   2707   2709     1   107.5800459 329.699200
   2709   2707   2716     1   109.8000471 387.438400
   2710   2722   2723     1   109.5600471 388.275200
   2710   2722   2724     1   109.5600471 388.275200
   2711   2710   2722     1   109.8000471 387.438400
   2711   2710   2712     1   107.5800459 329.699200
   2712   2710   2722     1   109.8000471 387.438400
   2713   2719   2720     1   109.5600471 388.275200
   2713   2719   2721     1   109.5600471 388.275200
   2714   2713   2719     1   109.8000471 387.438400
   2714   2713   2715     1   107.5800459 329.699200
   2715   2713   2719     1   109.8000471 387.438400
   2717   2716   2725     1   109.7800468 425.094400
   2717   2716   2718     1   108.4600466 328.025600
   2718   2716   2725     1   109.7800468 425.094400
   2720   2719   5480     1   109.7800468 425.094400
   2720   2719   2721     1   108.4600466 328.025600
   2721   2719   5480     1   109.7800468 425.094400
   2723   2722   5509     1   109.7800468 425.094400
   2723   2722   2724     1   108.4600466 328.025600
   2724   2722   5509     1   109.7800468 425.094400
   2726   2727   2728     1   109.8800469 414.216000
   2726   2727   2729     1   109.8800469 414.216000
   2726   2730   2731     1   109.8800469 414.216000
   2726   2730   2732     1   109.8800469 414.216000
   2726   2733   2734     1   109.8800469 414.216000
   2726   2733   2735     1   109.8800469 414.216000
   2727   2739   2740     1   109.8000471 387.438400
   2727   2739   2741     1   109.8000471 387.438400
   2728   2727   2739     1   109.5600471 388.275200
   2728   2727   2729     1   108.4600466 328.025600
   2729   2727   2739     1   109.5600471 388.275200
   2730   2742   2743     1   109.8000471 387.438400
   2730   2742   2744     1   109.8000471 387.438400
   2731   2730   2742     1   109.5600471 388.275200
   2731   2730   2732     1   108.4600466 328.025600
   2732   2730   2742     1   109.5600471 388.275200
   2733   2736   2737     1   109.8000471 387.438400
   2733   2736   2738     1   109.8000471 387.438400
   2734   2733   2736     1   109.5600471 388.275200
   2734   2733   2735     1   108.4600466 328.025600
   2735   2733   2736     1   109.5600471 388.275200
   2736   2745   2746     1   109.5600471 388.275200
   2736   2745   2747     1   109.5600471 388.275200
   2737   2736   2745     1   109.8000471 387.438400
   2737   2736   2738     1   107.5800459 329.699200
   2738   2736   2745     1   109.8000471 387.438400
   2739   2751   2752     1   109.5600471 388.275200
   2739   2751   2753     1   109.5600471 388.275200
   2740   2739   2751     1   109.8000471 387.438400
   2740   2739   2741     1   107.5800459 329.699200
   2741   2739   2751     1   109.8000471 387.438400
   2742   2748   2749     1   109.5600471 388.275200
   2742   2748   2750     1   109.5600471 388.275200
   2743   2742   2748     1   109.8000471 387.438400
   2743   2742   2744     1   107.5800459 329.699200
   2744   2742   2748     1   109.8000471 387.438400
   2746   2745   2754     1   109.7800468 425.094400
   2746   2745   2747     1   108.4600466 328.025600
   2747   2745   2754     1   109.7800468 425.094400
   2749   2748   5538     1   109.7800468 425.094400
   2749   2748   2750     1   108.4600466 328.025600
   2750   2748   5538     1   109.7800468 425.094400
   2752   2751   5567     1   109.7800468 425.094400
   2752   2751   2753     1   108.4600466 328.025600
   2753   2751   5567     1   109.7800468 425.094400
   2755   2756   2757     1   109.8800469 414.216000
   2755   2756   2758     1   109.8800469 414.216000
   2755   2759   2760     1   109.8800469 414.216000
   2755   2759   2761     1   109.8800469 414.216000
   2755   2762   2763     1   109.8800469 414.216000
   2755   2762   2764     1   109.8800469 414.216000
   2756   2768   2769     1   109.8000471 387.438400
   2756   2768   2770     1   109.8000471 387.438400
   2757   2756   2768     1   109.5600471 388.275200
   2757   2756   2758     1   108.4600466 328.025600
   2758   2756   2768     1   109.5600471 388.275200
   2759   2771   2772     1   109.8000471 387.438400
   2759   2771   2773     1   109.8000471 387.438400
   2760   2759   2771     1   109.5600471 388.275200
   2760   2759   2761     1   108.4600466 328.025600
   2761   2759   2771     1   109.5600471 388.275200
   2762   2765   2766     1   109.8000471 387.438400
   2762   2765   2767     1   109.8000471 387.438400
   2763   2762   2765     1   109.5600471 388.275200
   2763   2762   2764     1   108.4600466 328.025600
   2764   2762   2765     1   109.5600471 388.275200
   2765   2774   2775     1   109.5600471 388.275200
   2765   2774   2776     1   109.5600471 388.275200
   2766   2765   2774     1   109.8000471 387.438400
   2766   2765   2767     1   107.5800459 329.699200
   2767   2765   2774     1   109.8000471 387.438400
   2768   2780   2781     1   109.5600471 388.275200
   2768   2780   2782     1   109.5600471 388.275200
   2769   2768   2780     1   109.8000471 387.438400
   2769   2768   2770     1   107.5800459 329.699200
   2770   2768   2780     1   109.8000471 387.438400
   2771   2777   2778     1   109.5600471 388.275200
   2771   2777   2779     1   109.5600471 388.275200
   2772   2771   2777     1   109.8000471 387.438400
   2772   2771   2773     1   107.5800459 329.699200
   2773   2771   2777     1   109.8000471 387.438400
   2775   2774   2783     1   109.7800468 425.094400
   2775   2774   2776     1   108.4600466 328.025600
   2776   2774   2783     1   109.7800468 425.094400
   2778   2777   5596     1   109.7800468 425.094400
   2778   2777   2779     1   108.4600466 328.025600
   2779   2777   5596     1   109.7800468 425.094400
   2781   2780   5625     1   109.7800468 425.094400
   2781   2780   2782     1   108.4600466 328.025600
   2782   2780   5625     1   109.7800468 425.094400
   2784   2785   2786     1   109.8800469 414.216000
   2784   2785   2787     1   109.8800469 414.216000
   2784   2788   2789     1   109.8800469 414.216000
   2784   2788   2790     1   109.8800469 414.216000
   2784   2791   2792     1   109.8800469 414.216000
   2784   2791   2793     1   109.8800469 414.216000
   2785   2797   2798     1   109.8000471 387.438400
   2785   2797   2799     1   109.8000471 387.438400
   2786   2785   2797     1   109.5600471 388.275200
   2786   2785   2787     1   108.4600466 328.025600
   2787   2785   2797     1   109.5600471 388.275200
   2788   2800   2801     1   109.8000471 387.438400
   2788   2800   2802     1   109.8000471 387.438400
   2789   2788   2800     1   109.5600471 388.275200
   2789   2788   2790     1   108.4600466 328.025600
   2790   2788   2800     1   109.5600471 388.275200
   2791   2794   2795     1   109.8000471 387.438400
   2791   2794   2796     1   109.8000471 387.438400
   2792   2791   2794     1   109.5600471 388.275200
   2792   2791   2793     1   108.4600466 328.025600
   2793   2791   2794     1   109.5600471 388.275200
   2794   2803   2804     1   109.5600471 388.275200
   2794   2803   2805     1   109.5600471 388.275200
   2795   2794   2803     1   109.8000471 387.438400
   2795   2794   2796     1   107.5800459 329.699200
   2796   2794   2803     1   109.8000471 387.438400
   2797   2809   2810     1   109.5600471 388.275200
   2797   2809   2811     1   109.5600471 388.275200
   2798   2797   2809     1   109.8000471 387.438400
   2798   2797   2799     1   107.5800459 329.699200
   2799   2797   2809     1   109.8000471 387.438400
   2800   2806   2807     1   109.5600471 388.275200
   2800   2806   2808     1   109.5600471 388.275200
   2801   2800   2806     1   109.8000471 387.438400
   2801   2800   2802     1   107.5800459 329.699200
   2802   2800   2806     1   109.8000471 387.438400
   2804   2803   2812     1   109.7800468 425.094400
   2804   2803   2805     1   108.4600466 328.025600
   2805   2803   2812     1   109.7800468 425.094400
   2807   2806   5654     1   109.7800468 425.094400
   2807   2806   2808     1   108.4600466 328.025600
   2808   2806   5654     1   109.7800468 425.094400
   2810   2809   5683     1   109.7800468 425.094400
   2810   2809   2811     1   108.4600466 328.025600
   2811   2809   5683     1   109.7800468 425.094400
   2813   2814   2815     1   109.8800469 414.216000
   2813   2814   2816     1   109.8800469 414.216000
   2813   2817   2818     1   109.8800469 414.216000
   2813   2817   2819     1   109.8800469 414.216000
   2813   2820   2821     1   109.8800469 414.216000
   2813   2820   2822     1   109.8800469 414.216000
   2814   2826   2827     1   109.8000471 387.438400
   2814   2826   2828     1   109.8000471 387.438400
   2815   2814   2826     1   109.5600471 388.275200
   2815   2814   2816     1   108.4600466 328.025600
   2816   2814   2826     1   109.5600471 388.275200
   2817   2829   2830     1   109.8000471 387.438400
   2817   2829   2831     1   109.8000471 387.438400
   2818   2817   2829     1   109.5600471 388.275200
   2818   2817   2819     1   108.4600466 328.025600
   2819   2817   2829     1   109.5600471 388.275200
   2820   2823   2824     1   109.8000471 387.438400
   2820   2823   2825     1   109.8000471 387.438400
   2821   2820   2823     1   109.5600471 388.275200
   2821   2820   2822     1   108.4600466 328.025600
   2822   2820   2823     1   109.5600471 388.275200
   2823   2832   2833     1   109.5600471 388.275200
   2823   2832   2834     1   109.5600471 388.275200
   2824   2823   2832     1   109.8000471 387.438400
   2824   2823   2825     1   107.5800459 329.699200
   2825   2823   2832     1   109.8000471 387.438400
   2826   2838   2839     1   109.5600471 388.275200
   2826   2838   2840     1   109.5600471 388.275200
   2827   2826   2838     1   109.8000471 387.438400
   2827   2826   2828     1   107.5800459 329.699200
   2828   2826   2838     1   109.8000471 387.438400
   2829   2835   2836     1   109.5600471 388.275200
   2829   2835   2837     1   109.5600471 388.275200
   2830   2829   2835     1   109.8000471 387.438400
   2830   2829   2831     1   107.5800459 329.699200
   2831   2829   2835     1   109.8000471 387.438400
   2833   2832   2841     1   109.7800468 425.094400
   2833   2832   2834     1   108.4600466 328.025600
   2834   2832   2841     1   109.7800468 425.094400
   2836   2835   5712     1   109.7800468 425.094400
   2836   2835   2837     1   108.4600466 328.025600
   2837   2835   5712     1   109.7800468 425.094400
   2839   2838   5741     1   109.7800468 425.094400
   2839   2838   2840     1   108.4600466 328.025600
   2840   2838   5741     1   109.7800468 425.094400
   2842   2843   2844     1   109.8800469 414.216000
   2842   2843   2845     1   109.8800469 414.216000
   2842   2846   2847     1   109.8800469 414.216000
   2842   2846   2848     1   109.8800469 414.216000
   2842   2849   2850     1   109.8800469 414.216000
   2842   2849   2851     1   109.8800469 414.216000
   2843   2855   2856     1   109.8000471 387.438400
   2843   2855   2857     1   109.8000471 387.438400
   2844   2843   2855     1   109.5600471 388.275200
   2844   2843   2845     1   108.4600466 328.025600
   2845   2843   2855     1   109.5600471 388.275200
   2846   2858   2859     1   109.8000471 387.438400
   2846   2858   2860     1   109.8000471 387.438400
   2847   2846   2858     1   109.5600471 388.275200
   2847   2846   2848     1   108.4600466 328.025600
   2848   2846   2858     1   109.5600471 388.275200
   2849   2852   2853     1   109.8000471 387.438400
   2849   2852   2854     1   109.8000471 387.438400
   2850   2849   2852     1   109.5600471 388.275200
   2850   2849   2851     1   108.4600466 328.025600
   2851   2849   2852     1   109.5600471 388.275200
   2852   2861   2862     1   109.5600471 388.275200
   2852   2861   2863     1   109.5600471 388.275200
   2853   2852   2861     1   109.8000471 387.438400
   2853   2852   2854     1   107.5800459 329.699200
   2854   2852   2861     1   109.8000471 387.438400
   2855   2867   2868     1   109.5600471 388.275200
   2855   2867   2869     1   109.5600471 388.275200
   2856   2855   2867     1   109.8000471 387.438400
   2856   2855   2857     1   107.5800459 329.699200
   2857   2855   2867     1   109.8000471 387.438400
   2858   2864   2865     1   109.5600471 388.275200
   2858   2864   2866     1   109.5600471 388.275200
   2859   2858   2864     1   109.8000471 387.438400
   2859   2858   2860     1   107.5800459 329.699200
   2860   2858   2864     1   109.8000471 387.438400
   2862   2861   2870     1   109.7800468 425.094400
   2862   2861   2863     1   108.4600466 328.025600
   2863   2861   2870     1   109.7800468 425.094400
   2865   2864   5770     1   109.7800468 425.094400
   2865   2864   2866     1   108.4600466 328.025600
   2866   2864   5770     1   109.7800468 425.094400
   2868   2867   5799     1   109.7800468 425.094400
   2868   2867   2869     1   108.4600466 328.025600
   2869   2867   5799     1   109.7800468 425.094400
   2871   2872   2873     1   109.8800469 414.216000
   2871   2872   2874     1   109.8800469 414.216000
   2871   2875   2876     1   109.8800469 414.216000
   2871   2875   2877     1   109.8800469 414.216000
   2871   2878   2879     1   109.8800469 414.216000
   2871   2878   2880     1   109.8800469 414.216000
   2872   2884   2885     1   109.8000471 387.438400
   2872   2884   2886     1   109.8000471 387.438400
   2873   2872   2884     1   109.5600471 388.275200
   2873   2872   2874     1   108.4600466 328.025600
   2874   2872   2884     1   109.5600471 388.275200
   2875   2887   2888     1   109.8000471 387.438400
   2875   2887   2889     1   109.8000471 387.438400
   2876   2875   2887     1   109.5600471 388.275200
   2876   2875   2877     1   108.4600466 328.025600
   2877   2875   2887     1   109.5600471 388.275200
   2878   2881   2882     1   109.8000471 387.438400
   2878   2881   2883     1   109.8000471 387.438400
   2879   2878   2881     1   109.5600471 388.275200
   2879   2878   2880     1   108.4600466 328.025600
   2880   2878   2881     1   109.5600471 388.275200
   2881   2890   2891     1   109.5600471 388.275200
   2881   2890   2892     1   109.5600471 388.275200
   2882   2881   2890     1   109.8000471 387.438400
   2882   2881   2883     1   107.5800459 329.699200
   2883   2881   2890     1   109.8000471 387.438400
   2884   2896   2897     1   109.5600471 388.275200
   2884   2896   2898     1   109.5600471 388.275200
   2885   2884   2896     1   109.8000471 387.438400
   2885   2884   2886     1   107.5800459 329.699200
   2886   2884   2896     1   109.8000471 387.438400
   2887   2893   2894     1   109.5600471 388.275200
   2887   2893   2895     1   109.5600471 388.275200
   2888   2887   2893     1   109.8000471 387.438400
   2888   2887   2889     1   107.5800459 329.699200
   2889   2887   2893     1   109.8000471 387.438400
   2891   2890   2899     1   109.7800468 425.094400
   2891   2890   2892     1   108.4600466 328.025600
   2892   2890   2899     1   109.7800468 425.094400
   2894   2893   5828     1   109.7800468 425.094400
   2894   2893   2895     1   108.4600466 328.025600
   2895   2893   5828     1   109.7800468 425.094400
   2897   2896   5857     1   109.7800468 425.094400
   2897   2896   2898     1   108.4600466 328.025600
   2898   2896   5857     1   109.7800468 425.094400
   2900   2901   2902     1   109.8800469 414.216000
   2900   2901   2903     1   109.8800469 414.216000
   2900   2904   2905     1   109.8800469 414.216000
   2900   2904   2906     1   109.8800469 414.216000
   2900   2907   2908     1   109.8800469 414.216000
   2900   2907   2909     1   109.8800469 414.216000
   2901   2913   2914     1   109.8000471 387.438400
   2901   2913   2915     1   109.8000471 387.438400
   2902   2901   2913     1   109.5600471 388.275200
   2902   2901   2903     1   108.4600466 328.025600
   2903   2901   2913     1   109.5600471 388.275200
   2904   2916   2917     1   109.8000471 387.438400
   2904   2916   2918     1   109.8000471 387.438400
   2905   2904   2916     1   109.5600471 388.275200
   2905   2904   2906     1   108.4600466 328.025600
   2906   2904   2916     1   109.5600471 388.275200
   2907   2910   2911     1   109.8000471 387.438400
   2907   2910   2912     1   109.8000471 387.438400
   2908   2907   2910     1   109.5600471 388.275200
   2908   2907   2909     1   108.4600466 328.025600
   2909   2907   2910     1   109.5600471 388.275200
   2910   2919   2920     1   109.5600471 388.275200
   2910   2919   2921     1   109.5600471 388.275200
   2911   2910   2919     1   109.8000471 387.438400
   2911   2910   2912     1   107.5800459 329.699200
   2912   2910   2919     1   109.8000471 387.438400
   2913   2925   2926     1   109.5600471 388.275200
   2913   2925   2927     1   109.5600471 388.275200
   2914   2913   2925     1   109.8000471 387.438400
   2914   2913   2915     1   107.5800459 329.699200
   2915   2913   2925     1   109.8000471 387.438400
   2916   2922   2923     1   109.5600471 388.275200
   2916   2922   2924     1   109.5600471 388.275200
   2917   2916   2922     1   109.8000471 387.438400
   2917   2916   2918     1   107.5800459 329.699200
   2918   2916   2922     1   109.8000471 387.438400
   2920   2919   2928     1   109.7800468 425.094400
   2920   2919   2921     1   108.4600466 328.025600
   2921   2919   2928     1   109.7800468 425.094400
   2923   2922   5886     1   109.7800468 425.094400
   2923   2922   2924     1   108.4600466 328.025600
   2924   2922   5886     1   109.7800468 425.094400
   2926   2925   5915     1   109.7800468 425.094400
   2926   2925   2927     1   108.4600466 328.025600
   2927   2925   5915     1   109.7800468 425.094400
   2929   2930   2931     1   109.8800469 414.216000
   2929   2930   2932     1   109.8800469 414.216000
   2929   2933   2934     1   109.8800469 414.216000
   2929   2933   2935     1   109.8800469 414.216000
   2929   2936   2937     1   109.8800469 414.216000
   2929   2936   2938     1   109.8800469 414.216000
   2930   2942   2943     1   109.8000471 387.438400
   2930   2942   2944     1   109.8000471 387.438400
   2931   2930   2942     1   109.5600471 388.275200
   2931   2930   2932     1   108.4600466 328.025600
   2932   2930   2942     1   109.5600471 388.275200
   2933   2945   2946     1   109.8000471 387.438400
   2933   2945   2947     1   109.8000471 387.438400
   2934   2933   2945     1   109.5600471 388.275200
   2934   2933   2935     1   108.4600466 328.025600
   2935   2933   2945     1   109.5600471 388.275200
   2936   2939   2940     1   109.8000471 387.438400
   2936   2939   2941     1   109.8000471 387.438400
   2937   2936   2939     1   109.5600471 388.275200
   2937   2936   2938     1   108.4600466 328.025600
   2938   2936   2939     1   109.5600471 388.275200
   2939   2948   2949     1   109.5600471 388.275200
   2939   2948   2950     1   109.5600471 388.275200
   2940   2939   2948     1   109.8000471 387.438400
   2940   2939   2941     1   107.5800459 329.699200
   2941   2939   2948     1   109.8000471 387.438400
   2942   2954   2955     1   109.5600471 388.275200
   2942   2954   2956     1   109.5600471 388.275200
   2943   2942   2954     1   109.8000471 387.438400
   2943   2942   2944     1   107.5800459 329.699200
   2944   2942   2954     1   109.8000471 387.438400
   2945   2951   2952     1   109.5600471 388.275200
   2945   2951   2953     1   109.5600471 388.275200
   2946   2945   2951     1   109.8000471 387.438400
   2946   2945   2947     1   107.5800459 329.699200
   2947   2945   2951     1   109.8000471 387.438400
   2949   2948   2957     1   109.7800468 425.094400
   2949   2948   2950     1   108.4600466 328.025600
   2950   2948   2957     1   109.7800468 425.094400
   2952   2951   5944     1   109.7800468 425.094400
   2952   2951   2953     1   108.4600466 328.025600
   2953   2951   5944     1   109.7800468 425.094400
   2955   2954   5973     1   109.7800468 425.094400
   2955   2954   2956     1   108.4600466 328.025600
   2956   2954   5973     1   109.7800468 425.094400
   2958   2959   2960     1   109.8800469 414.216000
   2958   2959   2961     1   109.8800469 414.216000
   2958   2962   2963     1   109.8800469 414.216000
   2958   2962   2964     1   109.8800469 414.216000
   2958   2965   2966     1   109.8800469 414.216000
   2958   2965   2967     1   109.8800469 414.216000
   2959   2971   2972     1   109.8000471 387.438400
   2959   2971   2973     1   109.8000471 387.438400
   2960   2959   2971     1   109.5600471 388.275200
   2960   2959   2961     1   108.4600466 328.025600
   2961   2959   2971     1   109.5600471 388.275200
   2962   2974   2975     1   109.8000471 387.438400
   2962   2974   2976     1   109.8000471 387.438400
   2963   2962   2974     1   109.5600471 388.275200
   2963   2962   2964     1   108.4600466 328.025600
   2964   2962   2974     1   109.5600471 388.275200
   2965   2968   2969     1   109.8000471 387.438400
   2965   2968   2970     1   109.8000471 387.438400
   2966   2965   2968     1   109.5600471 388.275200
   2966   2965   2967     1   108.4600466 328.025600
   2967   2965   2968     1   109.5600471 388.275200
   2968   2977   2978     1   109.5600471 388.275200
   2968   2977   2979     1   109.5600471 388.275200
   2969   2968   2977     1   109.8000471 387.438400
   2969   2968   2970     1   107.5800459 329.699200
   2970   2968   2977     1   109.8000471 387.438400
   2971   2983   2984     1   109.5600471 388.275200
   2971   2983   2985     1   109.5600471 388.275200
   2972   2971   2983     1   109.8000471 387.438400
   2972   2971   2973     1   107.5800459 329.699200
   2973   2971   2983     1   109.8000471 387.438400
   2974   2980   2981     1   109.5600471 388.275200
   2974   2980   2982     1   109.5600471 388.275200
   2975   2974   2980     1   109.8000471 387.438400
   2975   2974   2976     1   107.5800459 329.699200
   2976   2974   2980     1   109.8000471 387.438400
   2978   2977   2986     1   109.7800468 425.094400
   2978   2977   2979     1   108.4600466 328.025600
   2979   2977   2986     1   109.7800468 425.094400
   2981   2980   6002     1   109.7800468 425.094400
   2981   2980   2982     1   108.4600466 328.025600
   2982   2980   6002     1   109.7800468 425.094400
   2984   2983   6031     1   109.7800468 425.094400
   2984   2983   2985     1   108.4600466 328.025600
   2985   2983   6031     1   109.7800468 425.094400
   2987   2988   2989     1   109.8800469 414.216000
   2987   2988   2990     1   109.8800469 414.216000
   2987   2991   2992     1   109.8800469 414.216000
   2987   2991   2993     1   109.8800469 414.216000
   2987   2994   2995     1   109.8800469 414.216000
   2987   2994   2996     1   109.8800469 414.216000
   2988   3000   3001     1   109.8000471 387.438400
   2988   3000   3002     1   109.8000471 387.438400
   2989   2988   3000     1   109.5600471 388.275200
   2989   2988   2990     1   108.4600466 328.025600
   2990   2988   3000     1   109.5600471 388.275200
   2991   3003   3004     1   109.8000471 387.438400
   2991   3003   3005     1   109.8000471 387.438400
   2992   2991   3003     1   109.5600471 388.275200
   2992   2991   2993     1   108.4600466 328.025600
   2993   2991   3003     1   109.5600471 388.275200
   2994   2997   2998     1   109.8000471 387.438400
   2994   2997   2999     1   109.8000471 387.438400
   2995   2994   2997     1   109.5600471 388.275200
   2995   2994   2996     1   108.4600466 328.025600
   2996   2994   2997     1   109.5600471 388.275200
   2997   3006   3007     1   109.5600471 388.275200
   2997   3006   3008     1   109.5600471 388.275200
   2998   2997   3006     1   109.8000471 387.438400
   2998   2997   2999     1   107.5800459 329.699200
   2999   2997   3006     1   109.8000471 387.438400
   3000   3012   3013     1   109.5600471 388.275200
   3000   3012   3014     1   109.5600471 388.275200
   3001   3000   3012     1   109.8000471 387.438400
   3001   3000   3002     1   107.5800459 329.699200
   3002   3000   3012     1   109.8000471 387.438400
   3003   3009   3010     1   109.5600471 388.275200
   3003   3009   3011     1   109.5600471 388.275200
   3004   3003   3009     1   109.8000471 387.438400
   3004   3003   3005     1   107.5800459 329.699200
   3005   3003   3009     1   109.8000471 387.438400
   3007   3006   3015     1   109.7800468 425.094400
   3007   3006   3008     1   108.4600466 328.025600
   3008   3006   3015     1   109.7800468 425.094400
   3010   3009   6060     1   109.7800468 425.094400
   3010   3009   3011     1   108.4600466 328.025600
   3011   3009   6060     1   109.7800468 425.094400
   3013   3012   6089     1   109.7800468 425.094400
   3013   3012   3014     1   108.4600466 328.025600
   3014   3012   6089     1   109.7800468 425.094400
   3016   3017   3018     1   109.8800469 414.216000
   3016   3017   3019     1   109.8800469 414.216000
   3016   3020   3021     1   109.8800469 414.216000
   3016   3020   3022     1   109.8800469 414.216000
   3016   3023   3024     1   109.8800469 414.216000
   3016   3023   3025     1   109.8800469 414.216000
   3017   3029   3030     1   109.8000471 387.438400
   3017   3029   3031     1   109.8000471 387.438400
   3018   3017   3029     1   109.5600471 388.275200
   3018   3017   3019     1   108.4600466 328.025600
   3019   3017   3029     1   109.5600471 388.275200
   3020   3032   3033     1   109.8000471 387.438400
   3020   3032   3034     1   109.8000471 387.438400
   3021   3020   3032     1   109.5600471 388.275200
   3021   3020   3022     1   108.4600466 328.025600
   3022   3020   3032     1   109.5600471 388.275200
   3023   3026   3027     1   109.8000471 387.438400
   3023   3026   3028     1   109.8000471 387.438400
   3024   3023   3026     1   109.5600471 388.275200
   3024   3023   3025     1   108.4600466 328.025600
   3025   3023   3026     1   109.5600471 388.275200
   3026   3035   3036     1   109.5600471 388.275200
   3026   3035   3037     1   109.5600471 388.275200
   3027   3026   3035     1   109.8000471 387.438400
   3027   3026   3028     1   107.5800459 329.699200
   3028   3026   3035     1   109.8000471 387.438400
   3029   3041   3042     1   109.5600471 388.275200
   3029   3041   3043     1   109.5600471 388.275200
   3030   3029   3041     1   109.8000471 387.438400
   3030   3029   3031     1   107.5800459 329.699200
   3031   3029   3041     1   109.8000471 387.438400
   3032   3038   3039     1   109.5600471 388.275200
   3032   3038   3040     1   109.5600471 388.275200
   3033   3032   3038     1   109.8000471 387.438400
   3033   3032   3034     1   107.5800459 329.699200
   3034   3032   3038     1   109.8000471 387.438400
   3036   3035   3044     1   109.7800468 425.094400
   3036   3035   3037     1   108.4600466 328.025600
   3037   3035   3044     1   109.7800468 425.094400
   3039   3038   6118     1   109.7800468 425.094400
   3039   3038   3040     1   108.4600466 328.025600
   3040   3038   6118     1   109.7800468 425.094400
   3042   3041   6147     1   109.7800468 425.094400
   3042   3041   3043     1   108.4600466 328.025600
   3043   3041   6147     1   109.7800468 425.094400
   3045   3046   3047     1   109.8800469 414.216000
   3045   3046   3048     1   109.8800469 414.216000
   3045   3049   3050     1   109.8800469 414.216000
   3045   3049   3051     1   109.8800469 414.216000
   3045   3052   3053     1   109.8800469 414.216000
   3045   3052   3054     1   109.8800469 414.216000
   3046   3058   3059     1   109.8000471 387.438400
   3046   3058   3060     1   109.8000471 387.438400
   3047   3046   3058     1   109.5600471 388.275200
   3047   3046   3048     1   108.4600466 328.025600
   3048   3046   3058     1   109.5600471 388.275200
   3049   3061   3062     1   109.8000471 387.438400
   3049   3061   3063     1   109.8000471 387.438400
   3050   3049   3061     1   109.5600471 388.275200
   3050   3049   3051     1   108.4600466 328.025600
   3051   3049   3061     1   109.5600471 388.275200
   3052   3055   3056     1   109.8000471 387.438400
   3052   3055   3057     1   109.8000471 387.438400
   3053   3052   3055     1   109.5600471 388.275200
   3053   3052   3054     1   108.4600466 328.025600
   3054   3052   3055     1   109.5600471 388.275200
   3055   3064   3065     1   109.5600471 388.275200
   3055   3064   3066     1   109.5600471 388.275200
   3056   3055   3064     1   109.8000471 387.438400
   3056   3055   3057     1   107.5800459 329.699200
   3057   3055   3064     1   109.8000471 387.438400
   3058   3070   3071     1   109.5600471 388.275200
   3058   3070   3072     1   109.5600471 388.275200
   3059   3058   3070     1   109.8000471 387.438400
   3059   3058   3060     1   107.5800459 329.699200
   3060   3058   3070     1   109.8000471 387.438400
   3061   3067   3068     1   109.5600471 388.275200
   3061   3067   3069     1   109.5600471 388.275200
   3062   3061   3067     1   109.8000471 387.438400
   3062   3061   3063     1   107.5800459 329.699200
   3063   3061   3067     1   109.8000471 387.438400
   3065   3064   3073     1   109.7800468 425.094400
   3065   3064   3066     1   108.4600466 328.025600
   3066   3064   3073     1   109.7800468 425.094400
   3068   3067   6176     1   109.7800468 425.094400
   3068   3067   3069     1   108.4600466 328.025600
   3069   3067   6176     1   109.7800468 425.094400
   3071   3070   6205     1   109.7800468 425.094400
   3071   3070   3072     1   108.4600466 328.025600
   3072   3070   6205     1   109.7800468 425.094400
   3074   3075   3076     1   109.8800469 414.216000
   3074   3075   3077     1   109.8800469 414.216000
   3074   3078   3079     1   109.8800469 414.216000
   3074   3078   3080     1   109.8800469 414.216000
   3074   3081   3082     1   109.8800469 414.216000
   3074   3081   3083     1   109.8800469 414.216000
   3075   3087   3088     1   109.8000471 387.438400
   3075   3087   3089     1   109.8000471 387.438400
   3076   3075   3087     1   109.5600471 388.275200
   3076   3075   3077     1   108.4600466 328.025600
   3077   3075   3087     1   109.5600471 388.275200
   3078   3090   3091     1   109.8000471 387.438400
   3078   3090   3092     1   109.8000471 387.438400
   3079   3078   3090     1   109.5600471 388.275200
   3079   3078   3080     1   108.4600466 328.025600
   3080   3078   3090     1   109.5600471 388.275200
   3081   3084   3085     1   109.8000471 387.438400
   3081   3084   3086     1   109.8000471 387.438400
   3082   3081   3084     1   109.5600471 388.275200
   3082   3081   3083     1   108.4600466 328.025600
   3083   3081   3084     1   109.5600471 388.275200
   3084   3093   3094     1   109.5600471 388.275200
   3084   3093   3095     1   109.5600471 388.275200
   3085   3084   3093     1   109.8000471 387.438400
   3085   3084   3086     1   107.5800459 329.699200
   3086   3084   3093     1   109.8000471 387.438400
   3087   3099   3100     1   109.5600471 388.275200
   3087   3099   3101     1   109.5600471 388.275200
   3088   3087   3099     1   109.8000471 387.438400
   3088   3087   3089     1   107.5800459 329.699200
   3089   3087   3099     1   109.8000471 387.438400
   3090   3096   3097     1   109.5600471 388.275200
   3090   3096   3098     1   109.5600471 388.275200
   3091   3090   3096     1   109.8000471 387.438400
   3091   3090   3092     1   107.5800459 329.699200
   3092   3090   3096     1   109.8000471 387.438400
   3094   3093   3102     1   109.7800468 425.094400
   3094   3093   3095     1   108.4600466 328.025600
   3095   3093   3102     1   109.7800468 425.094400
   3097   3096   6234     1   109.7800468 425.094400
   3097   3096   3098     1   108.4600466 328.025600
   3098   3096   6234     1   109.7800468 425.094400
   3100   3099   6263     1   109.7800468 425.094400
   3100   3099   3101     1   108.4600466 328.025600
   3101   3099   6263     1   109.7800468 425.094400
   3103   3104   3105     1   109.8800469 414.216000
   3103   3104   3106     1   109.8800469 414.216000
   3103   3107   3108     1   109.8800469 414.216000
   3103   3107   3109     1   109.8800469 414.216000
   3103   3110   3111     1   109.8800469 414.216000
   3103   3110   3112     1   109.8800469 414.216000
   3104   3116   3117     1   109.8000471 387.438400
   3104   3116   3118     1   109.8000471 387.438400
   3105   3104   3116     1   109.5600471 388.275200
   3105   3104   3106     1   108.4600466 328.025600
   3106   3104   3116     1   109.5600471 388.275200
   3107   3119   3120     1   109.8000471 387.438400
   3107   3119   3121     1   109.8000471 387.438400
   3108   3107   3119     1   109.5600471 388.275200
   3108   3107   3109     1   108.4600466 328.025600
   3109   3107   3119     1   109.5600471 388.275200
   3110   3113   3114     1   109.8000471 387.438400
   3110   3113   3115     1   109.8000471 387.438400
   3111   3110   3113     1   109.5600471 388.275200
   3111   3110   3112     1   108.4600466 328.025600
   3112   3110   3113     1   109.5600471 388.275200
   3113   3122   3123     1   109.5600471 388.275200
   3113   3122   3124     1   109.5600471 388.275200
   3114   3113   3122     1   109.8000471 387.438400
   3114   3113   3115     1   107.5800459 329.699200
   3115   3113   3122     1   109.8000471 387.438400
   3116   3128   3129     1   109.5600471 388.275200
   3116   3128   3130     1   109.5600471 388.275200
   3117   3116   3128     1   109.8000471 387.438400
   3117   3116   3118     1   107.5800459 329.699200
   3118   3116   3128     1   109.8000471 387.438400
   3119   3125   3126     1   109.5600471 388.275200
   3119   3125   3127     1   109.5600471 388.275200
   3120   3119   3125     1   109.8000471 387.438400
   3120   3119   3121     1   107.5800459 329.699200
   3121   3119   3125     1   109.8000471 387.438400
   3123   3122   3131     1   109.7800468 425.094400
   3123   3122   3124     1   108.4600466 328.025600
   3124   3122   3131     1   109.7800468 425.094400
   3126   3125   6292     1   109.7800468 425.094400
   3126   3125   3127     1   108.4600466 328.025600
   3127   3125   6292     1   109.7800468 425.094400
   3129   3128   6321     1   109.7800468 425.094400
   3129   3128   3130     1   108.4600466 328.025600
   3130   3128   6321     1   109.7800468 425.094400
   3132   3133   3134     1   109.8800469 414.216000
   3132   3133   3135     1   109.8800469 414.216000
   3132   3136   3137     1   109.8800469 414.216000
   3132   3136   3138     1   109.8800469 414.216000
   3132   3139   3140     1   109.8800469 414.216000
   3132   3139   3141     1   109.8800469 414.216000
   3133   3145   3146     1   109.8000471 387.438400
   3133   3145   3147     1   109.8000471 387.438400
   3134   3133   3145     1   109.5600471 388.275200
   3134   3133   3135     1   108.4600466 328.025600
   3135   3133   3145     1   109.5600471 388.275200
   3136   3148   3149     1   109.8000471 387.438400
   3136   3148   3150     1   109.8000471 387.438400
   3137   3136   3148     1   109.5600471 388.275200
   3137   3136   3138     1   108.4600466 328.025600
   3138   3136   3148     1   109.5600471 388.275200
   3139   3142   3143     1   109.8000471 387.438400
   3139   3142   3144     1   109.8000471 387.438400
   3140   3139   3142     1   109.5600471 388.275200
   3140   3139   3141     1   108.4600466 328.025600
   3141   3139   3142     1   109.5600471 388.275200
   3142   3151   3152     1   109.5600471 388.275200
   3142   3151   3153     1   109.5600471 388.275200
   3143   3142   3151     1   109.8000471 387.438400
   3143   3142   3144     1   107.5800459 329.699200
   3144   3142   3151     1   109.8000471 387.438400
   3145   3157   3158     1   109.5600471 388.275200
   3145   3157   3159     1   109.5600471 388.275200
   3146   3145   3157     1   109.8000471 387.438400
   3146   3145   3147     1   107.5800459 329.699200
   3147   3145   3157     1   109.8000471 387.438400
   3148   3154   3155     1   109.5600471 388.275200
   3148   3154   3156     1   109.5600471 388.275200
   3149   3148   3154     1   109.8000471 387.438400
   3149   3148   3150     1   107.5800459 329.699200
   3150   3148   3154     1   109.8000471 387.438400
   3152   3151   3160     1   109.7800468 425.094400
   3152   3151   3153     1   108.4600466 328.025600
   3153   3151   3160     1   109.7800468 425.094400
   3155   3154   6350     1   109.7800468 425.094400
   3155   3154   3156     1   108.4600466 328.025600
   3156   3154   6350     1   109.7800468 425.094400
   3158   3157   6379     1   109.7800468 425.094400
   3158   3157   3159     1   108.4600466 328.025600
   3159   3157   6379     1   109.7800468 425.094400
   3161   3162   3163     1   109.8800469 414.216000
   3161   3162   3164     1   109.8800469 414.216000
   3161   3165   3166     1   109.8800469 414.216000
   3161   3165   3167     1   109.8800469 414.216000
   3161   3168   3169     1   109.8800469 414.216000
   3161   3168   3170     1   109.8800469 414.216000
   3162   3174   3175     1   109.8000471 387.438400
   3162   3174   3176     1   109.8000471 387.438400
   3163   3162   3174     1   109.5600471 388.275200
   3163   3162   3164     1   108.4600466 328.025600
   3164   3162   3174     1   109.5600471 388.275200
   3165   3177   3178     1   109.8000471 387.438400
   3165   3177   3179     1   109.8000471 387.438400
   3166   3165   3177     1   109.5600471 388.275200
   3166   3165   3167     1   108.4600466 328.025600
   3167   3165   3177     1   109.5600471 388.275200
   3168   3171   3172     1   109.8000471 387.438400
   3168   3171   3173     1   109.8000471 387.438400
   3169   3168   3171     1   109.5600471 388.275200
   3169   3168   3170     1   108.4600466 328.025600
   3170   3168   3171     1   109.5600471 388.275200
   3171   3180   3181     1   109.5600471 388.275200
   3171   3180   3182     1   109.5600471 388.275200
   3172   3171   3180     1   109.8000471 387.438400
   3172   3171   3173     1   107.5800459 329.699200
   3173   3171   3180     1   109.8000471 387.438400
   3174   3186   3187     1   109.5600471 388.275200
   3174   3186   3188     1   109.5600471 388.275200
   3175   3174   3186     1   109.8000471 387.438400
   3175   3174   3176     1   107.5800459 329.699200
   3176   3174   3186     1   109.8000471 387.438400
   3177   3183   3184     1   109.5600471 388.275200
   3177   3183   3185     1   109.5600471 388.275200
   3178   3177   3183     1   109.8000471 387.438400
   3178   3177   3179     1   107.5800459 329.699200
   3179   3177   3183     1   109.8000471 387.438400
   3181   3180   3189     1   109.7800468 425.094400
   3181   3180   3182     1   108.4600466 328.025600
   3182   3180   3189     1   109.7800468 425.094400
   3184   3183   6408     1   109.7800468 425.094400
   3184   3183   3185     1   108.4600466 328.025600
   3185   3183   6408     1   109.7800468 425.094400
   3187   3186   6437     1   109.7800468 425.094400
   3187   3186   3188     1   108.4600466 328.025600
   3188   3186   6437     1   109.7800468 425.094400
   3190   3191   3192     1   109.8800469 414.216000
   3190   3191   3193     1   109.8800469 414.216000
   3190   3194   3195     1   109.8800469 414.216000
   3190   3194   3196     1   109.8800469 414.216000
   3190   3197   3198     1   109.8800469 414.216000
   3190   3197   3199     1   109.8800469 414.216000
   3191   3203   3204     1   109.8000471 387.438400
   3191   3203   3205     1   109.8000471 387.438400
   3192   3191   3203     1   109.5600471 388.275200
   3192   3191   3193     1   108.4600466 328.025600
   3193   3191   3203     1   109.5600471 388.275200
   3194   3206   3207     1   109.8000471 387.438400
   3194   3206   3208     1   109.8000471 387.438400
   3195   3194   3206     1   109.5600471 388.275200
   3195   3194   3196     1   108.4600466 328.025600
   3196   3194   3206     1   109.5600471 388.275200
   3197   3200   3201     1   109.8000471 387.438400
   3197   3200   3202     1   109.8000471 387.438400
   3198   3197   3200     1   109.5600471 388.275200
   3198   3197   3199     1   108.4600466 328.025600
   3199   3197   3200     1   109.5600471 388.275200
   3200   3209   3210     1   109.5600471 388.275200
   3200   3209   3211     1   109.5600471 388.275200
   3201   3200   3209     1   109.8000471 387.438400
   3201   3200   3202     1   107.5800459 329.699200
   3202   3200   3209     1   109.8000471 387.438400
   3203   3215   3216     1   109.5600471 388.275200
   3203   3215   3217     1   109.5600471 388.275200
   3204   3203   3215     1   109.8000471 387.438400
   3204   3203   3205     1   107.5800459 329.699200
   3205   3203   3215     1   109.8000471 387.438400
   3206   3212   3213     1   109.5600471 388.275200
   3206   3212   3214     1   109.5600471 388.275200
   3207   3206   3212     1   109.8000471 387.438400
   3207   3206   3208     1   107.5800459 329.699200
   3208   3206   3212     1   109.8000471 387.438400
   3210   3209   3218     1   109.7800468 425.094400
   3210   3209   3211     1   108.4600466 328.025600
   3211   3209   3218     1   109.7800468 425.094400
   3213   3212   6466     1   109.7800468 425.094400
   3213   3212   3214     1   108.4600466 328.025600
   3214   3212   6466     1   109.7800468 425.094400
   3216   3215   6495     1   109.7800468 425.094400
   3216   3215   3217     1   108.4600466 328.025600
   3217   3215   6495     1   109.7800468 425.094400
   3219   3220   3221     1   109.8800469 414.216000
   3219   3220   3222     1   109.8800469 414.216000
   3219   3223   3224     1   109.8800469 414.216000
   3219   3223   3225     1   109.8800469 414.216000
   3219   3226   3227     1   109.8800469 414.216000
   3219   3226   3228     1   109.8800469 414.216000
   3220   3232   3233     1   109.8000471 387.438400
   3220   3232   3234     1   109.8000471 387.438400
   3221   3220   3232     1   109.5600471 388.275200
   3221   3220   3222     1   108.4600466 328.025600
   3222   3220   3232     1   109.5600471 388.275200
   3223   3235   3236     1   109.8000471 387.438400
   3223   3235   3237     1   109.8000471 387.438400
   3224   3223   3235     1   109.5600471 388.275200
   3224   3223   3225     1   108.4600466 328.025600
   3225   3223   3235     1   109.5600471 388.275200
   3226   3229   3230     1   109.8000471 387.438400
   3226   3229   3231     1   109.8000471 387.438400
   3227   3226   3229     1   109.5600471 388.275200
   3227   3226   3228     1   108.4600466 328.025600
   3228   3226   3229     1   109.5600471 388.275200
   3229   3238   3239     1   109.5600471 388.275200
   3229   3238   3240     1   109.5600471 388.275200
   3230   3229   3238     1   109.8000471 387.438400
   3230   3229   3231     1   107.5800459 329.699200
   3231   3229   3238     1   109.8000471 387.438400
   3232   3244   3245     1   109.5600471 388.275200
   3232   3244   3246     1   109.5600471 388.275200
   3233   3232   3244     1   109.8000471 387.438400
   3233   3232   3234     1   107.5800459 329.699200
   3234   3232   3244     1   109.8000471 387.438400
   3235   3241   3242     1   109.5600471 388.275200
   3235   3241   3243     1   109.5600471 388.275200
   3236   3235   3241     1   109.8000471 387.438400
   3236   3235   3237     1   107.5800459 329.699200
   3237   3235   3241     1   109.8000471 387.438400
   3239   3238   3247     1   109.7800468 425.094400
   3239   3238   3240     1   108.4600466 328.025600
   3240   3238   3247     1   109.7800468 425.094400
   3242   3241   6524     1   109.7800468 425.094400
   3242   3241   3243     1   108.4600466 328.025600
   3243   3241   6524     1   109.7800468 425.094400
   3245   3244   6553     1   109.7800468 425.094400
   3245   3244   3246     1   108.4600466 328.025600
   3246   3244   6553     1   109.7800468 425.094400
   3248   3249   3250     1   109.8800469 414.216000
   3248   3249   3251     1   109.8800469 414.216000
   3248   3252   3253     1   109.8800469 414.216000
   3248   3252   3254     1   109.8800469 414.216000
   3248   3255   3256     1   109.8800469 414.216000
   3248   3255   3257     1   109.8800469 414.216000
   3249   3261   3262     1   109.8000471 387.438400
   3249   3261   3263     1   109.8000471 387.438400
   3250   3249   3261     1   109.5600471 388.275200
   3250   3249   3251     1   108.4600466 328.025600
   3251   3249   3261     1   109.5600471 388.275200
   3252   3264   3265     1   109.8000471 387.438400
   3252   3264   3266     1   109.8000471 387.438400
   3253   3252   3264     1   109.5600471 388.275200
   3253   3252   3254     1   108.4600466 328.025600
   3254   3252   3264     1   109.5600471 388.275200
   3255   3258   3259     1   109.8000471 387.438400
   3255   3258   3260     1   109.8000471 387.438400
   3256   3255   3258     1   109.5600471 388.275200
   3256   3255   3257     1   108.4600466 328.025600
   3257   3255   3258     1   109.5600471 388.275200
   3258   3267   3268     1   109.5600471 388.275200
   3258   3267   3269     1   109.5600471 388.275200
   3259   3258   3267     1   109.8000471 387.438400
   3259   3258   3260     1   107.5800459 329.699200
   3260   3258   3267     1   109.8000471 387.438400
   3261   3273   3274     1   109.5600471 388.275200
   3261   3273   3275     1   109.5600471 388.275200
   3262   3261   3273     1   109.8000471 387.438400
   3262   3261   3263     1   107.5800459 329.699200
   3263   3261   3273     1   109.8000471 387.438400
   3264   3270   3271     1   109.5600471 388.275200
   3264   3270   3272     1   109.5600471 388.275200
   3265   3264   3270     1   109.8000471 387.438400
   3265   3264   3266     1   107.5800459 329.699200
   3266   3264   3270     1   109.8000471 387.438400
   3268   3267   3276     1   109.7800468 425.094400
   3268   3267   3269     1   108.4600466 328.025600
   3269   3267   3276     1   109.7800468 425.094400
   3271   3270   6582     1   109.7800468 425.094400
   3271   3270   3272     1   108.4600466 328.025600
   3272   3270   6582     1   109.7800468 425.094400
   3274   3273   6611     1   109.7800468 425.094400
   3274   3273   3275     1   108.4600466 328.025600
   3275   3273   6611     1   109.7800468 425.094400
   3277   3278   3279     1   109.8800469 414.216000
   3277   3278   3280     1   109.8800469 414.216000
   3277   3281   3282     1   109.8800469 414.216000
   3277   3281   3283     1   109.8800469 414.216000
   3277   3284   3285     1   109.8800469 414.216000
   3277   3284   3286     1   109.8800469 414.216000
   3278   3290   3291     1   109.8000471 387.438400
   3278   3290   3292     1   109.8000471 387.438400
   3279   3278   3290     1   109.5600471 388.275200
   3279   3278   3280     1   108.4600466 328.025600
   3280   3278   3290     1   109.5600471 388.275200
   3281   3293   3294     1   109.8000471 387.438400
   3281   3293   3295     1   109.8000471 387.438400
   3282   3281   3293     1   109.5600471 388.275200
   3282   3281   3283     1   108.4600466 328.025600
   3283   3281   3293     1   109.5600471 388.275200
   3284   3287   3288     1   109.8000471 387.438400
   3284   3287   3289     1   109.8000471 387.438400
   3285   3284   3287     1   109.5600471 388.275200
   3285   3284   3286     1   108.4600466 328.025600
   3286   3284   3287     1   109.5600471 388.275200
   3287   3296   3297     1   109.5600471 388.275200
   3287   3296   3298     1   109.5600471 388.275200
   3288   3287   3296     1   109.8000471 387.438400
   3288   3287   3289     1   107.5800459 329.699200
   3289   3287   3296     1   109.8000471 387.438400
   3290   3302   3303     1   109.5600471 388.275200
   3290   3302   3304     1   109.5600471 388.275200
   3291   3290   3302     1   109.8000471 387.438400
   3291   3290   3292     1   107.5800459 329.699200
   3292   3290   3302     1   109.8000471 387.438400
   3293   3299   3300     1   109.5600471 388.275200
   3293   3299   3301     1   109.5600471 388.275200
   3294   3293   3299     1   109.8000471 387.438400
   3294   3293   3295     1   107.5800459 329.699200
   3295   3293   3299     1   109.8000471 387.438400
   3297   3296   3305     1   109.7800468 425.094400
   3297   3296   3298     1   108.4600466 328.025600
   3298   3296   3305     1   109.7800468 425.094400
   3300   3299   6640     1   109.7800468 425.094400
   3300   3299   3301     1   108.4600466 328.025600
   3301   3299   6640     1   109.7800468 425.094400
   3303   3302   6669     1   109.7800468 425.094400
   3303   3302   3304     1   108.4600466 328.025600
   3304   3302   6669     1   109.7800468 425.094400
   3306   3307   3308     1   109.8800469 414.216000
   3306   3307   3309     1   109.8800469 414.216000
   3306   3310   3311     1   109.8800469 414.216000
   3306   3310   3312     1   109.8800469 414.216000
   3306   3313   3314     1   109.8800469 414.216000
   3306   3313   3315     1   109.8800469 414.216000
   3307   3319   3320     1   109.8000471 387.438400
   3307   3319   3321     1   109.8000471 387.438400
   3308   3307   3319     1   109.5600471 388.275200
   3308   3307   3309     1   108.4600466 328.025600
   3309   3307   3319     1   109.5600471 388.275200
   3310   3322   3323     1   109.8000471 387.438400
   3310   3322   3324     1   109.8000471 387.438400
   3311   3310   3322     1   109.5600471 388.275200
   3311   3310   3312     1   108.4600466 328.025600
   3312   3310   3322     1   109.5600471 388.275200
   3313   3316   3317     1   109.8000471 387.438400
   3313   3316   3318     1   109.8000471 387.438400
   3314   3313   3316     1   109.5600471 388.275200
   3314   3313   3315     1   108.4600466 328.025600
   3315   3313   3316     1   109.5600471 388.275200
   3316   3325   3326     1   109.5600471 388.275200
   3316   3325   3327     1   109.5600471 388.275200
   3317   3316   3325     1   109.8000471 387.438400
   3317   3316   3318     1   107.5800459 329.699200
   3318   3316   3325     1   109.8000471 387.438400
   3319   3331   3332     1   109.5600471 388.275200
   3319   3331   3333     1   109.5600471 388.275200
   3320   3319   3331     1   109.8000471 387.438400
   3320   3319   3321     1   107.5800459 329.699200
   3321   3319   3331     1   109.8000471 387.438400
   3322   3328   3329     1   109.5600471 388.275200
   3322   3328   3330     1   109.5600471 388.275200
   3323   3322   3328     1   109.8000471 387.438400
   3323   3322   3324     1   107.5800459 329.699200
   3324   3322   3328     1   109.8000471 387.438400
   3326   3325   3334     1   109.7800468 425.094400
   3326   3325   3327     1   108.4600466 328.025600
   3327   3325   3334     1   109.7800468 425.094400
   3329   3328   6698     1   109.7800468 425.094400
   3329   3328   3330     1   108.4600466 328.025600
   3330   3328   6698     1   109.7800468 425.094400
   3332   3331   6727     1   109.7800468 425.094400
   3332   3331   3333     1   108.4600466 328.025600
   3333   3331   6727     1   109.7800468 425.094400
   3335   3336   3337     1   109.8800469 414.216000
   3335   3336   3338     1   109.8800469 414.216000
   3335   3339   3340     1   109.8800469 414.216000
   3335   3339   3341     1   109.8800469 414.216000
   3335   3342   3343     1   109.8800469 414.216000
   3335   3342   3344     1   109.8800469 414.216000
   3336   3348   3349     1   109.8000471 387.438400
   3336   3348   3350     1   109.8000471 387.438400
   3337   3336   3348     1   109.5600471 388.275200
   3337   3336   3338     1   108.4600466 328.025600
   3338   3336   3348     1   109.5600471 388.275200
   3339   3351   3352     1   109.8000471 387.438400
   3339   3351   3353     1   109.8000471 387.438400
   3340   3339   3351     1   109.5600471 388.275200
   3340   3339   3341     1   108.4600466 328.025600
   3341   3339   3351     1   109.5600471 388.275200
   3342   3345   3346     1   109.8000471 387.438400
   3342   3345   3347     1   109.8000471 387.438400
   3343   3342   3345     1   109.5600471 388.275200
   3343   3342   3344     1   108.4600466 328.025600
   3344   3342   3345     1   109.5600471 388.275200
   3345   3354   3355     1   109.5600471 388.275200
   3345   3354   3356     1   109.5600471 388.275200
   3346   3345   3354     1   109.8000471 387.438400
   3346   3345   3347     1   107.5800459 329.699200
   3347   3345   3354     1   109.8000471 387.438400
   3348   3360   3361     1   109.5600471 388.275200
   3348   3360   3362     1   109.5600471 388.275200
   3349   3348   3360     1   109.8000471 387.438400
   3349   3348   3350     1   107.5800459 329.699200
   3350   3348   3360     1   109.8000471 387.438400
   3351   3357   3358     1   109.5600471 388.275200
   3351   3357   3359     1   109.5600471 388.275200
   3352   3351   3357     1   109.8000471 387.438400
   3352   3351   3353     1   107.5800459 329.699200
   3353   3351   3357     1   109.8000471 387.438400
   3355   3354   3363     1   109.7800468 425.094400
   3355   3354   3356     1   108.4600466 328.025600
   3356   3354   3363     1   109.7800468 425.094400
   3358   3357   6756     1   109.7800468 425.094400
   3358   3357   3359     1   108.4600466 328.025600
   3359   3357   6756     1   109.7800468 425.094400
   3361   3360   6785     1   109.7800468 425.094400
   3361   3360   3362     1   108.4600466 328.025600
   3362   3360   6785     1   109.7800468 425.094400
   3364   3365   3366     1   109.8800469 414.216000
   3364   3365   3367     1   109.8800469 414.216000
   3364   3368   3369     1   109.8800469 414.216000
   3364   3368   3370     1   109.8800469 414.216000
   3364   3371   3372     1   109.8800469 414.216000
   3364   3371   3373     1   109.8800469 414.216000
   3365   3377   3378     1   109.8000471 387.438400
   3365   3377   3379     1   109.8000471 387.438400
   3366   3365   3377     1   109.5600471 388.275200
   3366   3365   3367     1   108.4600466 328.025600
   3367   3365   3377     1   109.5600471 388.275200
   3368   3380   3381     1   109.8000471 387.438400
   3368   3380   3382     1   109.8000471 387.438400
   3369   3368   3380     1   109.5600471 388.275200
   3369   3368   3370     1   108.4600466 328.025600
   3370   3368   3380     1   109.5600471 388.275200
   3371   3374   3375     1   109.8000471 387.438400
   3371   3374   3376     1   109.8000471 387.438400
   3372   3371   3374     1   109.5600471 388.275200
   3372   3371   3373     1   108.4600466 328.025600
   3373   3371   3374     1   109.5600471 388.275200
   3374   3383   3384     1   109.5600471 388.275200
   3374   3383   3385     1   109.5600471 388.275200
   3375   3374   3383     1   109.8000471 387.438400
   3375   3374   3376     1   107.5800459 329.699200
   3376   3374   3383     1   109.8000471 387.438400
   3377   3389   3390     1   109.5600471 388.275200
   3377   3389   3391     1   109.5600471 388.275200
   3378   3377   3389     1   109.8000471 387.438400
   3378   3377   3379     1   107.5800459 329.699200
   3379   3377   3389     1   109.8000471 387.438400
   3380   3386   3387     1   109.5600471 388.275200
   3380   3386   3388     1   109.5600471 388.275200
   3381   3380   3386     1   109.8000471 387.438400
   3381   3380   3382     1   107.5800459 329.699200
   3382   3380   3386     1   109.8000471 387.438400
   3384   3383   3392     1   109.7800468 425.094400
   3384   3383   3385     1   108.4600466 328.025600
   3385   3383   3392     1   109.7800468 425.094400
   3387   3386   6814     1   109.7800468 425.094400
   3387   3386   3388     1   108.4600466 328.025600
   3388   3386   6814     1   109.7800468 425.094400
   3390   3389   6843     1   109.7800468 425.094400
   3390   3389   3391     1   108.4600466 328.025600
   3391   3389   6843     1   109.7800468 425.094400
   3393   3394   3395     1   109.8800469 414.216000
   3393   3394   3396     1   109.8800469 414.216000
   3393   3397   3398     1   109.8800469 414.216000
   3393   3397   3399     1   109.8800469 414.216000
   3393   3400   3401     1   109.8800469 414.216000
   3393   3400   3402     1   109.8800469 414.216000
   3394   3406   3407     1   109.8000471 387.438400
   3394   3406   3408     1   109.8000471 387.438400
   3395   3394   3406     1   109.5600471 388.275200
   3395   3394   3396     1   108.4600466 328.025600
   3396   3394   3406     1   109.5600471 388.275200
   3397   3409   3410     1   109.8000471 387.438400
   3397   3409   3411     1   109.8000471 387.438400
   3398   3397   3409     1   109.5600471 388.275200
   3398   3397   3399     1   108.4600466 328.025600
   3399   3397   3409     1   109.5600471 388.275200
   3400   3403   3404     1   109.8000471 387.438400
   3400   3403   3405     1   109.8000471 387.438400
   3401   3400   3403     1   109.5600471 388.275200
   3401   3400   3402     1   108.4600466 328.025600
   3402   3400   3403     1   109.5600471 388.275200
   3403   3412   3413     1   109.5600471 388.275200
   3403   3412   3414     1   109.5600471 388.275200
   3404   3403   3412     1   109.8000471 387.438400
   3404   3403   3405     1   107.5800459 329.699200
   3405   3403   3412     1   109.8000471 387.438400
   3406   3418   3419     1   109.5600471 388.275200
   3406   3418   3420     1   109.5600471 388.275200
   3407   3406   3418     1   109.8000471 387.438400
   3407   3406   3408     1   107.5800459 329.699200
   3408   3406   3418     1   109.8000471 387.438400
   3409   3415   3416     1   109.5600471 388.275200
   3409   3415   3417     1   109.5600471 388.275200
   3410   3409   3415     1   109.8000471 387.438400
   3410   3409   3411     1   107.5800459 329.699200
   3411   3409   3415     1   109.8000471 387.438400
   3413   3412   3421     1   109.7800468 425.094400
   3413   3412   3414     1   108.4600466 328.025600
   3414   3412   3421     1   109.7800468 425.094400
   3416   3415   6872     1   109.7800468 425.094400
   3416   3415   3417     1   108.4600466 328.025600
   3417   3415   6872     1   109.7800468 425.094400
   3419   3418   6901     1   109.7800468 425.094400
   3419   3418   3420     1   108.4600466 328.025600
   3420   3418   6901     1   109.7800468 425.094400
   3422   3423   3424     1   109.8800469 414.216000
   3422   3423   3425     1   109.8800469 414.216000
   3422   3426   3427     1   109.8800469 414.216000
   3422   3426   3428     1   109.8800469 414.216000
   3422   3429   3430     1   109.8800469 414.216000
   3422   3429   3431     1   109.8800469 414.216000
   3423   3435   3436     1   109.8000471 387.438400
   3423   3435   3437     1   109.8000471 387.438400
   3424   3423   3435     1   109.5600471 388.275200
   3424   3423   3425     1   108.4600466 328.025600
   3425   3423   3435     1   109.5600471 388.275200
   3426   3438   3439     1   109.8000471 387.438400
   3426   3438   3440     1   109.8000471 387.438400
   3427   3426   3438     1   109.5600471 388.275200
   3427   3426   3428     1   108.4600466 328.025600
   3428   3426   3438     1   109.5600471 388.275200
   3429   3432   3433     1   109.8000471 387.438400
   3429   3432   3434     1   109.8000471 387.438400
   3430   3429   3432     1   109.5600471 388.275200
   3430   3429   3431     1   108.4600466 328.025600
   3431   3429   3432     1   109.5600471 388.275200
   3432   3441   3442     1   109.5600471 388.275200
   3432   3441   3443     1   109.5600471 388.275200
   3433   3432   3441     1   109.8000471 387.438400
   3433   3432   3434     1   107.5800459 329.699200
   3434   3432   3441     1   109.8000471 387.438400
   3435   3447   3448     1   109.5600471 388.275200
   3435   3447   3449     1   109.5600471 388.275200
   3436   3435   3447     1   109.8000471 387.438400
   3436   3435   3437     1   107.5800459 329.699200
   3437   3435   3447     1   109.8000471 387.438400
   3438   3444   3445     1   109.5600471 388.275200
   3438   3444   3446     1   109.5600471 388.275200
   3439   3438   3444     1   109.8000471 387.438400
   3439   3438   3440     1   107.5800459 329.699200
   3440   3438   3444     1   109.8000471 387.438400
   3442   3441   3450     1   109.7800468 425.094400
   3442   3441   3443     1   108.4600466 328.025600
   3443   3441   3450     1   109.7800468 425.094400
   3445   3444   6930     1   109.7800468 425.094400
   3445   3444   3446     1   108.4600466 328.025600
   3446   3444   6930     1   109.7800468 425.094400
   3448   3447   6959     1   109.7800468 425.094400
   3448   3447   3449     1   108.4600466 328.025600
   3449   3447   6959     1   109.7800468 425.094400
   3451   3452   3453     1   109.8800469 414.216000
   3451   3452   3454     1   109.8800469 414.216000
   3451   3455   3456     1   109.8800469 414.216000
   3451   3455   3457     1   109.8800469 414.216000
   3451   3458   3459     1   109.8800469 414.216000
   3451   3458   3460     1   109.8800469 414.216000
   3452   3464   3465     1   109.8000471 387.438400
   3452   3464   3466     1   109.8000471 387.438400
   3453   3452   3464     1   109.5600471 388.275200
   3453   3452   3454     1   108.4600466 328.025600
   3454   3452   3464     1   109.5600471 388.275200
   3455   3467   3468     1   109.8000471 387.438400
   3455   3467   3469     1   109.8000471 387.438400
   3456   3455   3467     1   109.5600471 388.275200
   3456   3455   3457     1   108.4600466 328.025600
   3457   3455   3467     1   109.5600471 388.275200
   3458   3461   3462     1   109.8000471 387.438400
   3458   3461   3463     1   109.8000471 387.438400
   3459   3458   3461     1   109.5600471 388.275200
   3459   3458   3460     1   108.4600466 328.025600
   3460   3458   3461     1   109.5600471 388.275200
   3461   3470   3471     1   109.5600471 388.275200
   3461   3470   3472     1   109.5600471 388.275200
   3462   3461   3470     1   109.8000471 387.438400
   3462   3461   3463     1   107.5800459 329.699200
   3463   3461   3470     1   109.8000471 387.438400
   3464   3476   3477     1   109.5600471 388.275200
   3464   3476   3478     1   109.5600471 388.275200
   3465   3464   3476     1   109.8000471 387.438400
   3465   3464   3466     1   107.5800459 329.699200
   3466   3464   3476     1   109.8000471 387.438400
   3467   3473   3474     1   109.5600471 388.275200
   3467   3473   3475     1   109.5600471 388.275200
   3468   3467   3473     1   109.8000471 387.438400
   3468   3467   3469     1   107.5800459 329.699200
   3469   3467   3473     1   109.8000471 387.438400
   3471   3470   3479     1   109.7800468 425.094400
   3471   3470   3472     1   108.4600466 328.025600
   3472   3470   3479     1   109.7800468 425.094400
   3474   3473   6988     1   109.7800468 425.094400
   3474   3473   3475     1   108.4600466 328.025600
   3475   3473   6988     1   109.7800468 425.094400
   3477   3476   7017     1   109.7800468 425.094400
   3477   3476   3478     1   108.4600466 328.025600
   3478   3476   7017     1   109.7800468 425.094400
   3480   3481   3482     1   109.8800469 414.216000
   3480   3481   3483     1   109.8800469 414.216000
   3480   3484   3485     1   109.8800469 414.216000
   3480   3484   3486     1   109.8800469 414.216000
   3480   3487   3488     1   109.8800469 414.216000
   3480   3487   3489     1   109.8800469 414.216000
   3481   3493   3494     1   109.8000471 387.438400
   3481   3493   3495     1   109.8000471 387.438400
   3482   3481   3493     1   109.5600471 388.275200
   3482   3481   3483     1   108.4600466 328.025600
   3483   3481   3493     1   109.5600471 388.275200
   3484   3496   3497     1   109.8000471 387.438400
   3484   3496   3498     1   109.8000471 387.438400
   3485   3484   3496     1   109.5600471 388.275200
   3485   3484   3486     1   108.4600466 328.025600
   3486   3484   3496     1   109.5600471 388.275200
   3487   3490   3491     1   109.8000471 387.438400
   3487   3490   3492     1   109.8000471 387.438400
   3488   3487   3490     1   109.5600471 388.275200
   3488   3487   3489     1   108.4600466 328.025600
   3489   3487   3490     1   109.5600471 388.275200
   3490   3499   3500     1   109.5600471 388.275200
   3490   3499   3501     1   109.5600471 388.275200
   3491   3490   3499     1   109.8000471 387.438400
   3491   3490   3492     1   107.5800459 329.699200
   3492   3490   3499     1   109.8000471 387.438400
   3493   3505   3506     1   109.5600471 388.275200
   3493   3505   3507     1   109.5600471 388.275200
   3494   3493   3505     1   109.8000471 387.438400
   3494   3493   3495     1   107.5800459 329.699200
   3495   3493   3505     1   109.8000471 387.438400
   3496   3502   3503     1   109.5600471 388.275200
   3496   3502   3504     1   109.5600471 388.275200
   3497   3496   3502     1   109.8000471 387.438400
   3497   3496   3498     1   107.5800459 329.699200
   3498   3496   3502     1   109.8000471 387.438400
   3500   3499   3508     1   109.7800468 425.094400
   3500   3499   3501     1   108.4600466 328.025600
   3501   3499   3508     1   109.7800468 425.094400
   3503   3502   7046     1   109.7800468 425.094400
   3503   3502   3504     1   108.4600466 328.025600
   3504   3502   7046     1   109.7800468 425.094400
   3506   3505   7075     1   109.7800468 425.094400
   3506   3505   3507     1   108.4600466 328.025600
   3507   3505   7075     1   109.7800468 425.094400
   3509   3510   3511     1   109.8800469 414.216000
   3509   3510   3512     1   109.8800469 414.216000
   3509   3513   3514     1   109.8800469 414.216000
   3509   3513   3515     1   109.8800469 414.216000
   3509   3516   3517     1   109.8800469 414.216000
   3509   3516   3518     1   109.8800469 414.216000
   3510   3522   3523     1   109.8000471 387.438400
   3510   3522   3524     1   109.8000471 387.438400
   3511   3510   3522     1   109.5600471 388.275200
   3511   3510   3512     1   108.4600466 328.025600
   3512   3510   3522     1   109.5600471 388.275200
   3513   3525   3526     1   109.8000471 387.438400
   3513   3525   3527     1   109.8000471 387.438400
   3514   3513   3525     1   109.5600471 388.275200
   3514   3513   3515     1   108.4600466 328.025600
   3515   3513   3525     1   109.5600471 388.275200
   3516   3519   3520     1   109.8000471 387.438400
   3516   3519   3521     1   109.8000471 387.438400
   3517   3516   3519     1   109.5600471 388.275200
   3517   3516   3518     1   108.4600466 328.025600
   3518   3516   3519     1   109.5600471 388.275200
   3519   3528   3529     1   109.5600471 388.275200
   3519   3528   3530     1   109.5600471 388.275200
   3520   3519   3528     1   109.8000471 387.438400
   3520   3519   3521     1   107.5800459 329.699200
   3521   3519   3528     1   109.8000471 387.438400
   3522   3534   3535     1   109.5600471 388.275200
   3522   3534   3536     1   109.5600471 388.275200
   3523   3522   3534     1   109.8000471 387.438400
   3523   3522   3524     1   107.5800459 329.699200
   3524   3522   3534     1   109.8000471 387.438400
   3525   3531   3532     1   109.5600471 388.275200
   3525   3531   3533     1   109.5600471 388.275200
   3526   3525   3531     1   109.8000471 387.438400
   3526   3525   3527     1   107.5800459 329.699200
   3527   3525   3531     1   109.8000471 387.438400
   3529   3528   3537     1   109.7800468 425.094400
   3529   3528   3530     1   108.4600466 328.025600
   3530   3528   3537     1   109.7800468 425.094400
   3532   3531   7104     1   109.7800468 425.094400
   3532   3531   3533     1   108.4600466 328.025600
   3533   3531   7104     1   109.7800468 425.094400
   3535   3534   7133     1   109.7800468 425.094400
   3535   3534   3536     1   108.4600466 328.025600
   3536   3534   7133     1   109.7800468 425.094400
   3538   3539   3540     1   109.8800469 414.216000
   3538   3539   3541     1   109.8800469 414.216000
   3538   3542   3543     1   109.8800469 414.216000
   3538   3542   3544     1   109.8800469 414.216000
   3538   3545   3546     1   109.8800469 414.216000
   3538   3545   3547     1   109.8800469 414.216000
   3539   3551   3552     1   109.8000471 387.438400
   3539   3551   3553     1   109.8000471 387.438400
   3540   3539   3551     1   109.5600471 388.275200
   3540   3539   3541     1   108.4600466 328.025600
   3541   3539   3551     1   109.5600471 388.275200
   3542   3554   3555     1   109.8000471 387.438400
   3542   3554   3556     1   109.8000471 387.438400
   3543   3542   3554     1   109.5600471 388.275200
   3543   3542   3544     1   108.4600466 328.025600
   3544   3542   3554     1   109.5600471 388.275200
   3545   3548   3549     1   109.8000471 387.438400
   3545   3548   3550     1   109.8000471 387.438400
   3546   3545   3548     1   109.5600471 388.275200
   3546   3545   3547     1   108.4600466 328.025600
   3547   3545   3548     1   109.5600471 388.275200
   3548   3557   3558     1   109.5600471 388.275200
   3548   3557   3559     1   109.5600471 388.275200
   3549   3548   3557     1   109.8000471 387.438400
   3549   3548   3550     1   107.5800459 329.699200
   3550   3548   3557     1   109.8000471 387.438400
   3551   3563   3564     1   109.5600471 388.275200
   3551   3563   3565     1   109.5600471 388.275200
   3552   3551   3563     1   109.8000471 387.438400
   3552   3551   3553     1   107.5800459 329.699200
   3553   3551   3563     1   109.8000471 387.438400
   3554   3560   3561     1   109.5600471 388.275200
   3554   3560   3562     1   109.5600471 388.275200
   3555   3554   3560     1   109.8000471 387.438400
   3555   3554   3556     1   107.5800459 329.699200
   3556   3554   3560     1   109.8000471 387.438400
   3558   3557   3566     1   109.7800468 425.094400
   3558   3557   3559     1   108.4600466 328.025600
   3559   3557   3566     1   109.7800468 425.094400
   3561   3560   7162     1   109.7800468 425.094400
   3561   3560   3562     1   108.4600466 328.025600
   3562   3560   7162     1   109.7800468 425.094400
   3564   3563   7191     1   109.7800468 425.094400
   3564   3563   3565     1   108.4600466 328.025600
   3565   3563   7191     1   109.7800468 425.094400
   3567   3568   3569     1   109.8800469 414.216000
   3567   3568   3570     1   109.8800469 414.216000
   3567   3571   3572     1   109.8800469 414.216000
   3567   3571   3573     1   109.8800469 414.216000
   3567   3574   3575     1   109.8800469 414.216000
   3567   3574   3576     1   109.8800469 414.216000
   3568   3580   3581     1   109.8000471 387.438400
   3568   3580   3582     1   109.8000471 387.438400
   3569   3568   3580     1   109.5600471 388.275200
   3569   3568   3570     1   108.4600466 328.025600
   3570   3568   3580     1   109.5600471 388.275200
   3571   3583   3584     1   109.8000471 387.438400
   3571   3583   3585     1   109.8000471 387.438400
   3572   3571   3583     1   109.5600471 388.275200
   3572   3571   3573     1   108.4600466 328.025600
   3573   3571   3583     1   109.5600471 388.275200
   3574   3577   3578     1   109.8000471 387.438400
   3574   3577   3579     1   109.8000471 387.438400
   3575   3574   3577     1   109.5600471 388.275200
   3575   3574   3576     1   108.4600466 328.025600
   3576   3574   3577     1   109.5600471 388.275200
   3577   3586   3587     1   109.5600471 388.275200
   3577   3586   3588     1   109.5600471 388.275200
   3578   3577   3586     1   109.8000471 387.438400
   3578   3577   3579     1   107.5800459 329.699200
   3579   3577   3586     1   109.8000471 387.438400
   3580   3592   3593     1   109.5600471 388.275200
   3580   3592   3594     1   109.5600471 388.275200
   3581   3580   3592     1   109.8000471 387.438400
   3581   3580   3582     1   107.5800459 329.699200
   3582   3580   3592     1   109.8000471 387.438400
   3583   3589   3590     1   109.5600471 388.275200
   3583   3589   3591     1   109.5600471 388.275200
   3584   3583   3589     1   109.8000471 387.438400
   3584   3583   3585     1   107.5800459 329.699200
   3585   3583   3589     1   109.8000471 387.438400
   3587   3586   3595     1   109.7800468 425.094400
   3587   3586   3588     1   108.4600466 328.025600
   3588   3586   3595     1   109.7800468 425.094400
   3590   3589   7220     1   109.7800468 425.094400
   3590   3589   3591     1   108.4600466 328.025600
   3591   3589   7220     1   109.7800468 425.094400
   3593   3592   7249     1   109.7800468 425.094400
   3593   3592   3594     1   108.4600466 328.025600
   3594   3592   7249     1   109.7800468 425.094400
   3596   3597   3598     1   109.8800469 414.216000
   3596   3597   3599     1   109.8800469 414.216000
   3596   3600   3601     1   109.8800469 414.216000
   3596   3600   3602     1   109.8800469 414.216000
   3596   3603   3604     1   109.8800469 414.216000
   3596   3603   3605     1   109.8800469 414.216000
   3597   3609   3610     1   109.8000471 387.438400
   3597   3609   3611     1   109.8000471 387.438400
   3598   3597   3609     1   109.5600471 388.275200
   3598   3597   3599     1   108.4600466 328.025600
   3599   3597   3609     1   109.5600471 388.275200
   3600   3612   3613     1   109.8000471 387.438400
   3600   3612   3614     1   109.8000471 387.438400
   3601   3600   3612     1   109.5600471 388.275200
   3601   3600   3602     1   108.4600466 328.025600
   3602   3600   3612     1   109.5600471 388.275200
   3603   3606   3607     1   109.8000471 387.438400
   3603   3606   3608     1   109.8000471 387.438400
   3604   3603   3606     1   109.5600471 388.275200
   3604   3603   3605     1   108.4600466 328.025600
   3605   3603   3606     1   109.5600471 388.275200
   3606   3615   3616     1   109.5600471 388.275200
   3606   3615   3617     1   109.5600471 388.275200
   3607   3606   3615     1   109.8000471 387.438400
   3607   3606   3608     1   107.5800459 329.699200
   3608   3606   3615     1   109.8000471 387.438400
   3609   3621   3622     1   109.5600471 388.275200
   3609   3621   3623     1   109.5600471 388.275200
   3610   3609   3621     1   109.8000471 387.438400
   3610   3609   3611     1   107.5800459 329.699200
   3611   3609   3621     1   109.8000471 387.438400
   3612   3618   3619     1   109.5600471 388.275200
   3612   3618   3620     1   109.5600471 388.275200
   3613   3612   3618     1   109.8000471 387.438400
   3613   3612   3614     1   107.5800459 329.699200
   3614   3612   3618     1   109.8000471 387.438400
   3616   3615   3624     1   109.7800468 425.094400
   3616   3615   3617     1   108.4600466 328.025600
   3617   3615   3624     1   109.7800468 425.094400
   3619   3618   7278     1   109.7800468 425.094400
   3619   3618   3620     1   108.4600466 328.025600
   3620   3618   7278     1   109.7800468 425.094400
   3622   3621   7307     1   109.7800468 425.094400
   3622   3621   3623     1   108.4600466 328.025600
   3623   3621   7307     1   109.7800468 425.094400
   3625   3626   3627     1   109.8800469 414.216000
   3625   3626   3628     1   109.8800469 414.216000
   3625   3629   3630     1   109.8800469 414.216000
   3625   3629   3631     1   109.8800469 414.216000
   3625   3632   3633     1   109.8800469 414.216000
   3625   3632   3634     1   109.8800469 414.216000
   3626   3638   3639     1   109.8000471 387.438400
   3626   3638   3640     1   109.8000471 387.438400
   3627   3626   3638     1   109.5600471 388.275200
   3627   3626   3628     1   108.4600466 328.025600
   3628   3626   3638     1   109.5600471 388.275200
   3629   3641   3642     1   109.8000471 387.438400
   3629   3641   3643     1   109.8000471 387.438400
   3630   3629   3641     1   109.5600471 388.275200
   3630   3629   3631     1   108.4600466 328.025600
   3631   3629   3641     1   109.5600471 388.275200
   3632   3635   3636     1   109.8000471 387.438400
   3632   3635   3637     1   109.8000471 387.438400
   3633   3632   3635     1   109.5600471 388.275200
   3633   3632   3634     1   108.4600466 328.025600
   3634   3632   3635     1   109.5600471 388.275200
   3635   3644   3645     1   109.5600471 388.275200
   3635   3644   3646     1   109.5600471 388.275200
   3636   3635   3644     1   109.8000471 387.438400
   3636   3635   3637     1   107.5800459 329.699200
   3637   3635   3644     1   109.8000471 387.438400
   3638   3650   3651     1   109.5600471 388.275200
   3638   3650   3652     1   109.5600471 388.275200
   3639   3638   3650     1   109.8000471 387.438400
   3639   3638   3640     1   107.5800459 329.699200
   3640   3638   3650     1   109.8000471 387.438400
   3641   3647   3648     1   109.5600471 388.275200
   3641   3647   3649     1   109.5600471 388.275200
   3642   3641   3647     1   109.8000471 387.438400
   3642   3641   3643     1   107.5800459 329.699200
   3643   3641   3647     1   109.8000471 387.438400
   3645   3644   3653     1   109.7800468 425.094400
   3645   3644   3646     1   108.4600466 328.025600
   3646   3644   3653     1   109.7800468 425.094400
   3648   3647   7336     1   109.7800468 425.094400
   3648   3647   3649     1   108.4600466 328.025600
   3649   3647   7336     1   109.7800468 425.094400
   3651   3650   7365     1   109.7800468 425.094400
   3651   3650   3652     1   108.4600466 328.025600
   3652   3650   7365     1   109.7800468 425.094400
   3654   3655   3656     1   109.8800469 414.216000
   3654   3655   3657     1   109.8800469 414.216000
   3654   3658   3659     1   109.8800469 414.216000
   3654   3658   3660     1   109.8800469 414.216000
   3654   3661   3662     1   109.8800469 414.216000
   3654   3661   3663     1   109.8800469 414.216000
   3655   3667   3668     1   109.8000471 387.438400
   3655   3667   3669     1   109.8000471 387.438400
   3656   3655   3667     1   109.5600471 388.275200
   3656   3655   3657     1   108.4600466 328.025600
   3657   3655   3667     1   109.5600471 388.275200
   3658   3670   3671     1   109.8000471 387.438400
   3658   3670   3672     1   109.8000471 387.438400
   3659   3658   3670     1   109.5600471 388.275200
   3659   3658   3660     1   108.4600466 328.025600
   3660   3658   3670     1   109.5600471 388.275200
   3661   3664   3665     1   109.8000471 387.438400
   3661   3664   3666     1   109.8000471 387.438400
   3662   3661   3664     1   109.5600471 388.275200
   3662   3661   3663     1   108.4600466 328.025600
   3663   3661   3664     1   109.5600471 388.275200
   3664   3673   3674     1   109.5600471 388.275200
   3664   3673   3675     1   109.5600471 388.275200
   3665   3664   3673     1   109.8000471 387.438400
   3665   3664   3666     1   107.5800459 329.699200
   3666   3664   3673     1   109.8000471 387.438400
   3667   3679   3680     1   109.5600471 388.275200
   3667   3679   3681     1   109.5600471 388.275200
   3668   3667   3679     1   109.8000471 387.438400
   3668   3667   3669     1   107.5800459 329.699200
   3669   3667   3679     1   109.8000471 387.438400
   3670   3676   3677     1   109.5600471 388.275200
   3670   3676   3678     1   109.5600471 388.275200
   3671   3670   3676     1   109.8000471 387.438400
   3671   3670   3672     1   107.5800459 329.699200
   3672   3670   3676     1   109.8000471 387.438400
   3674   3673   3682     1   109.7800468 425.094400
   3674   3673   3675     1   108.4600466 328.025600
   3675   3673   3682     1   109.7800468 425.094400
   3677   3676   7394     1   109.7800468 425.094400
   3677   3676   3678     1   108.4600466 328.025600
   3678   3676   7394     1   109.7800468 425.094400
   3680   3679   7423     1   109.7800468 425.094400
   3680   3679   3681     1   108.4600466 328.025600
   3681   3679   7423     1   109.7800468 425.094400
   3683   3684   3685     1   109.8800469 414.216000
   3683   3684   3686     1   109.8800469 414.216000
   3683   3687   3688     1   109.8800469 414.216000
   3683   3687   3689     1   109.8800469 414.216000
   3683   3690   3691     1   109.8800469 414.216000
   3683   3690   3692     1   109.8800469 414.216000
   3684   3696   3697     1   109.8000471 387.438400
   3684   3696   3698     1   109.8000471 387.438400
   3685   3684   3696     1   109.5600471 388.275200
   3685   3684   3686     1   108.4600466 328.025600
   3686   3684   3696     1   109.5600471 388.275200
   3687   3699   3700     1   109.8000471 387.438400
   3687   3699   3701     1   109.8000471 387.438400
   3688   3687   3699     1   109.5600471 388.275200
   3688   3687   3689     1   108.4600466 328.025600
   3689   3687   3699     1   109.5600471 388.275200
   3690   3693   3694     1   109.8000471 387.438400
   3690   3693   3695     1   109.8000471 387.438400
   3691   3690   3693     1   109.5600471 388.275200
   3691   3690   3692     1   108.4600466 328.025600
   3692   3690   3693     1   109.5600471 388.275200
   3693   3702   3703     1   109.5600471 388.275200
   3693   3702   3704     1   109.5600471 388.275200
   3694   3693   3702     1   109.8000471 387.438400
   3694   3693   3695     1   107.5800459 329.699200
   3695   3693   3702     1   109.8000471 387.438400
   3696   3708   3709     1   109.5600471 388.275200
   3696   3708   3710     1   109.5600471 388.275200
   3697   3696   3708     1   109.8000471 387.438400
   3697   3696   3698     1   107.5800459 329.699200
   3698   3696   3708     1   109.8000471 387.438400
   3699   3705   3706     1   109.5600471 388.275200
   3699   3705   3707     1   109.5600471 388.275200
   3700   3699   3705     1   109.8000471 387.438400
   3700   3699   3701     1   107.5800459 329.699200
   3701   3699   3705     1   109.8000471 387.438400
   3703   3702   3711     1   109.7800468 425.094400
   3703   3702   3704     1   108.4600466 328.025600
   3704   3702   3711     1   109.7800468 425.094400
   3706   3705   7452     1   109.7800468 425.094400
   3706   3705   3707     1   108.4600466 328.025600
   3707   3705   7452     1   109.7800468 425.094400
   3709   3708   7481     1   109.7800468 425.094400
   3709   3708   3710     1   108.4600466 328.025600
   3710   3708   7481     1   109.7800468 425.094400
   3712   3713   3714     1   109.8800469 414.216000
   3712   3713   3715     1   109.8800469 414.216000
   3712   3716   3717     1   109.8800469 414.216000
   3712   3716   3718     1   109.8800469 414.216000
   3712   3719   3720     1   109.8800469 414.216000
   3712   3719   3721     1   109.8800469 414.216000
   3713   3725   3726     1   109.8000471 387.438400
   3713   3725   3727     1   109.8000471 387.438400
   3714   3713   3725     1   109.5600471 388.275200
   3714   3713   3715     1   108.4600466 328.025600
   3715   3713   3725     1   109.5600471 388.275200
   3716   3728   3729     1   109.8000471 387.438400
   3716   3728   3730     1   109.8000471 387.438400
   3717   3716   3728     1   109.5600471 388.275200
   3717   3716   3718     1   108.4600466 328.025600
   3718   3716   3728     1   109.5600471 388.275200
   3719   3722   3723     1   109.8000471 387.438400
   3719   3722   3724     1   109.8000471 387.438400
   3720   3719   3722     1   109.5600471 388.275200
   3720   3719   3721     1   108.4600466 328.025600
   3721   3719   3722     1   109.5600471 388.275200
   3722   3731   3732     1   109.5600471 388.275200
   3722   3731   3733     1   109.5600471 388.275200
   3723   3722   3731     1   109.8000471 387.438400
   3723   3722   3724     1   107.5800459 329.699200
   3724   3722   3731     1   109.8000471 387.438400
   3725   3737   3738     1   109.5600471 388.275200
   3725   3737   3739     1   109.5600471 388.275200
   3726   3725   3737     1   109.8000471 387.438400
   3726   3725   3727     1   107.5800459 329.699200
   3727   3725   3737     1   109.8000471 387.438400
   3728   3734   3735     1   109.5600471 388.275200
   3728   3734   3736     1   109.5600471 388.275200
   3729   3728   3734     1   109.8000471 387.438400
   3729   3728   3730     1   107.5800459 329.699200
   3730   3728   3734     1   109.8000471 387.438400
   3732   3731   3740     1   109.7800468 425.094400
   3732   3731   3733     1   108.4600466 328.025600
   3733   3731   3740     1   109.7800468 425.094400
   3735   3734   7510     1   109.7800468 425.094400
   3735   3734   3736     1   108.4600466 328.025600
   3736   3734   7510     1   109.7800468 425.094400
   3738   3737   7539     1   109.7800468 425.094400
   3738   3737   3739     1   108.4600466 328.025600
   3739   3737   7539     1   109.7800468 425.094400
   3741   3742   3743     1   109.8800469 414.216000
   3741   3742   3744     1   109.8800469 414.216000
   3741   3745   3746     1   109.8800469 414.216000
   3741   3745   3747     1   109.8800469 414.216000
   3741   3748   3749     1   109.8800469 414.216000
   3741   3748   3750     1   109.8800469 414.216000
   3742   3754   3755     1   109.8000471 387.438400
   3742   3754   3756     1   109.8000471 387.438400
   3743   3742   3754     1   109.5600471 388.275200
   3743   3742   3744     1   108.4600466 328.025600
   3744   3742   3754     1   109.5600471 388.275200
   3745   3757   3758     1   109.8000471 387.438400
   3745   3757   3759     1   109.8000471 387.438400
   3746   3745   3757     1   109.5600471 388.275200
   3746   3745   3747     1   108.4600466 328.025600
   3747   3745   3757     1   109.5600471 388.275200
   3748   3751   3752     1   109.8000471 387.438400
   3748   3751   3753     1   109.8000471 387.438400
   3749   3748   3751     1   109.5600471 388.275200
   3749   3748   3750     1   108.4600466 328.025600
   3750   3748   3751     1   109.5600471 388.275200
   3751   3760   3761     1   109.5600471 388.275200
   3751   3760   3762     1   109.5600471 388.275200
   3752   3751   3760     1   109.8000471 387.438400
   3752   3751   3753     1   107.5800459 329.699200
   3753   3751   3760     1   109.8000471 387.438400
   3754   3766   3767     1   109.5600471 388.275200
   3754   3766   3768     1   109.5600471 388.275200
   3755   3754   3766     1   109.8000471 387.438400
   3755   3754   3756     1   107.5800459 329.699200
   3756   3754   3766     1   109.8000471 387.438400
   3757   3763   3764     1   109.5600471 388.275200
   3757   3763   3765     1   109.5600471 388.275200
   3758   3757   3763     1   109.8000471 387.438400
   3758   3757   3759     1   107.5800459 329.699200
   3759   3757   3763     1   109.8000471 387.438400
   3761   3760   3769     1   109.7800468 425.094400
   3761   3760   3762     1   108.4600466 328.025600
   3762   3760   3769     1   109.7800468 425.094400
   3764   3763   7568     1   109.7800468 425.094400
   3764   3763   3765     1   108.4600466 328.025600
   3765   3763   7568     1   109.7800468 425.094400
   3767   3766   7597     1   109.7800468 425.094400
   3767   3766   3768     1   108.4600466 328.025600
   3768   3766   7597     1   109.7800468 425.094400
   3770   3771   3772     1   109.8800469 414.216000
   3770   3771   3773     1   109.8800469 414.216000
   3770   3774   3775     1   109.8800469 414.216000
   3770   3774   3776     1   109.8800469 414.216000
   3770   3777   3778     1   109.8800469 414.216000
   3770   3777   3779     1   109.8800469 414.216000
   3771   3783   3784     1   109.8000471 387.438400
   3771   3783   3785     1   109.8000471 387.438400
   3772   3771   3783     1   109.5600471 388.275200
   3772   3771   3773     1   108.4600466 328.025600
   3773   3771   3783     1   109.5600471 388.275200
   3774   3786   3787     1   109.8000471 387.438400
   3774   3786   3788     1   109.8000471 387.438400
   3775   3774   3786     1   109.5600471 388.275200
   3775   3774   3776     1   108.4600466 328.025600
   3776   3774   3786     1   109.5600471 388.275200
   3777   3780   3781     1   109.8000471 387.438400
   3777   3780   3782     1   109.8000471 387.438400
   3778   3777   3780     1   109.5600471 388.275200
   3778   3777   3779     1   108.4600466 328.025600
   3779   3777   3780     1   109.5600471 388.275200
   3780   3789   3790     1   109.5600471 388.275200
   3780   3789   3791     1   109.5600471 388.275200
   3781   3780   3789     1   109.8000471 387.438400
   3781   3780   3782     1   107.5800459 329.699200
   3782   3780   3789     1   109.8000471 387.438400
   3783   3795   3796     1   109.5600471 388.275200
   3783   3795   3797     1   109.5600471 388.275200
   3784   3783   3795     1   109.8000471 387.438400
   3784   3783   3785     1   107.5800459 329.699200
   3785   3783   3795     1   109.8000471 387.438400
   3786   3792   3793     1   109.5600471 388.275200
   3786   3792   3794     1   109.5600471 388.275200
   3787   3786   3792     1   109.8000471 387.438400
   3787   3786   3788     1   107.5800459 329.699200
   3788   3786   3792     1   109.8000471 387.438400
   3790   3789   3798     1   109.7800468 425.094400
   3790   3789   3791     1   108.4600466 328.025600
   3791   3789   3798     1   109.7800468 425.094400
   3793   3792   7626     1   109.7800468 425.094400
   3793   3792   3794     1   108.4600466 328.025600
   3794   3792   7626     1   109.7800468 425.094400
   3796   3795   7655     1   109.7800468 425.094400
   3796   3795   3797     1   108.4600466 328.025600
   3797   3795   7655     1   109.7800468 425.094400
   3799   3800   3801     1   109.8800469 414.216000
   3799   3800   3802     1   109.8800469 414.216000
   3799   3803   3804     1   109.8800469 414.216000
   3799   3803   3805     1   109.8800469 414.216000
   3799   3806   3807     1   109.8800469 414.216000
   3799   3806   3808     1   109.8800469 414.216000
   3800   3812   3813     1   109.8000471 387.438400
   3800   3812   3814     1   109.8000471 387.438400
   3801   3800   3812     1   109.5600471 388.275200
   3801   3800   3802     1   108.4600466 328.025600
   3802   3800   3812     1   109.5600471 388.275200
   3803   3815   3816     1   109.8000471 387.438400
   3803   3815   3817     1   109.8000471 387.438400
   3804   3803   3815     1   109.5600471 388.275200
   3804   3803   3805     1   108.4600466 328.025600
   3805   3803   3815     1   109.5600471 388.275200
   3806   3809   3810     1   109.8000471 387.438400
   3806   3809   3811     1   109.8000471 387.438400
   3807   3806   3809     1   109.5600471 388.275200
   3807   3806   3808     1   108.4600466 328.025600
   3808   3806   3809     1   109.5600471 388.275200
   3809   3818   3819     1   109.5600471 388.275200
   3809   3818   3820     1   109.5600471 388.275200
   3810   3809   3818     1   109.8000471 387.438400
   3810   3809   3811     1   107.5800459 329.699200
   3811   3809   3818     1   109.8000471 387.438400
   3812   3824   3825     1   109.5600471 388.275200
   3812   3824   3826     1   109.5600471 388.275200
   3813   3812   3824     1   109.8000471 387.438400
   3813   3812   3814     1   107.5800459 329.699200
   3814   3812   3824     1   109.8000471 387.438400
   3815   3821   3822     1   109.5600471 388.275200
   3815   3821   3823     1   109.5600471 388.275200
   3816   3815   3821     1   109.8000471 387.438400
   3816   3815   3817     1   107.5800459 329.699200
   3817   3815   3821     1   109.8000471 387.438400
   3819   3818   3827     1   109.7800468 425.094400
   3819   3818   3820     1   108.4600466 328.025600
   3820   3818   3827     1   109.7800468 425.094400
   3822   3821   7684     1   109.7800468 425.094400
   3822   3821   3823     1   108.4600466 328.025600
   3823   3821   7684     1   109.7800468 425.094400
   3825   3824   7713     1   109.7800468 425.094400
   3825   3824   3826     1   108.4600466 328.025600
   3826   3824   7713     1   109.7800468 425.094400
   3828   3829   3830     1   109.8800469 414.216000
   3828   3829   3831     1   109.8800469 414.216000
   3828   3832   3833     1   109.8800469 414.216000
   3828   3832   3834     1   109.8800469 414.216000
   3828   3835   3836     1   109.8800469 414.216000
   3828   3835   3837     1   109.8800469 414.216000
   3829   3841   3842     1   109.8000471 387.438400
   3829   3841   3843     1   109.8000471 387.438400
   3830   3829   3841     1   109.5600471 388.275200
   3830   3829   3831     1   108.4600466 328.025600
   3831   3829   3841     1   109.5600471 388.275200
   3832   3844   3845     1   109.8000471 387.438400
   3832   3844   3846     1   109.8000471 387.438400
   3833   3832   3844     1   109.5600471 388.275200
   3833   3832   3834     1   108.4600466 328.025600
   3834   3832   3844     1   109.5600471 388.275200
   3835   3838   3839     1   109.8000471 387.438400
   3835   3838   3840     1   109.8000471 387.438400
   3836   3835   3838     1   109.5600471 388.275200
   3836   3835   3837     1   108.4600466 328.025600
   3837   3835   3838     1   109.5600471 388.275200
   3838   3847   3848     1   109.5600471 388.275200
   3838   3847   3849     1   109.5600471 388.275200
   3839   3838   3847     1   109.8000471 387.438400
   3839   3838   3840     1   107.5800459 329.699200
   3840   3838   3847     1   109.8000471 387.438400
   3841   3853   3854     1   109.5600471 388.275200
   3841   3853   3855     1   109.5600471 388.275200
   3842   3841   3853     1   109.8000471 387.438400
   3842   3841   3843     1   107.5800459 329.699200
   3843   3841   3853     1   109.8000471 387.438400
   3844   3850   3851     1   109.5600471 388.275200
   3844   3850   3852     1   109.5600471 388.275200
   3845   3844   3850     1   109.8000471 387.438400
   3845   3844   3846     1   107.5800459 329.699200
   3846   3844   3850     1   109.8000471 387.438400
   3848   3847   3856     1   109.7800468 425.094400
   3848   3847   3849     1   108.4600466 328.025600
   3849   3847   3856     1   109.7800468 425.094400
   3851   3850   7742     1   109.7800468 425.094400
   3851   3850   3852     1   108.4600466 328.025600
   3852   3850   7742     1   109.7800468 425.094400
   3854   3853   7771     1   109.7800468 425.094400
   3854   3853   3855     1   108.4600466 328.025600
   3855   3853   7771     1   109.7800468 425.094400
   3857   3858   3859     1   109.8800469 414.216000
   3857   3858   3860     1   109.8800469 414.216000
   3857   3861   3862     1   109.8800469 414.216000
   3857   3861   3863     1   109.8800469 414.216000
   3857   3864   3865     1   109.8800469 414.216000
   3857   3864   3866     1   109.8800469 414.216000
   3858   3870   3871     1   109.8000471 387.438400
   3858   3870   3872     1   109.8000471 387.438400
   3859   3858   3870     1   109.5600471 388.275200
   3859   3858   3860     1   108.4600466 328.025600
   3860   3858   3870     1   109.5600471 388.275200
   3861   3873   3874     1   109.8000471 387.438400
   3861   3873   3875     1   109.8000471 387.438400
   3862   3861   3873     1   109.5600471 388.275200
   3862   3861   3863     1   108.4600466 328.025600
   3863   3861   3873     1   109.5600471 388.275200
   3864   3867   3868     1   109.8000471 387.438400
   3864   3867   3869     1   109.8000471 387.438400
   3865   3864   3867     1   109.5600471 388.275200
   3865   3864   3866     1   108.4600466 328.025600
   3866   3864   3867     1   109.5600471 388.275200
   3867   3876   3877     1   109.5600471 388.275200
   3867   3876   3878     1   109.5600471 388.275200
   3868   3867   3876     1   109.8000471 387.438400
   3868   3867   3869     1   107.5800459 329.699200
   3869   3867   3876     1   109.8000471 387.438400
   3870   3882   3883     1   109.5600471 388.275200
   3870   3882   3884     1   109.5600471 388.275200
   3871   3870   3882     1   109.8000471 387.438400
   3871   3870   3872     1   107.5800459 329.699200
   3872   3870   3882     1   109.8000471 387.438400
   3873   3879   3880     1   109.5600471 388.275200
   3873   3879   3881     1   109.5600471 388.275200
   3874   3873   3879     1   109.8000471 387.438400
   3874   3873   3875     1   107.5800459 329.699200
   3875   3873   3879     1   109.8000471 387.438400
   3877   3876   3885     1   109.7800468 425.094400
   3877   3876   3878     1   108.4600466 328.025600
   3878   3876   3885     1   109.7800468 425.094400
   3880   3879   7800     1   109.7800468 425.094400
   3880   3879   3881     1   108.4600466 328.025600
   3881   3879   7800     1   109.7800468 425.094400
   3883   3882   7829     1   109.7800468 425.094400
   3883   3882   3884     1   108.4600466 328.025600
   3884   3882   7829     1   109.7800468 425.094400
   3886   3887   3888     1   109.8800469 414.216000
   3886   3887   3889     1   109.8800469 414.216000
   3886   3890   3891     1   109.8800469 414.216000
   3886   3890   3892     1   109.8800469 414.216000
   3886   3893   3894     1   109.8800469 414.216000
   3886   3893   3895     1   109.8800469 414.216000
   3887   3899   3900     1   109.8000471 387.438400
   3887   3899   3901     1   109.8000471 387.438400
   3888   3887   3899     1   109.5600471 388.275200
   3888   3887   3889     1   108.4600466 328.025600
   3889   3887   3899     1   109.5600471 388.275200
   3890   3902   3903     1   109.8000471 387.438400
   3890   3902   3904     1   109.8000471 387.438400
   3891   3890   3902     1   109.5600471 388.275200
   3891   3890   3892     1   108.4600466 328.025600
   3892   3890   3902     1   109.5600471 388.275200
   3893   3896   3897     1   109.8000471 387.438400
   3893   3896   3898     1   109.8000471 387.438400
   3894   3893   3896     1   109.5600471 388.275200
   3894   3893   3895     1   108.4600466 328.025600
   3895   3893   3896     1   109.5600471 388.275200
   3896   3905   3906     1   109.5600471 388.275200
   3896   3905   3907     1   109.5600471 388.275200
   3897   3896   3905     1   109.8000471 387.438400
   3897   3896   3898     1   107.5800459 329.699200
   3898   3896   3905     1   109.8000471 387.438400
   3899   3911   3912     1   109.5600471 388.275200
   3899   3911   3913     1   109.5600471 388.275200
   3900   3899   3911     1   109.8000471 387.438400
   3900   3899   3901     1   107.5800459 329.699200
   3901   3899   3911     1   109.8000471 387.438400
   3902   3908   3909     1   109.5600471 388.275200
   3902   3908   3910     1   109.5600471 388.275200
   3903   3902   3908     1   109.8000471 387.438400
   3903   3902   3904     1   107.5800459 329.699200
   3904   3902   3908     1   109.8000471 387.438400
   3906   3905   3914     1   109.7800468 425.094400
   3906   3905   3907     1   108.4600466 328.025600
   3907   3905   3914     1   109.7800468 425.094400
   3909   3908   7858     1   109.7800468 425.094400
   3909   3908   3910     1   108.4600466 328.025600
   3910   3908   7858     1   109.7800468 425.094400
   3912   3911   7887     1   109.7800468 425.094400
   3912   3911   3913     1   108.4600466 328.025600
   3913   3911   7887     1   109.7800468 425.094400
   3915   3916   3917     1   109.8800469 414.216000
   3915   3916   3918     1   109.8800469 414.216000
   3915   3919   3920     1   109.8800469 414.216000
   3915   3919   3921     1   109.8800469 414.216000
   3915   3922   3923     1   109.8800469 414.216000
   3915   3922   3924     1   109.8800469 414.216000
   3916   3928   3929     1   109.8000471 387.438400
   3916   3928   3930     1   109.8000471 387.438400
   3917   3916   3928     1   109.5600471 388.275200
   3917   3916   3918     1   108.4600466 328.025600
   3918   3916   3928     1   109.5600471 388.275200
   3919   3931   3932     1   109.8000471 387.438400
   3919   3931   3933     1   109.8000471 387.438400
   3920   3919   3931     1   109.5600471 388.275200
   3920   3919   3921     1   108.4600466 328.025600
   3921   3919   3931     1   109.5600471 388.275200
   3922   3925   3926     1   109.8000471 387.438400
   3922   3925   3927     1   109.8000471 387.438400
   3923   3922   3925     1   109.5600471 388.275200
   3923   3922   3924     1   108.4600466 328.025600
   3924   3922   3925     1   109.5600471 388.275200
   3925   3934   3935     1   109.5600471 388.275200
   3925   3934   3936     1   109.5600471 388.275200
   3926   3925   3934     1   109.8000471 387.438400
   3926   3925   3927     1   107.5800459 329.699200
   3927   3925   3934     1   109.8000471 387.438400
   3928   3940   3941     1   109.5600471 388.275200
   3928   3940   3942     1   109.5600471 388.275200
   3929   3928   3940     1   109.8000471 387.438400
   3929   3928   3930     1   107.5800459 329.699200
   3930   3928   3940     1   109.8000471 387.438400
   3931   3937   3938     1   109.5600471 388.275200
   3931   3937   3939     1   109.5600471 388.275200
   3932   3931   3937     1   109.8000471 387.438400
   3932   3931   3933     1   107.5800459 329.699200
   3933   3931   3937     1   109.8000471 387.438400
   3935   3934   3943     1   109.7800468 425.094400
   3935   3934   3936     1   108.4600466 328.025600
   3936   3934   3943     1   109.7800468 425.094400
   3938   3937   7916     1   109.7800468 425.094400
   3938   3937   3939     1   108.4600466 328.025600
   3939   3937   7916     1   109.7800468 425.094400
   3941   3940   7945     1   109.7800468 425.094400
   3941   3940   3942     1   108.4600466 328.025600
   3942   3940   7945     1   109.7800468 425.094400
   3944   3945   3946     1   109.8800469 414.216000
   3944   3945   3947     1   109.8800469 414.216000
   3944   3948   3949     1   109.8800469 414.216000
   3944   3948   3950     1   109.8800469 414.216000
   3944   3951   3952     1   109.8800469 414.216000
   3944   3951   3953     1   109.8800469 414.216000
   3945   3957   3958     1   109.8000471 387.438400
   3945   3957   3959     1   109.8000471 387.438400
   3946   3945   3957     1   109.5600471 388.275200
   3946   3945   3947     1   108.4600466 328.025600
   3947   3945   3957     1   109.5600471 388.275200
   3948   3960   3961     1   109.8000471 387.438400
   3948   3960   3962     1   109.8000471 387.438400
   3949   3948   3960     1   109.5600471 388.275200
   3949   3948   3950     1   108.4600466 328.025600
   3950   3948   3960     1   109.5600471 388.275200
   3951   3954   3955     1   109.8000471 387.438400
   3951   3954   3956     1   109.8000471 387.438400
   3952   3951   3954     1   109.5600471 388.275200
   3952   3951   3953     1   108.4600466 328.025600
   3953   3951   3954     1   109.5600471 388.275200
   3954   3963   3964     1   109.5600471 388.275200
   3954   3963   3965     1   109.5600471 388.275200
   3955   3954   3963     1   109.8000471 387.438400
   3955   3954   3956     1   107.5800459 329.699200
   3956   3954   3963     1   109.8000471 387.438400
   3957   3969   3970     1   109.5600471 388.275200
   3957   3969   3971     1   109.5600471 388.275200
   3958   3957   3969     1   109.8000471 387.438400
   3958   3957   3959     1   107.5800459 329.699200
   3959   3957   3969     1   109.8000471 387.438400
   3960   3966   3967     1   109.5600471 388.275200
   3960   3966   3968     1   109.5600471 388.275200
   3961   3960   3966     1   109.8000471 387.438400
   3961   3960   3962     1   107.5800459 329.699200
   3962   3960   3966     1   109.8000471 387.438400
   3964   3963   3972     1   109.7800468 425.094400
   3964   3963   3965     1   108.4600466 328.025600
   3965   3963   3972     1   109.7800468 425.094400
   3967   3966   7974     1   109.7800468 425.094400
   3967   3966   3968     1   108.4600466 328.025600
   3968   3966   7974     1   109.7800468 425.094400
   3970   3969   8003     1   109.7800468 425.094400
   3970   3969   3971     1   108.4600466 328.025600
   3971   3969   8003     1   109.7800468 425.094400
   3973   3974   3975     1   109.8800469 414.216000
   3973   3974   3976     1   109.8800469 414.216000
   3973   3977   3978     1   109.8800469 414.216000
   3973   3977   3979     1   109.8800469 414.216000
   3973   3980   3981     1   109.8800469 414.216000
   3973   3980   3982     1   109.8800469 414.216000
   3974   3986   3987     1   109.8000471 387.438400
   3974   3986   3988     1   109.8000471 387.438400
   3975   3974   3986     1   109.5600471 388.275200
   3975   3974   3976     1   108.4600466 328.025600
   3976   3974   3986     1   109.5600471 388.275200
   3977   3989   3990     1   109.8000471 387.438400
   3977   3989   3991     1   109.8000471 387.438400
   3978   3977   3989     1   109.5600471 388.275200
   3978   3977   3979     1   108.4600466 328.025600
   3979   3977   3989     1   109.5600471 388.275200
   3980   3983   3984     1   109.8000471 387.438400
   3980   3983   3985     1   109.8000471 387.438400
   3981   3980   3983     1   109.5600471 388.275200
   3981   3980   3982     1   108.4600466 328.025600
   3982   3980   3983     1   109.5600471 388.275200
   3983   3992   3993     1   109.5600471 388.275200
   3983   3992   3994     1   109.5600471 388.275200
   3984   3983   3992     1   109.8000471 387.438400
   3984   3983   3985     1   107.5800459 329.699200
   3985   3983   3992     1   109.8000471 387.438400
   3986   3998   3999     1   109.5600471 388.275200
   3986   3998   4000     1   109.5600471 388.275200
   3987   3986   3998     1   109.8000471 387.438400
   3987   3986   3988     1   107.5800459 329.699200
   3988   3986   3998     1   109.8000471 387.438400
   3989   3995   3996     1   109.5600471 388.275200
   3989   3995   3997     1   109.5600471 388.275200
   3990   3989   3995     1   109.8000471 387.438400
   3990   3989   3991     1   107.5800459 329.699200
   3991   3989   3995     1   109.8000471 387.438400
   3993   3992   4001     1   109.7800468 425.094400
   3993   3992   3994     1   108.4600466 328.025600
   3994   3992   4001     1   109.7800468 425.094400
   3996   3995   8032     1   109.7800468 425.094400
   3996   3995   3997     1   108.4600466 328.025600
   3997   3995   8032     1   109.7800468 425.094400
   3999   3998   8061     1   109.7800468 425.094400
   3999   3998   4000     1   108.4600466 328.025600
   4000   3998   8061     1   109.7800468 425.094400
   4002   4003   4004     1   109.8800469 414.216000
   4002   4003   4005     1   109.8800469 414.216000
   4002   4006   4007     1   109.8800469 414.216000
   4002   4006   4008     1   109.8800469 414.216000
   4002   4009   4010     1   109.8800469 414.216000
   4002   4009   4011     1   109.8800469 414.216000
   4003   4015   4016     1   109.8000471 387.438400
   4003   4015   4017     1   109.8000471 387.438400
   4004   4003   4015     1   109.5600471 388.275200
   4004   4003   4005     1   108.4600466 328.025600
   4005   4003   4015     1   109.5600471 388.275200
   4006   4018   4019     1   109.8000471 387.438400
   4006   4018   4020     1   109.8000471 387.438400
   4007   4006   4018     1   109.5600471 388.275200
   4007   4006   4008     1   108.4600466 328.025600
   4008   4006   4018     1   109.5600471 388.275200
   4009   4012   4013     1   109.8000471 387.438400
   4009   4012   4014     1   109.8000471 387.438400
   4010   4009   4012     1   109.5600471 388.275200
   4010   4009   4011     1   108.4600466 328.025600
   4011   4009   4012     1   109.5600471 388.275200
   4012   4021   4022     1   109.5600471 388.275200
   4012   4021   4023     1   109.5600471 388.275200
   4013   4012   4021     1   109.8000471 387.438400
   4013   4012   4014     1   107.5800459 329.699200
   4014   4012   4021     1   109.8000471 387.438400
   4015   4027   4028     1   109.5600471 388.275200
   4015   4027   4029     1   109.5600471 388.275200
   4016   4015   4027     1   109.8000471 387.438400
   4016   4015   4017     1   107.5800459 329.699200
   4017   4015   4027     1   109.8000471 387.438400
   4018   4024   4025     1   109.5600471 388.275200
   4018   4024   4026     1   109.5600471 388.275200
   4019   4018   4024     1   109.8000471 387.438400
   4019   4018   4020     1   107.5800459 329.699200
   4020   4018   4024     1   109.8000471 387.438400
   4022   4021   4030     1   109.7800468 425.094400
   4022   4021   4023     1   108.4600466 328.025600
   4023   4021   4030     1   109.7800468 425.094400
   4025   4024   8090     1   109.7800468 425.094400
   4025   4024   4026     1   108.4600466 328.025600
   4026   4024   8090     1   109.7800468 425.094400
   4028   4027   8119     1   109.7800468 425.094400
   4028   4027   4029     1   108.4600466 328.025600
   4029   4027   8119     1   109.7800468 425.094400
   4031   4032   4033     1   109.8800469 414.216000
   4031   4032   4034     1   109.8800469 414.216000
   4031   4035   4036     1   109.8800469 414.216000
   4031   4035   4037     1   109.8800469 414.216000
   4031   4038   4039     1   109.8800469 414.216000
   4031   4038   4040     1   109.8800469 414.216000
   4032   4044   4045     1   109.8000471 387.438400
   4032   4044   4046     1   109.8000471 387.438400
   4033   4032   4044     1   109.5600471 388.275200
   4033   4032   4034     1   108.4600466 328.025600
   4034   4032   4044     1   109.5600471 388.275200
   4035   4047   4048     1   109.8000471 387.438400
   4035   4047   4049     1   109.8000471 387.438400
   4036   4035   4047     1   109.5600471 388.275200
   4036   4035   4037     1   108.4600466 328.025600
   4037   4035   4047     1   109.5600471 388.275200
   4038   4041   4042     1   109.8000471 387.438400
   4038   4041   4043     1   109.8000471 387.438400
   4039   4038   4041     1   109.5600471 388.275200
   4039   4038   4040     1   108.4600466 328.025600
   4040   4038   4041     1   109.5600471 388.275200
   4041   4050   4051     1   109.5600471 388.275200
   4041   4050   4052     1   109.5600471 388.275200
   4042   4041   4050     1   109.8000471 387.438400
   4042   4041   4043     1   107.5800459 329.699200
   4043   4041   4050     1   109.8000471 387.438400
   4044   4056   4057     1   109.5600471 388.275200
   4044   4056   4058     1   109.5600471 388.275200
   4045   4044   4056     1   109.8000471 387.438400
   4045   4044   4046     1   107.5800459 329.699200
   4046   4044   4056     1   109.8000471 387.438400
   4047   4053   4054     1   109.5600471 388.275200
   4047   4053   4055     1   109.5600471 388.275200
   4048   4047   4053     1   109.8000471 387.438400
   4048   4047   4049     1   107.5800459 329.699200
   4049   4047   4053     1   109.8000471 387.438400
   4051   4050   4059     1   109.7800468 425.094400
   4051   4050   4052     1   108.4600466 328.025600
   4052   4050   4059     1   109.7800468 425.094400
   4054   4053   8148     1   109.7800468 425.094400
   4054   4053   4055     1   108.4600466 328.025600
   4055   4053   8148     1   109.7800468 425.094400
   4057   4056   8177     1   109.7800468 425.094400
   4057   4056   4058     1   108.4600466 328.025600
   4058   4056   8177     1   109.7800468 425.094400
   4060   4061   4062     1   109.8800469 414.216000
   4060   4061   4063     1   109.8800469 414.216000
   4060   4064   4065     1   109.8800469 414.216000
   4060   4064   4066     1   109.8800469 414.216000
   4060   4067   4068     1   109.8800469 414.216000
   4060   4067   4069     1   109.8800469 414.216000
   4061   4073   4074     1   109.8000471 387.438400
   4061   4073   4075     1   109.8000471 387.438400
   4062   4061   4073     1   109.5600471 388.275200
   4062   4061   4063     1   108.4600466 328.025600
   4063   4061   4073     1   109.5600471 388.275200
   4064   4076   4077     1   109.8000471 387.438400
   4064   4076   4078     1   109.8000471 387.438400
   4065   4064   4076     1   109.5600471 388.275200
   4065   4064   4066     1   108.4600466 328.025600
   4066   4064   4076     1   109.5600471 388.275200
   4067   4070   4071     1   109.8000471 387.438400
   4067   4070   4072     1   109.8000471 387.438400
   4068   4067   4070     1   109.5600471 388.275200
   4068   4067   4069     1   108.4600466 328.025600
   4069   4067   4070     1   109.5600471 388.275200
   4070   4079   4080     1   109.5600471 388.275200
   4070   4079   4081     1   109.5600471 388.275200
   4071   4070   4079     1   109.8000471 387.438400
   4071   4070   4072     1   107.5800459 329.699200
   4072   4070   4079     1   109.8000471 387.438400
   4073   4085   4086     1   109.5600471 388.275200
   4073   4085   4087     1   109.5600471 388.275200
   4074   4073   4085     1   109.8000471 387.438400
   4074   4073   4075     1   107.5800459 329.699200
   4075   4073   4085     1   109.8000471 387.438400
   4076   4082   4083     1   109.5600471 388.275200
   4076   4082   4084     1   109.5600471 388.275200
   4077   4076   4082     1   109.8000471 387.438400
   4077   4076   4078     1   107.5800459 329.699200
   4078   4076   4082     1   109.8000471 387.438400
   4080   4079   4088     1   109.7800468 425.094400
   4080   4079   4081     1   108.4600466 328.025600
   4081   4079   4088     1   109.7800468 425.094400
   4083   4082   8206     1   109.7800468 425.094400
   4083   4082   4084     1   108.4600466 328.025600
   4084   4082   8206     1   109.7800468 425.094400
   4086   4085   8235     1   109.7800468 425.094400
   4086   4085   4087     1   108.4600466 328.025600
   4087   4085   8235     1   109.7800468 425.094400
   4089   4090   4091     1   109.8800469 414.216000
   4089   4090   4092     1   109.8800469 414.216000
   4089   4093   4094     1   109.8800469 414.216000
   4089   4093   4095     1   109.8800469 414.216000
   4089   4096   4097     1   109.8800469 414.216000
   4089   4096   4098     1   109.8800469 414.216000
   4090   4102   4103     1   109.8000471 387.438400
   4090   4102   4104     1   109.8000471 387.438400
   4091   4090   4102     1   109.5600471 388.275200
   4091   4090   4092     1   108.4600466 328.025600
   4092   4090   4102     1   109.5600471 388.275200
   4093   4105   4106     1   109.8000471 387.438400
   4093   4105   4107     1   109.8000471 387.438400
   4094   4093   4105     1   109.5600471 388.275200
   4094   4093   4095     1   108.4600466 328.025600
   4095   4093   4105     1   109.5600471 388.275200
   4096   4099   4100     1   109.8000471 387.438400
   4096   4099   4101     1   109.8000471 387.438400
   4097   4096   4099     1   109.5600471 388.275200
   4097   4096   4098     1   108.4600466 328.025600
   4098   4096   4099     1   109.5600471 388.275200
   4099   4108   4109     1   109.5600471 388.275200
   4099   4108   4110     1   109.5600471 388.275200
   4100   4099   4108     1   109.8000471 387.438400
   4100   4099   4101     1   107.5800459 329.699200
   4101   4099   4108     1   109.8000471 387.438400
   4102   4114   4115     1   109.5600471 388.275200
   4102   4114   4116     1   109.5600471 388.275200
   4103   4102   4114     1   109.8000471 387.438400
   4103   4102   4104     1   107.5800459 329.699200
   4104   4102   4114     1   109.8000471 387.438400
   4105   4111   4112     1   109.5600471 388.275200
   4105   4111   4113     1   109.5600471 388.275200
   4106   4105   4111     1   109.8000471 387.438400
   4106   4105   4107     1   107.5800459 329.699200
   4107   4105   4111     1   109.8000471 387.438400
   4109   4108   4117     1   109.7800468 425.094400
   4109   4108   4110     1   108.4600466 328.025600
   4110   4108   4117     1   109.7800468 425.094400
   4112   4111   8264     1   109.7800468 425.094400
   4112   4111   4113     1   108.4600466 328.025600
   4113   4111   8264     1   109.7800468 425.094400
   4115   4114   8293     1   109.7800468 425.094400
   4115   4114   4116     1   108.4600466 328.025600
   4116   4114   8293     1   109.7800468 425.094400
   4118   4119   4120     1   109.8800469 414.216000
   4118   4119   4121     1   109.8800469 414.216000
   4118   4122   4123     1   109.8800469 414.216000
   4118   4122   4124     1   109.8800469 414.216000
   4118   4125   4126     1   109.8800469 414.216000
   4118   4125   4127     1   109.8800469 414.216000
   4119   4131   4132     1   109.8000471 387.438400
   4119   4131   4133     1   109.8000471 387.438400
   4120   4119   4131     1   109.5600471 388.275200
   4120   4119   4121     1   108.4600466 328.025600
   4121   4119   4131     1   109.5600471 388.275200
   4122   4134   4135     1   109.8000471 387.438400
   4122   4134   4136     1   109.8000471 387.438400
   4123   4122   4134     1   109.5600471 388.275200
   4123   4122   4124     1   108.4600466 328.025600
   4124   4122   4134     1   109.5600471 388.275200
   4125   4128   4129     1   109.8000471 387.438400
   4125   4128   4130     1   109.8000471 387.438400
   4126   4125   4128     1   109.5600471 388.275200
   4126   4125   4127     1   108.4600466 328.025600
   4127   4125   4128     1   109.5600471 388.275200
   4128   4137   4138     1   109.5600471 388.275200
   4128   4137   4139     1   109.5600471 388.275200
   4129   4128   4137     1   109.8000471 387.438400
   4129   4128   4130     1   107.5800459 329.699200
   4130   4128   4137     1   109.8000471 387.438400
   4131   4143   4144     1   109.5600471 388.275200
   4131   4143   4145     1   109.5600471 388.275200
   4132   4131   4143     1   109.8000471 387.438400
   4132   4131   4133     1   107.5800459 329.699200
   4133   4131   4143     1   109.8000471 387.438400
   4134   4140   4141     1   109.5600471 388.275200
   4134   4140   4142     1   109.5600471 388.275200
   4135   4134   4140     1   109.8000471 387.438400
   4135   4134   4136     1   107.5800459 329.699200
   4136   4134   4140     1   109.8000471 387.438400
   4138   4137   4146     1   109.7800468 425.094400
   4138   4137   4139     1   108.4600466 328.025600
   4139   4137   4146     1   109.7800468 425.094400
   4141   4140   8322     1   109.7800468 425.094400
   4141   4140   4142     1   108.4600466 328.025600
   4142   4140   8322     1   109.7800468 425.094400
   4144   4143   8351     1   109.7800468 425.094400
   4144   4143   4145     1   108.4600466 328.025600
   4145   4143   8351     1   109.7800468 425.094400
   4147   4148   4149     1   109.8800469 414.216000
   4147   4148   4150     1   109.8800469 414.216000
   4147   4151   4152     1   109.8800469 414.216000
   4147   4151   4153     1   109.8800469 414.216000
   4147   4154   4155     1   109.8800469 414.216000
   4147   4154   4156     1   109.8800469 414.216000
   4148   4160   4161     1   109.8000471 387.438400
   4148   4160   4162     1   109.8000471 387.438400
   4149   4148   4160     1   109.5600471 388.275200
   4149   4148   4150     1   108.4600466 328.025600
   4150   4148   4160     1   109.5600471 388.275200
   4151   4163   4164     1   109.8000471 387.438400
   4151   4163   4165     1   109.8000471 387.438400
   4152   4151   4163     1   109.5600471 388.275200
   4152   4151   4153     1   108.4600466 328.025600
   4153   4151   4163     1   109.5600471 388.275200
   4154   4157   4158     1   109.8000471 387.438400
   4154   4157   4159     1   109.8000471 387.438400
   4155   4154   4157     1   109.5600471 388.275200
   4155   4154   4156     1   108.4600466 328.025600
   4156   4154   4157     1   109.5600471 388.275200
   4157   4166   4167     1   109.5600471 388.275200
   4157   4166   4168     1   109.5600471 388.275200
   4158   4157   4166     1   109.8000471 387.438400
   4158   4157   4159     1   107.5800459 329.699200
   4159   4157   4166     1   109.8000471 387.438400
   4160   4172   4173     1   109.5600471 388.275200
   4160   4172   4174     1   109.5600471 388.275200
   4161   4160   4172     1   109.8000471 387.438400
   4161   4160   4162     1   107.5800459 329.699200
   4162   4160   4172     1   109.8000471 387.438400
   4163   4169   4170     1   109.5600471 388.275200
   4163   4169   4171     1   109.5600471 388.275200
   4164   4163   4169     1   109.8000471 387.438400
   4164   4163   4165     1   107.5800459 329.699200
   4165   4163   4169     1   109.8000471 387.438400
   4167   4166   4175     1   109.7800468 425.094400
   4167   4166   4168     1   108.4600466 328.025600
   4168   4166   4175     1   109.7800468 425.094400
   4170   4169   8380     1   109.7800468 425.094400
   4170   4169   4171     1   108.4600466 328.025600
   4171   4169   8380     1   109.7800468 425.094400
   4173   4172   8409     1   109.7800468 425.094400
   4173   4172   4174     1   108.4600466 328.025600
   4174   4172   8409     1   109.7800468 425.094400
   4176   4177   4178     1   109.8800469 414.216000
   4176   4177   4179     1   109.8800469 414.216000
   4176   4180   4181     1   109.8800469 414.216000
   4176   4180   4182     1   109.8800469 414.216000
   4176   4183   4184     1   109.8800469 414.216000
   4176   4183   4185     1   109.8800469 414.216000
   4177   4189   4190     1   109.8000471 387.438400
   4177   4189   4191     1   109.8000471 387.438400
   4178   4177   4189     1   109.5600471 388.275200
   4178   4177   4179     1   108.4600466 328.025600
   4179   4177   4189     1   109.5600471 388.275200
   4180   4192   4193     1   109.8000471 387.438400
   4180   4192   4194     1   109.8000471 387.438400
   4181   4180   4192     1   109.5600471 388.275200
   4181   4180   4182     1   108.4600466 328.025600
   4182   4180   4192     1   109.5600471 388.275200
   4183   4186   4187     1   109.8000471 387.438400
   4183   4186   4188     1   109.8000471 387.438400
   4184   4183   4186     1   109.5600471 388.275200
   4184   4183   4185     1   108.4600466 328.025600
   4185   4183   4186     1   109.5600471 388.275200
   4186   4195   4196     1   109.5600471 388.275200
   4186   4195   4197     1   109.5600471 388.275200
   4187   4186   4195     1   109.8000471 387.438400
   4187   4186   4188     1   107.5800459 329.699200
   4188   4186   4195     1   109.8000471 387.438400
   4189   4201   4202     1   109.5600471 388.275200
   4189   4201   4203     1   109.5600471 388.275200
   4190   4189   4201     1   109.8000471 387.438400
   4190   4189   4191     1   107.5800459 329.699200
   4191   4189   4201     1   109.8000471 387.438400
   4192   4198   4199     1   109.5600471 388.275200
   4192   4198   4200     1   109.5600471 388.275200
   4193   4192   4198     1   109.8000471 387.438400
   4193   4192   4194     1   107.5800459 329.699200
   4194   4192   4198     1   109.8000471 387.438400
   4196   4195   4204     1   109.7800468 425.094400
   4196   4195   4197     1   108.4600466 328.025600
   4197   4195   4204     1   109.7800468 425.094400
   4199   4198   8438     1   109.7800468 425.094400
   4199   4198   4200     1   108.4600466 328.025600
   4200   4198   8438     1   109.7800468 425.094400
   4202   4201   8467     1   109.7800468 425.094400
   4202   4201   4203     1   108.4600466 328.025600
   4203   4201   8467     1   109.7800468 425.094400
   4205   4206   4207     1   109.8800469 414.216000
   4205   4206   4208     1   109.8800469 414.216000
   4205   4209   4210     1   109.8800469 414.216000
   4205   4209   4211     1   109.8800469 414.216000
   4205   4212   4213     1   109.8800469 414.216000
   4205   4212   4214     1   109.8800469 414.216000
   4206   4218   4219     1   109.8000471 387.438400
   4206   4218   4220     1   109.8000471 387.438400
   4207   4206   4218     1   109.5600471 388.275200
   4207   4206   4208     1   108.4600466 328.025600
   4208   4206   4218     1   109.5600471 388.275200
   4209   4221   4222     1   109.8000471 387.438400
   4209   4221   4223     1   109.8000471 387.438400
   4210   4209   4221     1   109.5600471 388.275200
   4210   4209   4211     1   108.4600466 328.025600
   4211   4209   4221     1   109.5600471 388.275200
   4212   4215   4216     1   109.8000471 387.438400
   4212   4215   4217     1   109.8000471 387.438400
   4213   4212   4215     1   109.5600471 388.275200
   4213   4212   4214     1   108.4600466 328.025600
   4214   4212   4215     1   109.5600471 388.275200
   4215   4224   4225     1   109.5600471 388.275200
   4215   4224   4226     1   109.5600471 388.275200
   4216   4215   4224     1   109.8000471 387.438400
   4216   4215   4217     1   107.5800459 329.699200
   4217   4215   4224     1   109.8000471 387.438400
   4218   4230   4231     1   109.5600471 388.275200
   4218   4230   4232     1   109.5600471 388.275200
   4219   4218   4230     1   109.8000471 387.438400
   4219   4218   4220     1   107.5800459 329.699200
   4220   4218   4230     1   109.8000471 387.438400
   4221   4227   4228     1   109.5600471 388.275200
   4221   4227   4229     1   109.5600471 388.275200
   4222   4221   4227     1   109.8000471 387.438400
   4222   4221   4223     1   107.5800459 329.699200
   4223   4221   4227     1   109.8000471 387.438400
   4225   4224   4233     1   109.7800468 425.094400
   4225   4224   4226     1   108.4600466 328.025600
   4226   4224   4233     1   109.7800468 425.094400
   4228   4227   8496     1   109.7800468 425.094400
   4228   4227   4229     1   108.4600466 328.025600
   4229   4227   8496     1   109.7800468 425.094400
   4231   4230   8525     1   109.7800468 425.094400
   4231   4230   4232     1   108.4600466 328.025600
   4232   4230   8525     1   109.7800468 425.094400
   4234   4235   4236     1   109.8800469 414.216000
   4234   4235   4237     1   109.8800469 414.216000
   4234   4238   4239     1   109.8800469 414.216000
   4234   4238   4240     1   109.8800469 414.216000
   4234   4241   4242     1   109.8800469 414.216000
   4234   4241   4243     1   109.8800469 414.216000
   4235   4247   4248     1   109.8000471 387.438400
   4235   4247   4249     1   109.8000471 387.438400
   4236   4235   4247     1   109.5600471 388.275200
   4236   4235   4237     1   108.4600466 328.025600
   4237   4235   4247     1   109.5600471 388.275200
   4238   4250   4251     1   109.8000471 387.438400
   4238   4250   4252     1   109.8000471 387.438400
   4239   4238   4250     1   109.5600471 388.275200
   4239   4238   4240     1   108.4600466 328.025600
   4240   4238   4250     1   109.5600471 388.275200
   4241   4244   4245     1   109.8000471 387.438400
   4241   4244   4246     1   109.8000471 387.438400
   4242   4241   4244     1   109.5600471 388.275200
   4242   4241   4243     1   108.4600466 328.025600
   4243   4241   4244     1   109.5600471 388.275200
   4244   4253   4254     1   109.5600471 388.275200
   4244   4253   4255     1   109.5600471 388.275200
   4245   4244   4253     1   109.8000471 387.438400
   4245   4244   4246     1   107.5800459 329.699200
   4246   4244   4253     1   109.8000471 387.438400
   4247   4259   4260     1   109.5600471 388.275200
   4247   4259   4261     1   109.5600471 388.275200
   4248   4247   4259     1   109.8000471 387.438400
   4248   4247   4249     1   107.5800459 329.699200
   4249   4247   4259     1   109.8000471 387.438400
   4250   4256   4257     1   109.5600471 388.275200
   4250   4256   4258     1   109.5600471 388.275200
   4251   4250   4256     1   109.8000471 387.438400
   4251   4250   4252     1   107.5800459 329.699200
   4252   4250   4256     1   109.8000471 387.438400
   4254   4253   4262     1   109.7800468 425.094400
   4254   4253   4255     1   108.4600466 328.025600
   4255   4253   4262     1   109.7800468 425.094400
   4257   4256   8554     1   109.7800468 425.094400
   4257   4256   4258     1   108.4600466 328.025600
   4258   4256   8554     1   109.7800468 425.094400
   4260   4259   8583     1   109.7800468 425.094400
   4260   4259   4261     1   108.4600466 328.025600
   4261   4259   8583     1   109.7800468 425.094400
   4263   4264   4265     1   109.8800469 414.216000
   4263   4264   4266     1   109.8800469 414.216000
   4263   4267   4268     1   109.8800469 414.216000
   4263   4267   4269     1   109.8800469 414.216000
   4263   4270   4271     1   109.8800469 414.216000
   4263   4270   4272     1   109.8800469 414.216000
   4264   4276   4277     1   109.8000471 387.438400
   4264   4276   4278     1   109.8000471 387.438400
   4265   4264   4276     1   109.5600471 388.275200
   4265   4264   4266     1   108.4600466 328.025600
   4266   4264   4276     1   109.5600471 388.275200
   4267   4279   4280     1   109.8000471 387.438400
   4267   4279   4281     1   109.8000471 387.438400
   4268   4267   4279     1   109.5600471 388.275200
   4268   4267   4269     1   108.4600466 328.025600
   4269   4267   4279     1   109.5600471 388.275200
   4270   4273   4274     1   109.8000471 387.438400
   4270   4273   4275     1   109.8000471 387.438400
   4271   4270   4273     1   109.5600471 388.275200
   4271   4270   4272     1   108.4600466 328.025600
   4272   4270   4273     1   109.5600471 388.275200
   4273   4282   4283     1   109.5600471 388.275200
   4273   4282   4284     1   109.5600471 388.275200
   4274   4273   4282     1   109.8000471 387.438400
   4274   4273   4275     1   107.5800459 329.699200
   4275   4273   4282     1   109.8000471 387.438400
   4276   4288   4289     1   109.5600471 388.275200
   4276   4288   4290     1   109.5600471 388.275200
   4277   4276   4288     1   109.8000471 387.438400
   4277   4276   4278     1   107.5800459 329.699200
   4278   4276   4288     1   109.8000471 387.438400
   4279   4285   4286     1   109.5600471 388.275200
   4279   4285   4287     1   109.5600471 388.275200
   4280   4279   4285     1   109.8000471 387.438400
   4280   4279   4281     1   107.5800459 329.699200
   4281   4279   4285     1   109.8000471 387.438400
   4283   4282   4291     1   109.7800468 425.094400
   4283   4282   4284     1   108.4600466 328.025600
   4284   4282   4291     1   109.7800468 425.094400
   4286   4285   8612     1   109.7800468 425.094400
   4286   4285   4287     1   108.4600466 328.025600
   4287   4285   8612     1   109.7800468 425.094400
   4289   4288   8641     1   109.7800468 425.094400
   4289   4288   4290     1   108.4600466 328.025600
   4290   4288   8641     1   109.7800468 425.094400
   4292   4293   4294     1   109.8800469 414.216000
   4292   4293   4295     1   109.8800469 414.216000
   4292   4296   4297     1   109.8800469 414.216000
   4292   4296   4298     1   109.8800469 414.216000
   4292   4299   4300     1   109.8800469 414.216000
   4292   4299   4301     1   109.8800469 414.216000
   4293   4305   4306     1   109.8000471 387.438400
   4293   4305   4307     1   109.8000471 387.438400
   4294   4293   4305     1   109.5600471 388.275200
   4294   4293   4295     1   108.4600466 328.025600
   4295   4293   4305     1   109.5600471 388.275200
   4296   4308   4309     1   109.8000471 387.438400
   4296   4308   4310     1   109.8000471 387.438400
   4297   4296   4308     1   109.5600471 388.275200
   4297   4296   4298     1   108.4600466 328.025600
   4298   4296   4308     1   109.5600471 388.275200
   4299   4302   4303     1   109.8000471 387.438400
   4299   4302   4304     1   109.8000471 387.438400
   4300   4299   4302     1   109.5600471 388.275200
   4300   4299   4301     1   108.4600466 328.025600
   4301   4299   4302     1   109.5600471 388.275200
   4302   4311   4312     1   109.5600471 388.275200
   4302   4311   4313     1   109.5600471 388.275200
   4303   4302   4311     1   109.8000471 387.438400
   4303   4302   4304     1   107.5800459 329.699200
   4304   4302   4311     1   109.8000471 387.438400
   4305   4317   4318     1   109.5600471 388.275200
   4305   4317   4319     1   109.5600471 388.275200
   4306   4305   4317     1   109.8000471 387.438400
   4306   4305   4307     1   107.5800459 329.699200
   4307   4305   4317     1   109.8000471 387.438400
   4308   4314   4315     1   109.5600471 388.275200
   4308   4314   4316     1   109.5600471 388.275200
   4309   4308   4314     1   109.8000471 387.438400
   4309   4308   4310     1   107.5800459 329.699200
   4310   4308   4314     1   109.8000471 387.438400
   4312   4311   4320     1   109.7800468 425.094400
   4312   4311   4313     1   108.4600466 328.025600
   4313   4311   4320     1   109.7800468 425.094400
   4315   4314   8670     1   109.7800468 425.094400
   4315   4314   4316     1   108.4600466 328.025600
   4316   4314   8670     1   109.7800468 425.094400
   4318   4317   8699     1   109.7800468 425.094400
   4318   4317   4319     1   108.4600466 328.025600
   4319   4317   8699     1   109.7800468 425.094400
   4321   4322   4323     1   109.8800469 414.216000
   4321   4322   4324     1   109.8800469 414.216000
   4321   4325   4326     1   109.8800469 414.216000
   4321   4325   4327     1   109.8800469 414.216000
   4321   4328   4329     1   109.8800469 414.216000
   4321   4328   4330     1   109.8800469 414.216000
   4322   4334   4335     1   109.8000471 387.438400
   4322   4334   4336     1   109.8000471 387.438400
   4323   4322   4334     1   109.5600471 388.275200
   4323   4322   4324     1   108.4600466 328.025600
   4324   4322   4334     1   109.5600471 388.275200
   4325   4337   4338     1   109.8000471 387.438400
   4325   4337   4339     1   109.8000471 387.438400
   4326   4325   4337     1   109.5600471 388.275200
   4326   4325   4327     1   108.4600466 328.025600
   4327   4325   4337     1   109.5600471 388.275200
   4328   4331   4332     1   109.8000471 387.438400
   4328   4331   4333     1   109.8000471 387.438400
   4329   4328   4331     1   109.5600471 388.275200
   4329   4328   4330     1   108.4600466 328.025600
   4330   4328   4331     1   109.5600471 388.275200
   4331   4340   4341     1   109.5600471 388.275200
   4331   4340   4342     1   109.5600471 388.275200
   4332   4331   4340     1   109.8000471 387.438400
   4332   4331   4333     1   107.5800459 329.699200
   4333   4331   4340     1   109.8000471 387.438400
   4334   4346   4347     1   109.5600471 388.275200
   4334   4346   4348     1   109.5600471 388.275200
   4335   4334   4346     1   109.8000471 387.438400
   4335   4334   4336     1   107.5800459 329.699200
   4336   4334   4346     1   109.8000471 387.438400
   4337   4343   4344     1   109.5600471 388.275200
   4337   4343   4345     1   109.5600471 388.275200
   4338   4337   4343     1   109.8000471 387.438400
   4338   4337   4339     1   107.5800459 329.699200
   4339   4337   4343     1   109.8000471 387.438400
   4341   4340   4349     1   109.7800468 425.094400
   4341   4340   4342     1   108.4600466 328.025600
   4342   4340   4349     1   109.7800468 425.094400
   4344   4343   8728     1   109.7800468 425.094400
   4344   4343   4345     1   108.4600466 328.025600
   4345   4343   8728     1   109.7800468 425.094400
   4347   4346   8757     1   109.7800468 425.094400
   4347   4346   4348     1   108.4600466 328.025600
   4348   4346   8757     1   109.7800468 425.094400
   4350   4351   4352     1   109.8800469 414.216000
   4350   4351   4353     1   109.8800469 414.216000
   4350   4354   4355     1   109.8800469 414.216000
   4350   4354   4356     1   109.8800469 414.216000
   4350   4357   4358     1   109.8800469 414.216000
   4350   4357   4359     1   109.8800469 414.216000
   4351   4363   4364     1   109.8000471 387.438400
   4351   4363   4365     1   109.8000471 387.438400
   4352   4351   4363     1   109.5600471 388.275200
   4352   4351   4353     1   108.4600466 328.025600
   4353   4351   4363     1   109.5600471 388.275200
   4354   4366   4367     1   109.8000471 387.438400
   4354   4366   4368     1   109.8000471 387.438400
   4355   4354   4366     1   109.5600471 388.275200
   4355   4354   4356     1   108.4600466 328.025600
   4356   4354   4366     1   109.5600471 388.275200
   4357   4360   4361     1   109.8000471 387.438400
   4357   4360   4362     1   109.8000471 387.438400
   4358   4357   4360     1   109.5600471 388.275200
   4358   4357   4359     1   108.4600466 328.025600
   4359   4357   4360     1   109.5600471 388.275200
   4360   4369   4370     1   109.5600471 388.275200
   4360   4369   4371     1   109.5600471 388.275200
   4361   4360   4369     1   109.8000471 387.438400
   4361   4360   4362     1   107.5800459 329.699200
   4362   4360   4369     1   109.8000471 387.438400
   4363   4375   4376     1   109.5600471 388.275200
   4363   4375   4377     1   109.5600471 388.275200
   4364   4363   4375     1   109.8000471 387.438400
   4364   4363   4365     1   107.5800459 329.699200
   4365   4363   4375     1   109.8000471 387.438400
   4366   4372   4373     1   109.5600471 388.275200
   4366   4372   4374     1   109.5600471 388.275200
   4367   4366   4372     1   109.8000471 387.438400
   4367   4366   4368     1   107.5800459 329.699200
   4368   4366   4372     1   109.8000471 387.438400
   4370   4369   4378     1   109.7800468 425.094400
   4370   4369   4371     1   108.4600466 328.025600
   4371   4369   4378     1   109.7800468 425.094400
   4373   4372   8786     1   109.7800468 425.094400
   4373   4372   4374     1   108.4600466 328.025600
   4374   4372   8786     1   109.7800468 425.094400
   4376   4375   8815     1   109.7800468 425.094400
   4376   4375   4377     1   108.4600466 328.025600
   4377   4375   8815     1   109.7800468 425.094400
   4379   4380   4381     1   109.8800469 414.216000
   4379   4380   4382     1   109.8800469 414.216000
   4379   4383   4384     1   109.8800469 414.216000
   4379   4383   4385     1   109.8800469 414.216000
   4379   4386   4387     1   109.8800469 414.216000
   4379   4386   4388     1   109.8800469 414.216000
   4380   4392   4393     1   109.8000471 387.438400
   4380   4392   4394     1   109.8000471 387.438400
   4381   4380   4392     1   109.5600471 388.275200
   4381   4380   4382     1   108.4600466 328.025600
   4382   4380   4392     1   109.5600471 388.275200
   4383   4395   4396     1   109.8000471 387.438400
   4383   4395   4397     1   109.8000471 387.438400
   4384   4383   4395     1   109.5600471 388.275200
   4384   4383   4385     1   108.4600466 328.025600
   4385   4383   4395     1   109.5600471 388.275200
   4386   4389   4390     1   109.8000471 387.438400
   4386   4389   4391     1   109.8000471 387.438400
   4387   4386   4389     1   109.5600471 388.275200
   4387   4386   4388     1   108.4600466 328.025600
   4388   4386   4389     1   109.5600471 388.275200
   4389   4398   4399     1   109.5600471 388.275200
   4389   4398   4400     1   109.5600471 388.275200
   4390   4389   4398     1   109.8000471 387.438400
   4390   4389   4391     1   107.5800459 329.699200
   4391   4389   4398     1   109.8000471 387.438400
   4392   4404   4405     1   109.5600471 388.275200
   4392   4404   4406     1   109.5600471 388.275200
   4393   4392   4404     1   109.8000471 387.438400
   4393   4392   4394     1   107.5800459 329.699200
   4394   4392   4404     1   109.8000471 387.438400
   4395   4401   4402     1   109.5600471 388.275200
   4395   4401   4403     1   109.5600471 388.275200
   4396   4395   4401     1   109.8000471 387.438400
   4396   4395   4397     1   107.5800459 329.699200
   4397   4395   4401     1   109.8000471 387.438400
   4399   4398   4407     1   109.7800468 425.094400
   4399   4398   4400     1   108.4600466 328.025600
   4400   4398   4407     1   109.7800468 425.094400
   4402   4401   8844     1   109.7800468 425.094400
   4402   4401   4403     1   108.4600466 328.025600
   4403   4401   8844     1   109.7800468 425.094400
   4405   4404   8873     1   109.7800468 425.094400
   4405   4404   4406     1   108.4600466 328.025600
   4406   4404   8873     1   109.7800468 425.094400
   4408   4409   4410     1   109.8800469 414.216000
   4408   4409   4411     1   109.8800469 414.216000
   4408   4412   4413     1   109.8800469 414.216000
   4408   4412   4414     1   109.8800469 414.216000
   4408   4415   4416     1   109.8800469 414.216000
   4408   4415   4417     1   109.8800469 414.216000
   4409   4421   4422     1   109.8000471 387.438400
   4409   4421   4423     1   109.8000471 387.438400
   4410   4409   4421     1   109.5600471 388.275200
   4410   4409   4411     1   108.4600466 328.025600
   4411   4409   4421     1   109.5600471 388.275200
   4412   4424   4425     1   109.8000471 387.438400
   4412   4424   4426     1   109.8000471 387.438400
   4413   4412   4424     1   109.5600471 388.275200
   4413   4412   4414     1   108.4600466 328.025600
   4414   4412   4424     1   109.5600471 388.275200
   4415   4418   4419     1   109.8000471 387.438400
   4415   4418   4420     1   109.8000471 387.438400
   4416   4415   4418     1   109.5600471 388.275200
   4416   4415   4417     1   108.4600466 328.025600
   4417   4415   4418     1   109.5600471 388.275200
   4418   4427   4428     1   109.5600471 388.275200
   4418   4427   4429     1   109.5600471 388.275200
   4419   4418   4427     1   109.8000471 387.438400
   4419   4418   4420     1   107.5800459 329.699200
   4420   4418   4427     1   109.8000471 387.438400
   4421   4433   4434     1   109.5600471 388.275200
   4421   4433   4435     1   109.5600471 388.275200
   4422   4421   4433     1   109.8000471 387.438400
   4422   4421   4423     1   107.5800459 329.699200
   4423   4421   4433     1   109.8000471 387.438400
   4424   4430   4431     1   109.5600471 388.275200
   4424   4430   4432     1   109.5600471 388.275200
   4425   4424   4430     1   109.8000471 387.438400
   4425   4424   4426     1   107.5800459 329.699200
   4426   4424   4430     1   109.8000471 387.438400
   4428   4427   4436     1   109.7800468 425.094400
   4428   4427   4429     1   108.4600466 328.025600
   4429   4427   4436     1   109.7800468 425.094400
   4431   4430   8902     1   109.7800468 425.094400
   4431   4430   4432     1   108.4600466 328.025600
   4432   4430   8902     1   109.7800468 425.094400
   4434   4433   8931     1   109.7800468 425.094400
   4434   4433   4435     1   108.4600466 328.025600
   4435   4433   8931     1   109.7800468 425.094400
   4437   4438   4439     1   109.8800469 414.216000
   4437   4438   4440     1   109.8800469 414.216000
   4437   4441   4442     1   109.8800469 414.216000
   4437   4441   4443     1   109.8800469 414.216000
   4437   4444   4445     1   109.8800469 414.216000
   4437   4444   4446     1   109.8800469 414.216000
   4438   4450   4451     1   109.8000471 387.438400
   4438   4450   4452     1   109.8000471 387.438400
   4439   4438   4450     1   109.5600471 388.275200
   4439   4438   4440     1   108.4600466 328.025600
   4440   4438   4450     1   109.5600471 388.275200
   4441   4453   4454     1   109.8000471 387.438400
   4441   4453   4455     1   109.8000471 387.438400
   4442   4441   4453     1   109.5600471 388.275200
   4442   4441   4443     1   108.4600466 328.025600
   4443   4441   4453     1   109.5600471 388.275200
   4444   4447   4448     1   109.8000471 387.438400
   4444   4447   4449     1   109.8000471 387.438400
   4445   4444   4447     1   109.5600471 388.275200
   4445   4444   4446     1   108.4600466 328.025600
   4446   4444   4447     1   109.5600471 388.275200
   4447   4456   4457     1   109.5600471 388.275200
   4447   4456   4458     1   109.5600471 388.275200
   4448   4447   4456     1   109.8000471 387.438400
   4448   4447   4449     1   107.5800459 329.699200
   4449   4447   4456     1   109.8000471 387.438400
   4450   4462   4463     1   109.5600471 388.275200
   4450   4462   4464     1   109.5600471 388.275200
   4451   4450   4462     1   109.8000471 387.438400
   4451   4450   4452     1   107.5800459 329.699200
   4452   4450   4462     1   109.8000471 387.438400
   4453   4459   4460     1   109.5600471 388.275200
   4453   4459   4461     1   109.5600471 388.275200
   4454   4453   4459     1   109.8000471 387.438400
   4454   4453   4455     1   107.5800459 329.699200
   4455   4453   4459     1   109.8000471 387.438400
   4457   4456   4465     1   109.7800468 425.094400
   4457   4456   4458     1   108.4600466 328.025600
   4458   4456   4465     1   109.7800468 425.094400
   4460   4459   8960     1   109.7800468 425.094400
   4460   4459   4461     1   108.4600466 328.025600
   4461   4459   8960     1   109.7800468 425.094400
   4463   4462   8989     1   109.7800468 425.094400
   4463   4462   4464     1   108.4600466 328.025600
   4464   4462   8989     1   109.7800468 425.094400
   4466   4467   4468     1   109.8800469 414.216000
   4466   4467   4469     1   109.8800469 414.216000
   4466   4470   4471     1   109.8800469 414.216000
   4466   4470   4472     1   109.8800469 414.216000
   4466   4473   4474     1   109.8800469 414.216000
   4466   4473   4475     1   109.8800469 414.216000
   4467   4479   4480     1   109.8000471 387.438400
   4467   4479   4481     1   109.8000471 387.438400
   4468   4467   4479     1   109.5600471 388.275200
   4468   4467   4469     1   108.4600466 328.025600
   4469   4467   4479     1   109.5600471 388.275200
   4470   4482   4483     1   109.8000471 387.438400
   4470   4482   4484     1   109.8000471 387.438400
   4471   4470   4482     1   109.5600471 388.275200
   4471   4470   4472     1   108.4600466 328.025600
   4472   4470   4482     1   109.5600471 388.275200
   4473   4476   4477     1   109.8000471 387.438400
   4473   4476   4478     1   109.8000471 387.438400
   4474   4473   4476     1   109.5600471 388.275200
   4474   4473   4475     1   108.4600466 328.025600
   4475   4473   4476     1   109.5600471 388.275200
   4476   4485   4486     1   109.5600471 388.275200
   4476   4485   4487     1   109.5600471 388.275200
   4477   4476   4485     1   109.8000471 387.438400
   4477   4476   4478     1   107.5800459 329.699200
   4478   4476   4485     1   109.8000471 387.438400
   4479   4491   4492     1   109.5600471 388.275200
   4479   4491   4493     1   109.5600471 388.275200
   4480   4479   4491     1   109.8000471 387.438400
   4480   4479   4481     1   107.5800459 329.699200
   4481   4479   4491     1   109.8000471 387.438400
   4482   4488   4489     1   109.5600471 388.275200
   4482   4488   4490     1   109.5600471 388.275200
   4483   4482   4488     1   109.8000471 387.438400
   4483   4482   4484     1   107.5800459 329.699200
   4484   4482   4488     1   109.8000471 387.438400
   4486   4485   4494     1   109.7800468 425.094400
   4486   4485   4487     1   108.4600466 328.025600
   4487   4485   4494     1   109.7800468 425.094400
   4489   4488   9018     1   109.7800468 425.094400
   4489   4488   4490     1   108.4600466 328.025600
   4490   4488   9018     1   109.7800468 425.094400
   4492   4491   9047     1   109.7800468 425.094400
   4492   4491   4493     1   108.4600466 328.025600
   4493   4491   9047     1   109.7800468 425.094400
   4495   4496   4497     1   109.8800469 414.216000
   4495   4496   4498     1   109.8800469 414.216000
   4495   4499   4500     1   109.8800469 414.216000
   4495   4499   4501     1   109.8800469 414.216000
   4495   4502   4503     1   109.8800469 414.216000
   4495   4502   4504     1   109.8800469 414.216000
   4496   4508   4509     1   109.8000471 387.438400
   4496   4508   4510     1   109.8000471 387.438400
   4497   4496   4508     1   109.5600471 388.275200
   4497   4496   4498     1   108.4600466 328.025600
   4498   4496   4508     1   109.5600471 388.275200
   4499   4511   4512     1   109.8000471 387.438400
   4499   4511   4513     1   109.8000471 387.438400
   4500   4499   4511     1   109.5600471 388.275200
   4500   4499   4501     1   108.4600466 328.025600
   4501   4499   4511     1   109.5600471 388.275200
   4502   4505   4506     1   109.8000471 387.438400
   4502   4505   4507     1   109.8000471 387.438400
   4503   4502   4505     1   109.5600471 388.275200
   4503   4502   4504     1   108.4600466 328.025600
   4504   4502   4505     1   109.5600471 388.275200
   4505   4514   4515     1   109.5600471 388.275200
   4505   4514   4516     1   109.5600471 388.275200
   4506   4505   4514     1   109.8000471 387.438400
   4506   4505   4507     1   107.5800459 329.699200
   4507   4505   4514     1   109.8000471 387.438400
   4508   4520   4521     1   109.5600471 388.275200
   4508   4520   4522     1   109.5600471 388.275200
   4509   4508   4520     1   109.8000471 387.438400
   4509   4508   4510     1   107.5800459 329.699200
   4510   4508   4520     1   109.8000471 387.438400
   4511   4517   4518     1   109.5600471 388.275200
   4511   4517   4519     1   109.5600471 388.275200
   4512   4511   4517     1   109.8000471 387.438400
   4512   4511   4513     1   107.5800459 329.699200
   4513   4511   4517     1   109.8000471 387.438400
   4515   4514   4523     1   109.7800468 425.094400
   4515   4514   4516     1   108.4600466 328.025600
   4516   4514   4523     1   109.7800468 425.094400
   4518   4517   9076     1   109.7800468 425.094400
   4518   4517   4519     1   108.4600466 328.025600
   4519   4517   9076     1   109.7800468 425.094400
   4521   4520   9105     1   109.7800468 425.094400
   4521   4520   4522     1   108.4600466 328.025600
   4522   4520   9105     1   109.7800468 425.094400
   4524   4525   4526     1   109.8800469 414.216000
   4524   4525   4527     1   109.8800469 414.216000
   4524   4528   4529     1   109.8800469 414.216000
   4524   4528   4530     1   109.8800469 414.216000
   4524   4531   4532     1   109.8800469 414.216000
   4524   4531   4533     1   109.8800469 414.216000
   4525   4537   4538     1   109.8000471 387.438400
   4525   4537   4539     1   109.8000471 387.438400
   4526   4525   4537     1   109.5600471 388.275200
   4526   4525   4527     1   108.4600466 328.025600
   4527   4525   4537     1   109.5600471 388.275200
   4528   4540   4541     1   109.8000471 387.438400
   4528   4540   4542     1   109.8000471 387.438400
   4529   4528   4540     1   109.5600471 388.275200
   4529   4528   4530     1   108.4600466 328.025600
   4530   4528   4540     1   109.5600471 388.275200
   4531   4534   4535     1   109.8000471 387.438400
   4531   4534   4536     1   109.8000471 387.438400
   4532   4531   4534     1   109.5600471 388.275200
   4532   4531   4533     1   108.4600466 328.025600
   4533   4531   4534     1   109.5600471 388.275200
   4534   4543   4544     1   109.5600471 388.275200
   4534   4543   4545     1   109.5600471 388.275200
   4535   4534   4543     1   109.8000471 387.438400
   4535   4534   4536     1   107.5800459 329.699200
   4536   4534   4543     1   109.8000471 387.438400
   4537   4549   4550     1   109.5600471 388.275200
   4537   4549   4551     1   109.5600471 388.275200
   4538   4537   4549     1   109.8000471 387.438400
   4538   4537   4539     1   107.5800459 329.699200
   4539   4537   4549     1   109.8000471 387.438400
   4540   4546   4547     1   109.5600471 388.275200
   4540   4546   4548     1   109.5600471 388.275200
   4541   4540   4546     1   109.8000471 387.438400
   4541   4540   4542     1   107.5800459 329.699200
   4542   4540   4546     1   109.8000471 387.438400
   4544   4543   4552     1   109.7800468 425.094400
   4544   4543   4545     1   108.4600466 328.025600
   4545   4543   4552     1   109.7800468 425.094400
   4547   4546   9134     1   109.7800468 425.094400
   4547   4546   4548     1   108.4600466 328.025600
   4548   4546   9134     1   109.7800468 425.094400
   4550   4549   9163     1   109.7800468 425.094400
   4550   4549   4551     1   108.4600466 328.025600
   4551   4549   9163     1   109.7800468 425.094400
   4553   4554   4555     1   109.8800469 414.216000
   4553   4554   4556     1   109.8800469 414.216000
   4553   4557   4558     1   109.8800469 414.216000
   4553   4557   4559     1   109.8800469 414.216000
   4553   4560   4561     1   109.8800469 414.216000
   4553   4560   4562     1   109.8800469 414.216000
   4554   4566   4567     1   109.8000471 387.438400
   4554   4566   4568     1   109.8000471 387.438400
   4555   4554   4566     1   109.5600471 388.275200
   4555   4554   4556     1   108.4600466 328.025600
   4556   4554   4566     1   109.5600471 388.275200
   4557   4569   4570     1   109.8000471 387.438400
   4557   4569   4571     1   109.8000471 387.438400
   4558   4557   4569     1   109.5600471 388.275200
   4558   4557   4559     1   108.4600466 328.025600
   4559   4557   4569     1   109.5600471 388.275200
   4560   4563   4564     1   109.8000471 387.438400
   4560   4563   4565     1   109.8000471 387.438400
   4561   4560   4563     1   109.5600471 388.275200
   4561   4560   4562     1   108.4600466 328.025600
   4562   4560   4563     1   109.5600471 388.275200
   4563   4572   4573     1   109.5600471 388.275200
   4563   4572   4574     1   109.5600471 388.275200
   4564   4563   4572     1   109.8000471 387.438400
   4564   4563   4565     1   107.5800459 329.699200
   4565   4563   4572     1   109.8000471 387.438400
   4566   4578   4579     1   109.5600471 388.275200
   4566   4578   4580     1   109.5600471 388.275200
   4567   4566   4578     1   109.8000471 387.438400
   4567   4566   4568     1   107.5800459 329.699200
   4568   4566   4578     1   109.8000471 387.438400
   4569   4575   4576     1   109.5600471 388.275200
   4569   4575   4577     1   109.5600471 388.275200
   4570   4569   4575     1   109.8000471 387.438400
   4570   4569   4571     1   107.5800459 329.699200
   4571   4569   4575     1   109.8000471 387.438400
   4573   4572   4581     1   109.7800468 425.094400
   4573   4572   4574     1   108.4600466 328.025600
   4574   4572   4581     1   109.7800468 425.094400
   4576   4575   9192     1   109.7800468 425.094400
   4576   4575   4577     1   108.4600466 328.025600
   4577   4575   9192     1   109.7800468 425.094400
   4579   4578   9221     1   109.7800468 425.094400
   4579   4578   4580     1   108.4600466 328.025600
   4580   4578   9221     1   109.7800468 425.094400
   4582   4583   4584     1   109.8800469 414.216000
   4582   4583   4585     1   109.8800469 414.216000
   4582   4586   4587     1   109.8800469 414.216000
   4582   4586   4588     1   109.8800469 414.216000
   4582   4589   4590     1   109.8800469 414.216000
   4582   4589   4591     1   109.8800469 414.216000
   4583   4595   4596     1   109.8000471 387.438400
   4583   4595   4597     1   109.8000471 387.438400
   4584   4583   4595     1   109.5600471 388.275200
   4584   4583   4585     1   108.4600466 328.025600
   4585   4583   4595     1   109.5600471 388.275200
   4586   4598   4599     1   109.8000471 387.438400
   4586   4598   4600     1   109.8000471 387.438400
   4587   4586   4598     1   109.5600471 388.275200
   4587   4586   4588     1   108.4600466 328.025600
   4588   4586   4598     1   109.5600471 388.275200
   4589   4592   4593     1   109.8000471 387.438400
   4589   4592   4594     1   109.8000471 387.438400
   4590   4589   4592     1   109.5600471 388.275200
   4590   4589   4591     1   108.4600466 328.025600
   4591   4589   4592     1   109.5600471 388.275200
   4592   4601   4602     1   109.5600471 388.275200
   4592   4601   4603     1   109.5600471 388.275200
   4593   4592   4601     1   109.8000471 387.438400
   4593   4592   4594     1   107.5800459 329.699200
   4594   4592   4601     1   109.8000471 387.438400
   4595   4607   4608     1   109.5600471 388.275200
   4595   4607   4609     1   109.5600471 388.275200
   4596   4595   4607     1   109.8000471 387.438400
   4596   4595   4597     1   107.5800459 329.699200
   4597   4595   4607     1   109.8000471 387.438400
   4598   4604   4605     1   109.5600471 388.275200
   4598   4604   4606     1   109.5600471 388.275200
   4599   4598   4604     1   109.8000471 387.438400
   4599   4598   4600     1   107.5800459 329.699200
   4600   4598   4604     1   109.8000471 387.438400
   4602   4601   4610     1   109.7800468 425.094400
   4602   4601   4603     1   108.4600466 328.025600
   4603   4601   4610     1   109.7800468 425.094400
   4605   4604   9250     1   109.7800468 425.094400
   4605   4604   4606     1   108.4600466 328.025600
   4606   4604   9250     1   109.7800468 425.094400
   4608   4607   9279     1   109.7800468 425.094400
   4608   4607   4609     1   108.4600466 328.025600
   4609   4607   9279     1   109.7800468 425.094400
   4611   4612   4613     1   109.8800469 414.216000
   4611   4612   4614     1   109.8800469 414.216000
   4611   4615   4616     1   109.8800469 414.216000
   4611   4615   4617     1   109.8800469 414.216000
   4611   4618   4619     1   109.8800469 414.216000
   4611   4618   4620     1   109.8800469 414.216000
   4612   4624   4625     1   109.8000471 387.438400
   4612   4624   4626     1   109.8000471 387.438400
   4613   4612   4624     1   109.5600471 388.275200
   4613   4612   4614     1   108.4600466 328.025600
   4614   4612   4624     1   109.5600471 388.275200
   4615   4627   4628     1   109.8000471 387.438400
   4615   4627   4629     1   109.8000471 387.438400
   4616   4615   4627     1   109.5600471 388.275200
   4616   4615   4617     1   108.4600466 328.025600
   4617   4615   4627     1   109.5600471 388.275200
   4618   4621   4622     1   109.8000471 387.438400
   4618   4621   4623     1   109.8000471 387.438400
   4619   4618   4621     1   109.5600471 388.275200
   4619   4618   4620     1   108.4600466 328.025600
   4620   4618   4621     1   109.5600471 388.275200
   4621   4630   4631     1   109.5600471 388.275200
   4621   4630   4632     1   109.5600471 388.275200
   4622   4621   4630     1   109.8000471 387.438400
   4622   4621   4623     1   107.5800459 329.699200
   4623   4621   4630     1   109.8000471 387.438400
   4624   4636   4637     1   109.5600471 388.275200
   4624   4636   4638     1   109.5600471 388.275200
   4625   4624   4636     1   109.8000471 387.438400
   4625   4624   4626     1   107.5800459 329.699200
   4626   4624   4636     1   109.8000471 387.438400
   4627   4633   4634     1   109.5600471 388.275200
   4627   4633   4635     1   109.5600471 388.275200
   4628   4627   4633     1   109.8000471 387.438400
   4628   4627   4629     1   107.5800459 329.699200
   4629   4627   4633     1   109.8000471 387.438400
   4631   4630   4639     1   109.7800468 425.094400
   4631   4630   4632     1   108.4600466 328.025600
   4632   4630   4639     1   109.7800468 425.094400
   4634   4633   9308     1   109.7800468 425.094400
   4634   4633   4635     1   108.4600466 328.025600
   4635   4633   9308     1   109.7800468 425.094400
   4637   4636   9337     1   109.7800468 425.094400
   4637   4636   4638     1   108.4600466 328.025600
   4638   4636   9337     1   109.7800468 425.094400
   4640   4641   4642     1   109.8800469 414.216000
   4640   4641   4643     1   109.8800469 414.216000
   4640   4644   4645     1   109.8800469 414.216000
   4640   4644   4646     1   109.8800469 414.216000
   4640   4647   4648     1   109.8800469 414.216000
   4640   4647   4649     1   109.8800469 414.216000
   4641   4653   4654     1   109.8000471 387.438400
   4641   4653   4655     1   109.8000471 387.438400
   4642   4641   4653     1   109.5600471 388.275200
   4642   4641   4643     1   108.4600466 328.025600
   4643   4641   4653     1   109.5600471 388.275200
   4644   4656   4657     1   109.8000471 387.438400
   4644   4656   4658     1   109.8000471 387.438400
   4645   4644   4656     1   109.5600471 388.275200
   4645   4644   4646     1   108.4600466 328.025600
   4646   4644   4656     1   109.5600471 388.275200
   4647   4650   4651     1   109.8000471 387.438400
   4647   4650   4652     1   109.8000471 387.438400
   4648   4647   4650     1   109.5600471 388.275200
   4648   4647   4649     1   108.4600466 328.025600
   4649   4647   4650     1   109.5600471 388.275200
   4650   4659   4660     1   109.5600471 388.275200
   4650   4659   4661     1   109.5600471 388.275200
   4651   4650   4659     1   109.8000471 387.438400
   4651   4650   4652     1   107.5800459 329.699200
   4652   4650   4659     1   109.8000471 387.438400
   4653   4665   4666     1   109.5600471 388.275200
   4653   4665   4667     1   109.5600471 388.275200
   4654   4653   4665     1   109.8000471 387.438400
   4654   4653   4655     1   107.5800459 329.699200
   4655   4653   4665     1   109.8000471 387.438400
   4656   4662   4663     1   109.5600471 388.275200
   4656   4662   4664     1   109.5600471 388.275200
   4657   4656   4662     1   109.8000471 387.438400
   4657   4656   4658     1   107.5800459 329.699200
   4658   4656   4662     1   109.8000471 387.438400
   4660   4659   4668     1   109.7800468 425.094400
   4660   4659   4661     1   108.4600466 328.025600
   4661   4659   4668     1   109.7800468 425.094400
   4663   4662   9366     1   109.7800468 425.094400
   4663   4662   4664     1   108.4600466 328.025600
   4664   4662   9366     1   109.7800468 425.094400
   4666   4665   9395     1   109.7800468 425.094400
   4666   4665   4667     1   108.4600466 328.025600
   4667   4665   9395     1   109.7800468 425.094400
   4669   4670   4671     1   109.8800469 414.216000
   4669   4670   4672     1   109.8800469 414.216000
   4669   4673   4674     1   109.8800469 414.216000
   4669   4673   4675     1   109.8800469 414.216000
   4669   4676   4677     1   109.8800469 414.216000
   4669   4676   4678     1   109.8800469 414.216000
   4670   4682   4683     1   109.8000471 387.438400
   4670   4682   4684     1   109.8000471 387.438400
   4671   4670   4682     1   109.5600471 388.275200
   4671   4670   4672     1   108.4600466 328.025600
   4672   4670   4682     1   109.5600471 388.275200
   4673   4685   4686     1   109.8000471 387.438400
   4673   4685   4687     1   109.8000471 387.438400
   4674   4673   4685     1   109.5600471 388.275200
   4674   4673   4675     1   108.4600466 328.025600
   4675   4673   4685     1   109.5600471 388.275200
   4676   4679   4680     1   109.8000471 387.438400
   4676   4679   4681     1   109.8000471 387.438400
   4677   4676   4679     1   109.5600471 388.275200
   4677   4676   4678     1   108.4600466 328.025600
   4678   4676   4679     1   109.5600471 388.275200
   4679   4688   4689     1   109.5600471 388.275200
   4679   4688   4690     1   109.5600471 388.275200
   4680   4679   4688     1   109.8000471 387.438400
   4680   4679   4681     1   107.5800459 329.699200
   4681   4679   4688     1   109.8000471 387.438400
   4682   4694   4695     1   109.5600471 388.275200
   4682   4694   4696     1   109.5600471 388.275200
   4683   4682   4694     1   109.8000471 387.438400
   4683   4682   4684     1   107.5800459 329.699200
   4684   4682   4694     1   109.8000471 387.438400
   4685   4691   4692     1   109.5600471 388.275200
   4685   4691   4693     1   109.5600471 388.275200
   4686   4685   4691     1   109.8000471 387.438400
   4686   4685   4687     1   107.5800459 329.699200
   4687   4685   4691     1   109.8000471 387.438400
   4689   4688   4697     1   109.7800468 425.094400
   4689   4688   4690     1   108.4600466 328.025600
   4690   4688   4697     1   109.7800468 425.094400
   4692   4691   9424     1   109.7800468 425.094400
   4692   4691   4693     1   108.4600466 328.025600
   4693   4691   9424     1   109.7800468 425.094400
   4695   4694   9453     1   109.7800468 425.094400
   4695   4694   4696     1   108.4600466 328.025600
   4696   4694   9453     1   109.7800468 425.094400
   4698   4699   4700     1   109.8800469 414.216000
   4698   4699   4701     1   109.8800469 414.216000
   4698   4702   4703     1   109.8800469 414.216000
   4698   4702   4704     1   109.8800469 414.216000
   4698   4705   4706     1   109.8800469 414.216000
   4698   4705   4707     1   109.8800469 414.216000
   4699   4711   4712     1   109.8000471 387.438400
   4699   4711   4713     1   109.8000471 387.438400
   4700   4699   4711     1   109.5600471 388.275200
   4700   4699   4701     1   108.4600466 328.025600
   4701   4699   4711     1   109.5600471 388.275200
   4702   4714   4715     1   109.8000471 387.438400
   4702   4714   4716     1   109.8000471 387.438400
   4703   4702   4714     1   109.5600471 388.275200
   4703   4702   4704     1   108.4600466 328.025600
   4704   4702   4714     1   109.5600471 388.275200
   4705   4708   4709     1   109.8000471 387.438400
   4705   4708   4710     1   109.8000471 387.438400
   4706   4705   4708     1   109.5600471 388.275200
   4706   4705   4707     1   108.4600466 328.025600
   4707   4705   4708     1   109.5600471 388.275200
   4708   4717   4718     1   109.5600471 388.275200
   4708   4717   4719     1   109.5600471 388.275200
   4709   4708   4717     1   109.8000471 387.438400
   4709   4708   4710     1   107.5800459 329.699200
   4710   4708   4717     1   109.8000471 387.438400
   4711   4723   4724     1   109.5600471 388.275200
   4711   4723   4725     1   109.5600471 388.275200
   4712   4711   4723     1   109.8000471 387.438400
   4712   4711   4713     1   107.5800459 329.699200
   4713   4711   4723     1   109.8000471 387.438400
   4714   4720   4721     1   109.5600471 388.275200
   4714   4720   4722     1   109.5600471 388.275200
   4715   4714   4720     1   109.8000471 387.438400
   4715   4714   4716     1   107.5800459 329.699200
   4716   4714   4720     1   109.8000471 387.438400
   4718   4717   4726     1   109.7800468 425.094400
   4718   4717   4719     1   108.4600466 328.025600
   4719   4717   4726     1   109.7800468 425.094400
   4721   4720   9482     1   109.7800468 425.094400
   4721   4720   4722     1   108.4600466 328.025600
   4722   4720   9482     1   109.7800468 425.094400
   4724   4723   9511     1   109.7800468 425.094400
   4724   4723   4725     1   108.4600466 328.025600
   4725   4723   9511     1   109.7800468 425.094400
   4727   4728   4729     1   109.8800469 414.216000
   4727   4728   4730     1   109.8800469 414.216000
   4727   4731   4732     1   109.8800469 414.216000
   4727   4731   4733     1   109.8800469 414.216000
   4727   4734   4735     1   109.8800469 414.216000
   4727   4734   4736     1   109.8800469 414.216000
   4728   4740   4741     1   109.8000471 387.438400
   4728   4740   4742     1   109.8000471 387.438400
   4729   4728   4740     1   109.5600471 388.275200
   4729   4728   4730     1   108.4600466 328.025600
   4730   4728   4740     1   109.5600471 388.275200
   4731   4743   4744     1   109.8000471 387.438400
   4731   4743   4745     1   109.8000471 387.438400
   4732   4731   4743     1   109.5600471 388.275200
   4732   4731   4733     1   108.4600466 328.025600
   4733   4731   4743     1   109.5600471 388.275200
   4734   4737   4738     1   109.8000471 387.438400
   4734   4737   4739     1   109.8000471 387.438400
   4735   4734   4737     1   109.5600471 388.275200
   4735   4734   4736     1   108.4600466 328.025600
   4736   4734   4737     1   109.5600471 388.275200
   4737   4746   4747     1   109.5600471 388.275200
   4737   4746   4748     1   109.5600471 388.275200
   4738   4737   4746     1   109.8000471 387.438400
   4738   4737   4739     1   107.5800459 329.699200
   4739   4737   4746     1   109.8000471 387.438400
   4740   4752   4753     1   109.5600471 388.275200
   4740   4752   4754     1   109.5600471 388.275200
   4741   4740   4752     1   109.8000471 387.438400
   4741   4740   4742     1   107.5800459 329.699200
   4742   4740   4752     1   109.8000471 387.438400
   4743   4749   4750     1   109.5600471 388.275200
   4743   4749   4751     1   109.5600471 388.275200
   4744   4743   4749     1   109.8000471 387.438400
   4744   4743   4745     1   107.5800459 329.699200
   4745   4743   4749     1   109.8000471 387.438400
   4747   4746   4755     1   109.7800468 425.094400
   4747   4746   4748     1   108.4600466 328.025600
   4748   4746   4755     1   109.7800468 425.094400
   4750   4749   9540     1   109.7800468 425.094400
   4750   4749   4751     1   108.4600466 328.025600
   4751   4749   9540     1   109.7800468 425.094400
   4753   4752   9569     1   109.7800468 425.094400
   4753   4752   4754     1   108.4600466 328.025600
   4754   4752   9569     1   109.7800468 425.094400
   4756   4757   4758     1   109.8800469 414.216000
   4756   4757   4759     1   109.8800469 414.216000
   4756   4760   4761     1   109.8800469 414.216000
   4756   4760   4762     1   109.8800469 414.216000
   4756   4763   4764     1   109.8800469 414.216000
   4756   4763   4765     1   109.8800469 414.216000
   4757   4769   4770     1   109.8000471 387.438400
   4757   4769   4771     1   109.8000471 387.438400
   4758   4757   4769     1   109.5600471 388.275200
   4758   4757   4759     1   108.4600466 328.025600
   4759   4757   4769     1   109.5600471 388.275200
   4760   4772   4773     1   109.8000471 387.438400
   4760   4772   4774     1   109.8000471 387.438400
   4761   4760   4772     1   109.5600471 388.275200
   4761   4760   4762     1   108.4600466 328.025600
   4762   4760   4772     1   109.5600471 388.275200
   4763   4766   4767     1   109.8000471 387.438400
   4763   4766   4768     1   109.8000471 387.438400
   4764   4763   4766     1   109.5600471 388.275200
   4764   4763   4765     1   108.4600466 328.025600
   4765   4763   4766     1   109.5600471 388.275200
   4766   4775   4776     1   109.5600471 388.275200
   4766   4775   4777     1   109.5600471 388.275200
   4767   4766   4775     1   109.8000471 387.438400
   4767   4766   4768     1   107.5800459 329.699200
   4768   4766   4775     1   109.8000471 387.438400
   4769   4781   4782     1   109.5600471 388.275200
   4769   4781   4783     1   109.5600471 388.275200
   4770   4769   4781     1   109.8000471 387.438400
   4770   4769   4771     1   107.5800459 329.699200
   4771   4769   4781     1   109.8000471 387.438400
   4772   4778   4779     1   109.5600471 388.275200
   4772   4778   4780     1   109.5600471 388.275200
   4773   4772   4778     1   109.8000471 387.438400
   4773   4772   4774     1   107.5800459 329.699200
   4774   4772   4778     1   109.8000471 387.438400
   4776   4775   4784     1   109.7800468 425.094400
   4776   4775   4777     1   108.4600466 328.025600
   4777   4775   4784     1   109.7800468 425.094400
   4779   4778   9598     1   109.7800468 425.094400
   4779   4778   4780     1   108.4600466 328.025600
   4780   4778   9598     1   109.7800468 425.094400
   4782   4781   9627     1   109.7800468 425.094400
   4782   4781   4783     1   108.4600466 328.025600
   4783   4781   9627     1   109.7800468 425.094400
   4785   4786   4787     1   109.8800469 414.216000
   4785   4786   4788     1   109.8800469 414.216000
   4785   4789   4790     1   109.8800469 414.216000
   4785   4789   4791     1   109.8800469 414.216000
   4785   4792   4793     1   109.8800469 414.216000
   4785   4792   4794     1   109.8800469 414.216000
   4786   4798   4799     1   109.8000471 387.438400
   4786   4798   4800     1   109.8000471 387.438400
   4787   4786   4798     1   109.5600471 388.275200
   4787   4786   4788     1   108.4600466 328.025600
   4788   4786   4798     1   109.5600471 388.275200
   4789   4801   4802     1   109.8000471 387.438400
   4789   4801   4803     1   109.8000471 387.438400
   4790   4789   4801     1   109.5600471 388.275200
   4790   4789   4791     1   108.4600466 328.025600
   4791   4789   4801     1   109.5600471 388.275200
   4792   4795   4796     1   109.8000471 387.438400
   4792   4795   4797     1   109.8000471 387.438400
   4793   4792   4795     1   109.5600471 388.275200
   4793   4792   4794     1   108.4600466 328.025600
   4794   4792   4795     1   109.5600471 388.275200
   4795   4804   4805     1   109.5600471 388.275200
   4795   4804   4806     1   109.5600471 388.275200
   4796   4795   4804     1   109.8000471 387.438400
   4796   4795   4797     1   107.5800459 329.699200
   4797   4795   4804     1   109.8000471 387.438400
   4798   4810   4811     1   109.5600471 388.275200
   4798   4810   4812     1   109.5600471 388.275200
   4799   4798   4810     1   109.8000471 387.438400
   4799   4798   4800     1   107.5800459 329.699200
   4800   4798   4810     1   109.8000471 387.438400
   4801   4807   4808     1   109.5600471 388.275200
   4801   4807   4809     1   109.5600471 388.275200
   4802   4801   4807     1   109.8000471 387.438400
   4802   4801   4803     1   107.5800459 329.699200
   4803   4801   4807     1   109.8000471 387.438400
   4805   4804   4813     1   109.7800468 425.094400
   4805   4804   4806     1   108.4600466 328.025600
   4806   4804   4813     1   109.7800468 425.094400
   4808   4807   9656     1   109.7800468 425.094400
   4808   4807   4809     1   108.4600466 328.025600
   4809   4807   9656     1   109.7800468 425.094400
   4811   4810   9685     1   109.7800468 425.094400
   4811   4810   4812     1   108.4600466 328.025600
   4812   4810   9685     1   109.7800468 425.094400
   4814   4815   4816     1   109.8800469 414.216000
   4814   4815   4817     1   109.8800469 414.216000
   4814   4818   4819     1   109.8800469 414.216000
   4814   4818   4820     1   109.8800469 414.216000
   4814   4821   4822     1   109.8800469 414.216000
   4814   4821   4823     1   109.8800469 414.216000
   4815   4827   4828     1   109.8000471 387.438400
   4815   4827   4829     1   109.8000471 387.438400
   4816   4815   4827     1   109.5600471 388.275200
   4816   4815   4817     1   108.4600466 328.025600
   4817   4815   4827     1   109.5600471 388.275200
   4818   4830   4831     1   109.8000471 387.438400
   4818   4830   4832     1   109.8000471 387.438400
   4819   4818   4830     1   109.5600471 388.275200
   4819   4818   4820     1   108.4600466 328.025600
   4820   4818   4830     1   109.5600471 388.275200
   4821   4824   4825     1   109.8000471 387.438400
   4821   4824   4826     1   109.8000471 387.438400
   4822   4821   4824     1   109.5600471 388.275200
   4822   4821   4823     1   108.4600466 328.025600
   4823   4821   4824     1   109.5600471 388.275200
   4824   4833   4834     1   109.5600471 388.275200
   4824   4833   4835     1   109.5600471 388.275200
   4825   4824   4833     1   109.8000471 387.438400
   4825   4824   4826     1   107.5800459 329.699200
   4826   4824   4833     1   109.8000471 387.438400
   4827   4839   4840     1   109.5600471 388.275200
   4827   4839   4841     1   109.5600471 388.275200
   4828   4827   4839     1   109.8000471 387.438400
   4828   4827   4829     1   107.5800459 329.699200
   4829   4827   4839     1   109.8000471 387.438400
   4830   4836   4837     1   109.5600471 388.275200
   4830   4836   4838     1   109.5600471 388.275200
   4831   4830   4836     1   109.8000471 387.438400
   4831   4830   4832     1   107.5800459 329.699200
   4832   4830   4836     1   109.8000471 387.438400
   4834   4833   4842     1   109.7800468 425.094400
   4834   4833   4835     1   108.4600466 328.025600
   4835   4833   4842     1   109.7800468 425.094400
   4837   4836   9714     1   109.7800468 425.094400
   4837   4836   4838     1   108.4600466 328.025600
   4838   4836   9714     1   109.7800468 425.094400
   4840   4839   9743     1   109.7800468 425.094400
   4840   4839   4841     1   108.4600466 328.025600
   4841   4839   9743     1   109.7800468 425.094400
   4843   4844   4845     1   109.8800469 414.216000
   4843   4844   4846     1   109.8800469 414.216000
   4843   4847   4848     1   109.8800469 414.216000
   4843   4847   4849     1   109.8800469 414.216000
   4843   4850   4851     1   109.8800469 414.216000
   4843   4850   4852     1   109.8800469 414.216000
   4844   4856   4857     1   109.8000471 387.438400
   4844   4856   4858     1   109.8000471 387.438400
   4845   4844   4856     1   109.5600471 388.275200
   4845   4844   4846     1   108.4600466 328.025600
   4846   4844   4856     1   109.5600471 388.275200
   4847   4859   4860     1   109.8000471 387.438400
   4847   4859   4861     1   109.8000471 387.438400
   4848   4847   4859     1   109.5600471 388.275200
   4848   4847   4849     1   108.4600466 328.025600
   4849   4847   4859     1   109.5600471 388.275200
   4850   4853   4854     1   109.8000471 387.438400
   4850   4853   4855     1   109.8000471 387.438400
   4851   4850   4853     1   109.5600471 388.275200
   4851   4850   4852     1   108.4600466 328.025600
   4852   4850   4853     1   109.5600471 388.275200
   4853   4862   4863     1   109.5600471 388.275200
   4853   4862   4864     1   109.5600471 388.275200
   4854   4853   4862     1   109.8000471 387.438400
   4854   4853   4855     1   107.5800459 329.699200
   4855   4853   4862     1   109.8000471 387.438400
   4856   4868   4869     1   109.5600471 388.275200
   4856   4868   4870     1   109.5600471 388.275200
   4857   4856   4868     1   109.8000471 387.438400
   4857   4856   4858     1   107.5800459 329.699200
   4858   4856   4868     1   109.8000471 387.438400
   4859   4865   4866     1   109.5600471 388.275200
   4859   4865   4867     1   109.5600471 388.275200
   4860   4859   4865     1   109.8000471 387.438400
   4860   4859   4861     1   107.5800459 329.699200
   4861   4859   4865     1   109.8000471 387.438400
   4863   4862   4871     1   109.7800468 425.094400
   4863   4862   4864     1   108.4600466 328.025600
   4864   4862   4871     1   109.7800468 425.094400
   4866   4865   9772     1   109.7800468 425.094400
   4866   4865   4867     1   108.4600466 328.025600
   4867   4865   9772     1   109.7800468 425.094400
   4869   4868   9801     1   109.7800468 425.094400
   4869   4868   4870     1   108.4600466 328.025600
   4870   4868   9801     1   109.7800468 425.094400
   4872   4873   4874     1   109.8800469 414.216000
   4872   4873   4875     1   109.8800469 414.216000
   4872   4876   4877     1   109.8800469 414.216000
   4872   4876   4878     1   109.8800469 414.216000
   4872   4879   4880     1   109.8800469 414.216000
   4872   4879   4881     1   109.8800469 414.216000
   4873   4885   4886     1   109.8000471 387.438400
   4873   4885   4887     1   109.8000471 387.438400
   4874   4873   4885     1   109.5600471 388.275200
   4874   4873   4875     1   108.4600466 328.025600
   4875   4873   4885     1   109.5600471 388.275200
   4876   4888   4889     1   109.8000471 387.438400
   4876   4888   4890     1   109.8000471 387.438400
   4877   4876   4888     1   109.5600471 388.275200
   4877   4876   4878     1   108.4600466 328.025600
   4878   4876   4888     1   109.5600471 388.275200
   4879   4882   4883     1   109.8000471 387.438400
   4879   4882   4884     1   109.8000471 387.438400
   4880   4879   4882     1   109.5600471 388.275200
   4880   4879   4881     1   108.4600466 328.025600
   4881   4879   4882     1   109.5600471 388.275200
   4882   4891   4892     1   109.5600471 388.275200
   4882   4891   4893     1   109.5600471 388.275200
   4883   4882   4891     1   109.8000471 387.438400
   4883   4882   4884     1   107.5800459 329.699200
   4884   4882   4891     1   109.8000471 387.438400
   4885   4897   4898     1   109.5600471 388.275200
   4885   4897   4899     1   109.5600471 388.275200
   4886   4885   4897     1   109.8000471 387.438400
   4886   4885   4887     1   107.5800459 329.699200
   4887   4885   4897     1   109.8000471 387.438400
   4888   4894   4895     1   109.5600471 388.275200
   4888   4894   4896     1   109.5600471 388.275200
   4889   4888   4894     1   109.8000471 387.438400
   4889   4888   4890     1   107.5800459 329.699200
   4890   4888   4894     1   109.8000471 387.438400
   4892   4891   4900     1   109.7800468 425.094400
   4892   4891   4893     1   108.4600466 328.025600
   4893   4891   4900     1   109.7800468 425.094400
   4895   4894   9830     1   109.7800468 425.094400
   4895   4894   4896     1   108.4600466 328.025600
   4896   4894   9830     1   109.7800468 425.094400
   4898   4897   9859     1   109.7800468 425.094400
   4898   4897   4899     1   108.4600466 328.025600
   4899   4897   9859     1   109.7800468 425.094400
   4901   4902   4903     1   109.8800469 414.216000
   4901   4902   4904     1   109.8800469 414.216000
   4901   4905   4906     1   109.8800469 414.216000
   4901   4905   4907     1   109.8800469 414.216000
   4901   4908   4909     1   109.8800469 414.216000
   4901   4908   4910     1   109.8800469 414.216000
   4902   4914   4915     1   109.8000471 387.438400
   4902   4914   4916     1   109.8000471 387.438400
   4903   4902   4914     1   109.5600471 388.275200
   4903   4902   4904     1   108.4600466 328.025600
   4904   4902   4914     1   109.5600471 388.275200
   4905   4917   4918     1   109.8000471 387.438400
   4905   4917   4919     1   109.8000471 387.438400
   4906   4905   4917     1   109.5600471 388.275200
   4906   4905   4907     1   108.4600466 328.025600
   4907   4905   4917     1   109.5600471 388.275200
   4908   4911   4912     1   109.8000471 387.438400
   4908   4911   4913     1   109.8000471 387.438400
   4909   4908   4911     1   109.5600471 388.275200
   4909   4908   4910     1   108.4600466 328.025600
   4910   4908   4911     1   109.5600471 388.275200
   4911   4920   4921     1   109.5600471 388.275200
   4911   4920   4922     1   109.5600471 388.275200
   4912   4911   4920     1   109.8000471 387.438400
   4912   4911   4913     1   107.5800459 329.699200
   4913   4911   4920     1   109.8000471 387.438400
   4914   4926   4927     1   109.5600471 388.275200
   4914   4926   4928     1   109.5600471 388.275200
   4915   4914   4926     1   109.8000471 387.438400
   4915   4914   4916     1   107.5800459 329.699200
   4916   4914   4926     1   109.8000471 387.438400
   4917   4923   4924     1   109.5600471 388.275200
   4917   4923   4925     1   109.5600471 388.275200
   4918   4917   4923     1   109.8000471 387.438400
   4918   4917   4919     1   107.5800459 329.699200
   4919   4917   4923     1   109.8000471 387.438400
   4921   4920   4929     1   109.7800468 425.094400
   4921   4920   4922     1   108.4600466 328.025600
   4922   4920   4929     1   109.7800468 425.094400
   4924   4923   9888     1   109.7800468 425.094400
   4924   4923   4925     1   108.4600466 328.025600
   4925   4923   9888     1   109.7800468 425.094400
   4927   4926   9917     1   109.7800468 425.094400
   4927   4926   4928     1   108.4600466 328.025600
   4928   4926   9917     1   109.7800468 425.094400
   4930   4931   4932     1   109.8800469 414.216000
   4930   4931   4933     1   109.8800469 414.216000
   4930   4934   4935     1   109.8800469 414.216000
   4930   4934   4936     1   109.8800469 414.216000
   4930   4937   4938     1   109.8800469 414.216000
   4930   4937   4939     1   109.8800469 414.216000
   4931   4943   4944     1   109.8000471 387.438400
   4931   4943   4945     1   109.8000471 387.438400
   4932   4931   4943     1   109.5600471 388.275200
   4932   4931   4933     1   108.4600466 328.025600
   4933   4931   4943     1   109.5600471 388.275200
   4934   4946   4947     1   109.8000471 387.438400
   4934   4946   4948     1   109.8000471 387.438400
   4935   4934   4946     1   109.5600471 388.275200
   4935   4934   4936     1   108.4600466 328.025600
   4936   4934   4946     1   109.5600471 388.275200
   4937   4940   4941     1   109.8000471 387.438400
   4937   4940   4942     1   109.8000471 387.438400
   4938   4937   4940     1   109.5600471 388.275200
   4938   4937   4939     1   108.4600466 328.025600
   4939   4937   4940     1   109.5600471 388.275200
   4940   4949   4950     1   109.5600471 388.275200
   4940   4949   4951     1   109.5600471 388.275200
   4941   4940   4949     1   109.8000471 387.438400
   4941   4940   4942     1   107.5800459 329.699200
   4942   4940   4949     1   109.8000471 387.438400
   4943   4955   4956     1   109.5600471 388.275200
   4943   4955   4957     1   109.5600471 388.275200
   4944   4943   4955     1   109.8000471 387.438400
   4944   4943   4945     1   107.5800459 329.699200
   4945   4943   4955     1   109.8000471 387.438400
   4946   4952   4953     1   109.5600471 388.275200
   4946   4952   4954     1   109.5600471 388.275200
   4947   4946   4952     1   109.8000471 387.438400
   4947   4946   4948     1   107.5800459 329.699200
   4948   4946   4952     1   109.8000471 387.438400
   4950   4949   4958     1   109.7800468 425.094400
   4950   4949   4951     1   108.4600466 328.025600
   4951   4949   4958     1   109.7800468 425.094400
   4953   4952   9946     1   109.7800468 425.094400
   4953   4952   4954     1   108.4600466 328.025600
   4954   4952   9946     1   109.7800468 425.094400
   4956   4955   9975     1   109.7800468 425.094400
   4956   4955   4957     1   108.4600466 328.025600
   4957   4955   9975     1   109.7800468 425.094400
   4959   4960   4961     1   109.8800469 414.216000
   4959   4960   4962     1   109.8800469 414.216000
   4959   4963   4964     1   109.8800469 414.216000
   4959   4963   4965     1   109.8800469 414.216000
   4959   4966   4967     1   109.8800469 414.216000
   4959   4966   4968     1   109.8800469 414.216000
   4960   4972   4973     1   109.8000471 387.438400
   4960   4972   4974     1   109.8000471 387.438400
   4961   4960   4972     1   109.5600471 388.275200
   4961   4960   4962     1   108.4600466 328.025600
   4962   4960   4972     1   109.5600471 388.275200
   4963   4975   4976     1   109.8000471 387.438400
   4963   4975   4977     1   109.8000471 387.438400
   4964   4963   4975     1   109.5600471 388.275200
   4964   4963   4965     1   108.4600466 328.025600
   4965   4963   4975     1   109.5600471 388.275200
   4966   4969   4970     1   109.8000471 387.438400
   4966   4969   4971     1   109.8000471 387.438400
   4967   4966   4969     1   109.5600471 388.275200
   4967   4966   4968     1   108.4600466 328.025600
   4968   4966   4969     1   109.5600471 388.275200
   4969   4978   4979     1   109.5600471 388.275200
   4969   4978   4980     1   109.5600471 388.275200
   4970   4969   4978     1   109.8000471 387.438400
   4970   4969   4971     1   107.5800459 329.699200
   4971   4969   4978     1   109.8000471 387.438400
   4972   4984   4985     1   109.5600471 388.275200
   4972   4984   4986     1   109.5600471 388.275200
   4973   4972   4984     1   109.8000471 387.438400
   4973   4972   4974     1   107.5800459 329.699200
   4974   4972   4984     1   109.8000471 387.438400
   4975   4981   4982     1   109.5600471 388.275200
   4975   4981   4983     1   109.5600471 388.275200
   4976   4975   4981     1   109.8000471 387.438400
   4976   4975   4977     1   107.5800459 329.699200
   4977   4975   4981     1   109.8000471 387.438400
   4979   4978   4987     1   109.7800468 425.094400
   4979   4978   4980     1   108.4600466 328.025600
   4980   4978   4987     1   109.7800468 425.094400
   4982   4981  10004     1   109.7800468 425.094400
   4982   4981   4983     1   108.4600466 328.025600
   4983   4981  10004     1   109.7800468 425.094400
   4985   4984  10033     1   109.7800468 425.094400
   4985   4984   4986     1   108.4600466 328.025600
   4986   4984  10033     1   109.7800468 425.094400
   4988   4989   4990     1   109.8800469 414.216000
   4988   4989   4991     1   109.8800469 414.216000
   4988   4992   4993     1   109.8800469 414.216000
   4988   4992   4994     1   109.8800469 414.216000
   4988   4995   4996     1   109.8800469 414.216000
   4988   4995   4997     1   109.8800469 414.216000
   4989   5001   5002     1   109.8000471 387.438400
   4989   5001   5003     1   109.8000471 387.438400
   4990   4989   5001     1   109.5600471 388.275200
   4990   4989   4991     1   108.4600466 328.025600
   4991   4989   5001     1   109.5600471 388.275200
   4992   5004   5005     1   109.8000471 387.438400
   4992   5004   5006     1   109.8000471 387.438400
   4993   4992   5004     1   109.5600471 388.275200
   4993   4992   4994     1   108.4600466 328.025600
   4994   4992   5004     1   109.5600471 388.275200
   4995   4998   4999     1   109.8000471 387.438400
   4995   4998   5000     1   109.8000471 387.438400
   4996   4995   4998     1   109.5600471 388.275200
   4996   4995   4997     1   108.4600466 328.025600
   4997   4995   4998     1   109.5600471 388.275200
   4998   5007   5008     1   109.5600471 388.275200
   4998   5007   5009     1   109.5600471 388.275200
   4999   4998   5007     1   109.8000471 387.438400
   4999   4998   5000     1   107.5800459 329.699200
   5000   4998   5007     1   109.8000471 387.438400
   5001   5013   5014     1   109.5600471 388.275200
   5001   5013   5015     1   109.5600471 388.275200
   5002   5001   5013     1   109.8000471 387.438400
   5002   5001   5003     1   107.5800459 329.699200
   5003   5001   5013     1   109.8000471 387.438400
   5004   5010   5011     1   109.5600471 388.275200
   5004   5010   5012     1   109.5600471 388.275200
   5005   5004   5010     1   109.8000471 387.438400
   5005   5004   5006     1   107.5800459 329.699200
   5006   5004   5010     1   109.8000471 387.438400
   5008   5007   5016     1   109.7800468 425.094400
   5008   5007   5009     1   108.4600466 328.025600
   5009   5007   5016     1   109.7800468 425.094400
   5011   5010  10062     1   109.7800468 425.094400
   5011   5010   5012     1   108.4600466 328.025600
   5012   5010  10062     1   109.7800468 425.094400
   5014   5013  10091     1   109.7800468 425.094400
   5014   5013   5015     1   108.4600466 328.025600
   5015   5013  10091     1   109.7800468 425.094400
   5017   5018   5019     1   109.8800469 414.216000
   5017   5018   5020     1   109.8800469 414.216000
   5017   5021   5022     1   109.8800469 414.216000
   5017   5021   5023     1   109.8800469 414.216000
   5017   5024   5025     1   109.8800469 414.216000
   5017   5024   5026     1   109.8800469 414.216000
   5018   5030   5031     1   109.8000471 387.438400
   5018   5030   5032     1   109.8000471 387.438400
   5019   5018   5030     1   109.5600471 388.275200
   5019   5018   5020     1   108.4600466 328.025600
   5020   5018   5030     1   109.5600471 388.275200
   5021   5033   5034     1   109.8000471 387.438400
   5021   5033   5035     1   109.8000471 387.438400
   5022   5021   5033     1   109.5600471 388.275200
   5022   5021   5023     1   108.4600466 328.025600
   5023   5021   5033     1   109.5600471 388.275200
   5024   5027   5028     1   109.8000471 387.438400
   5024   5027   5029     1   109.8000471 387.438400
   5025   5024   5027     1   109.5600471 388.275200
   5025   5024   5026     1   108.4600466 328.025600
   5026   5024   5027     1   109.5600471 388.275200
   5027   5036   5037     1   109.5600471 388.275200
   5027   5036   5038     1   109.5600471 388.275200
   5028   5027   5036     1   109.8000471 387.438400
   5028   5027   5029     1   107.5800459 329.699200
   5029   5027   5036     1   109.8000471 387.438400
   5030   5042   5043     1   109.5600471 388.275200
   5030   5042   5044     1   109.5600471 388.275200
   5031   5030   5042     1   109.8000471 387.438400
   5031   5030   5032     1   107.5800459 329.699200
   5032   5030   5042     1   109.8000471 387.438400
   5033   5039   5040     1   109.5600471 388.275200
   5033   5039   5041     1   109.5600471 388.275200
   5034   5033   5039     1   109.8000471 387.438400
   5034   5033   5035     1   107.5800459 329.699200
   5035   5033   5039     1   109.8000471 387.438400
   5037   5036   5045     1   109.7800468 425.094400
   5037   5036   5038     1   108.4600466 328.025600
   5038   5036   5045     1   109.7800468 425.094400
   5040   5039  10120     1   109.7800468 425.094400
   5040   5039   5041     1   108.4600466 328.025600
   5041   5039  10120     1   109.7800468 425.094400
   5043   5042  10149     1   109.7800468 425.094400
   5043   5042   5044     1   108.4600466 328.025600
   5044   5042  10149     1   109.7800468 425.094400
   5046   5047   5048     1   109.8800469 414.216000
   5046   5047   5049     1   109.8800469 414.216000
   5046   5050   5051     1   109.8800469 414.216000
   5046   5050   5052     1   109.8800469 414.216000
   5046   5053   5054     1   109.8800469 414.216000
   5046   5053   5055     1   109.8800469 414.216000
   5047   5059   5060     1   109.8000471 387.438400
   5047   5059   5061     1   109.8000471 387.438400
   5048   5047   5059     1   109.5600471 388.275200
   5048   5047   5049     1   108.4600466 328.025600
   5049   5047   5059     1   109.5600471 388.275200
   5050   5062   5063     1   109.8000471 387.438400
   5050   5062   5064     1   109.8000471 387.438400
   5051   5050   5062     1   109.5600471 388.275200
   5051   5050   5052     1   108.4600466 328.025600
   5052   5050   5062     1   109.5600471 388.275200
   5053   5056   5057     1   109.8000471 387.438400
   5053   5056   5058     1   109.8000471 387.438400
   5054   5053   5056     1   109.5600471 388.275200
   5054   5053   5055     1   108.4600466 328.025600
   5055   5053   5056     1   109.5600471 388.275200
   5056   5065   5066     1   109.5600471 388.275200
   5056   5065   5067     1   109.5600471 388.275200
   5057   5056   5065     1   109.8000471 387.438400
   5057   5056   5058     1   107.5800459 329.699200
   5058   5056   5065     1   109.8000471 387.438400
   5059   5071   5072     1   109.5600471 388.275200
   5059   5071   5073     1   109.5600471 388.275200
   5060   5059   5071     1   109.8000471 387.438400
   5060   5059   5061     1   107.5800459 329.699200
   5061   5059   5071     1   109.8000471 387.438400
   5062   5068   5069     1   109.5600471 388.275200
   5062   5068   5070     1   109.5600471 388.275200
   5063   5062   5068     1   109.8000471 387.438400
   5063   5062   5064     1   107.5800459 329.699200
   5064   5062   5068     1   109.8000471 387.438400
   5066   5065   5074     1   109.7800468 425.094400
   5066   5065   5067     1   108.4600466 328.025600
   5067   5065   5074     1   109.7800468 425.094400
   5069   5068  10178     1   109.7800468 425.094400
   5069   5068   5070     1   108.4600466 328.025600
   5070   5068  10178     1   109.7800468 425.094400
   5072   5071  10207     1   109.7800468 425.094400
   5072   5071   5073     1   108.4600466 328.025600
   5073   5071  10207     1   109.7800468 425.094400
   5075   5076   5077     1   109.8800469 414.216000
   5075   5076   5078     1   109.8800469 414.216000
   5075   5079   5080     1   109.8800469 414.216000
   5075   5079   5081     1   109.8800469 414.216000
   5075   5082   5083     1   109.8800469 414.216000
   5075   5082   5084     1   109.8800469 414.216000
   5076   5088   5089     1   109.8000471 387.438400
   5076   5088   5090     1   109.8000471 387.438400
   5077   5076   5088     1   109.5600471 388.275200
   5077   5076   5078     1   108.4600466 328.025600
   5078   5076   5088     1   109.5600471 388.275200
   5079   5091   5092     1   109.8000471 387.438400
   5079   5091   5093     1   109.8000471 387.438400
   5080   5079   5091     1   109.5600471 388.275200
   5080   5079   5081     1   108.4600466 328.025600
   5081   5079   5091     1   109.5600471 388.275200
   5082   5085   5086     1   109.8000471 387.438400
   5082   5085   5087     1   109.8000471 387.438400
   5083   5082   5085     1   109.5600471 388.275200
   5083   5082   5084     1   108.4600466 328.025600
   5084   5082   5085     1   109.5600471 388.275200
   5085   5094   5095     1   109.5600471 388.275200
   5085   5094   5096     1   109.5600471 388.275200
   5086   5085   5094     1   109.8000471 387.438400
   5086   5085   5087     1   107.5800459 329.699200
   5087   5085   5094     1   109.8000471 387.438400
   5088   5100   5101     1   109.5600471 388.275200
   5088   5100   5102     1   109.5600471 388.275200
   5089   5088   5100     1   109.8000471 387.438400
   5089   5088   5090     1   107.5800459 329.699200
   5090   5088   5100     1   109.8000471 387.438400
   5091   5097   5098     1   109.5600471 388.275200
   5091   5097   5099     1   109.5600471 388.275200
   5092   5091   5097     1   109.8000471 387.438400
   5092   5091   5093     1   107.5800459 329.699200
   5093   5091   5097     1   109.8000471 387.438400
   5095   5094   5103     1   109.7800468 425.094400
   5095   5094   5096     1   108.4600466 328.025600
   5096   5094   5103     1   109.7800468 425.094400
   5098   5097  10236     1   109.7800468 425.094400
   5098   5097   5099     1   108.4600466 328.025600
   5099   5097  10236     1   109.7800468 425.094400
   5101   5100  10265     1   109.7800468 425.094400
   5101   5100   5102     1   108.4600466 328.025600
   5102   5100  10265     1   109.7800468 425.094400
   5104   5105   5106     1   109.8800469 414.216000
   5104   5105   5107     1   109.8800469 414.216000
   5104   5108   5109     1   109.8800469 414.216000
   5104   5108   5110     1   109.8800469 414.216000
   5104   5111   5112     1   109.8800469 414.216000
   5104   5111   5113     1   109.8800469 414.216000
   5105   5117   5118     1   109.8000471 387.438400
   5105   5117   5119     1   109.8000471 387.438400
   5106   5105   5117     1   109.5600471 388.275200
   5106   5105   5107     1   108.4600466 328.025600
   5107   5105   5117     1   109.5600471 388.275200
   5108   5120   5121     1   109.8000471 387.438400
   5108   5120   5122     1   109.8000471 387.438400
   5109   5108   5120     1   109.5600471 388.275200
   5109   5108   5110     1   108.4600466 328.025600
   5110   5108   5120     1   109.5600471 388.275200
   5111   5114   5115     1   109.8000471 387.438400
   5111   5114   5116     1   109.8000471 387.438400
   5112   5111   5114     1   109.5600471 388.275200
   5112   5111   5113     1   108.4600466 328.025600
   5113   5111   5114     1   109.5600471 388.275200
   5114   5123   5124     1   109.5600471 388.275200
   5114   5123   5125     1   109.5600471 388.275200
   5115   5114   5123     1   109.8000471 387.438400
   5115   5114   5116     1   107.5800459 329.699200
   5116   5114   5123     1   109.8000471 387.438400
   5117   5129   5130     1   109.5600471 388.275200
   5117   5129   5131     1   109.5600471 388.275200
   5118   5117   5129     1   109.8000471 387.438400
   5118   5117   5119     1   107.5800459 329.699200
   5119   5117   5129     1   109.8000471 387.438400
   5120   5126   5127     1   109.5600471 388.275200
   5120   5126   5128     1   109.5600471 388.275200
   5121   5120   5126     1   109.8000471 387.438400
   5121   5120   5122     1   107.5800459 329.699200
   5122   5120   5126     1   109.8000471 387.438400
   5124   5123   5132     1   109.7800468 425.094400
   5124   5123   5125     1   108.4600466 328.025600
   5125   5123   5132     1   109.7800468 425.094400
   5127   5126  10294     1   109.7800468 425.094400
   5127   5126   5128     1   108.4600466 328.025600
   5128   5126  10294     1   109.7800468 425.094400
   5130   5129  10323     1   109.7800468 425.094400
   5130   5129   5131     1   108.4600466 328.025600
   5131   5129  10323     1   109.7800468 425.094400
   5133   5134   5135     1   109.8800469 414.216000
   5133   5134   5136     1   109.8800469 414.216000
   5133   5137   5138     1   109.8800469 414.216000
   5133   5137   5139     1   109.8800469 414.216000
   5133   5140   5141     1   109.8800469 414.216000
   5133   5140   5142     1   109.8800469 414.216000
   5134   5146   5147     1   109.8000471 387.438400
   5134   5146   5148     1   109.8000471 387.438400
   5135   5134   5146     1   109.5600471 388.275200
   5135   5134   5136     1   108.4600466 328.025600
   5136   5134   5146     1   109.5600471 388.275200
   5137   5149   5150     1   109.8000471 387.438400
   5137   5149   5151     1   109.8000471 387.438400
   5138   5137   5149     1   109.5600471 388.275200
   5138   5137   5139     1   108.4600466 328.025600
   5139   5137   5149     1   109.5600471 388.275200
   5140   5143   5144     1   109.8000471 387.438400
   5140   5143   5145     1   109.8000471 387.438400
   5141   5140   5143     1   109.5600471 388.275200
   5141   5140   5142     1   108.4600466 328.025600
   5142   5140   5143     1   109.5600471 388.275200
   5143   5152   5153     1   109.5600471 388.275200
   5143   5152   5154     1   109.5600471 388.275200
   5144   5143   5152     1   109.8000471 387.438400
   5144   5143   5145     1   107.5800459 329.699200
   5145   5143   5152     1   109.8000471 387.438400
   5146   5158   5159     1   109.5600471 388.275200
   5146   5158   5160     1   109.5600471 388.275200
   5147   5146   5158     1   109.8000471 387.438400
   5147   5146   5148     1   107.5800459 329.699200
   5148   5146   5158     1   109.8000471 387.438400
   5149   5155   5156     1   109.5600471 388.275200
   5149   5155   5157     1   109.5600471 388.275200
   5150   5149   5155     1   109.8000471 387.438400
   5150   5149   5151     1   107.5800459 329.699200
   5151   5149   5155     1   109.8000471 387.438400
   5153   5152   5161     1   109.7800468 425.094400
   5153   5152   5154     1   108.4600466 328.025600
   5154   5152   5161     1   109.7800468 425.094400
   5156   5155  10352     1   109.7800468 425.094400
   5156   5155   5157     1   108.4600466 328.025600
   5157   5155  10352     1   109.7800468 425.094400
   5159   5158  10381     1   109.7800468 425.094400
   5159   5158   5160     1   108.4600466 328.025600
   5160   5158  10381     1   109.7800468 425.094400
   5162   5163   5164     1   109.8800469 414.216000
   5162   5163   5165     1   109.8800469 414.216000
   5162   5166   5167     1   109.8800469 414.216000
   5162   5166   5168     1   109.8800469 414.216000
   5162   5169   5170     1   109.8800469 414.216000
   5162   5169   5171     1   109.8800469 414.216000
   5163   5175   5176     1   109.8000471 387.438400
   5163   5175   5177     1   109.8000471 387.438400
   5164   5163   5175     1   109.5600471 388.275200
   5164   5163   5165     1   108.4600466 328.025600
   5165   5163   5175     1   109.5600471 388.275200
   5166   5178   5179     1   109.8000471 387.438400
   5166   5178   5180     1   109.8000471 387.438400
   5167   5166   5178     1   109.5600471 388.275200
   5167   5166   5168     1   108.4600466 328.025600
   5168   5166   5178     1   109.5600471 388.275200
   5169   5172   5173     1   109.8000471 387.438400
   5169   5172   5174     1   109.8000471 387.438400
   5170   5169   5172     1   109.5600471 388.275200
   5170   5169   5171     1   108.4600466 328.025600
   5171   5169   5172     1   109.5600471 388.275200
   5172   5181   5182     1   109.5600471 388.275200
   5172   5181   5183     1   109.5600471 388.275200
   5173   5172   5181     1   109.8000471 387.438400
   5173   5172   5174     1   107.5800459 329.699200
   5174   5172   5181     1   109.8000471 387.438400
   5175   5187   5188     1   109.5600471 388.275200
   5175   5187   5189     1   109.5600471 388.275200
   5176   5175   5187     1   109.8000471 387.438400
   5176   5175   5177     1   107.5800459 329.699200
   5177   5175   5187     1   109.8000471 387.438400
   5178   5184   5185     1   109.5600471 388.275200
   5178   5184   5186     1   109.5600471 388.275200
   5179   5178   5184     1   109.8000471 387.438400
   5179   5178   5180     1   107.5800459 329.699200
   5180   5178   5184     1   109.8000471 387.438400
   5182   5181   5190     1   109.7800468 425.094400
   5182   5181   5183     1   108.4600466 328.025600
   5183   5181   5190     1   109.7800468 425.094400
   5185   5184  10410     1   109.7800468 425.094400
   5185   5184   5186     1   108.4600466 328.025600
   5186   5184  10410     1   109.7800468 425.094400
   5188   5187  10439     1   109.7800468 425.094400
   5188   5187   5189     1   108.4600466 328.025600
   5189   5187  10439     1   109.7800468 425.094400
   5191   5192   5193     1   109.8800469 414.216000
   5191   5192   5194     1   109.8800469 414.216000
   5191   5195   5196     1   109.8800469 414.216000
   5191   5195   5197     1   109.8800469 414.216000
   5191   5198   5199     1   109.8800469 414.216000
   5191   5198   5200     1   109.8800469 414.216000
   5192   5204   5205     1   109.8000471 387.438400
   5192   5204   5206     1   109.8000471 387.438400
   5193   5192   5204     1   109.5600471 388.275200
   5193   5192   5194     1   108.4600466 328.025600
   5194   5192   5204     1   109.5600471 388.275200
   5195   5207   5208     1   109.8000471 387.438400
   5195   5207   5209     1   109.8000471 387.438400
   5196   5195   5207     1   109.5600471 388.275200
   5196   5195   5197     1   108.4600466 328.025600
   5197   5195   5207     1   109.5600471 388.275200
   5198   5201   5202     1   109.8000471 387.438400
   5198   5201   5203     1   109.8000471 387.438400
   5199   5198   5201     1   109.5600471 388.275200
   5199   5198   5200     1   108.4600466 328.025600
   5200   5198   5201     1   109.5600471 388.275200
   5201   5210   5211     1   109.5600471 388.275200
   5201   5210   5212     1   109.5600471 388.275200
   5202   5201   5210     1   109.8000471 387.438400
   5202   5201   5203     1   107.5800459 329.699200
   5203   5201   5210     1   109.8000471 387.438400
   5204   5216   5217     1   109.5600471 388.275200
   5204   5216   5218     1   109.5600471 388.275200
   5205   5204   5216     1   109.8000471 387.438400
   5205   5204   5206     1   107.5800459 329.699200
   5206   5204   5216     1   109.8000471 387.438400
   5207   5213   5214     1   109.5600471 388.275200
   5207   5213   5215     1   109.5600471 388.275200
   5208   5207   5213     1   109.8000471 387.438400
   5208   5207   5209     1   107.5800459 329.699200
   5209   5207   5213     1   109.8000471 387.438400
   5211   5210   5219     1   109.7800468 425.094400
   5211   5210   5212     1   108.4600466 328.025600
   5212   5210   5219     1   109.7800468 425.094400
   5214   5213  10468     1   109.7800468 425.094400
   5214   5213   5215     1   108.4600466 328.025600
   5215   5213  10468     1   109.7800468 425.094400
   5217   5216  10497     1   109.7800468 425.094400
   5217   5216   5218     1   108.4600466 328.025600
   5218   5216  10497     1   109.7800468 425.094400
   5220   5221   5222     1   109.8800469 414.216000
   5220   5221   5223     1   109.8800469 414.216000
   5220   5224   5225     1   109.8800469 414.216000
   5220   5224   5226     1   109.8800469 414.216000
   5220   5227   5228     1   109.8800469 414.216000
   5220   5227   5229     1   109.8800469 414.216000
   5221   5233   5234     1   109.8000471 387.438400
   5221   5233   5235     1   109.8000471 387.438400
   5222   5221   5233     1   109.5600471 388.275200
   5222   5221   5223     1   108.4600466 328.025600
   5223   5221   5233     1   109.5600471 388.275200
   5224   5236   5237     1   109.8000471 387.438400
   5224   5236   5238     1   109.8000471 387.438400
   5225   5224   5236     1   109.5600471 388.275200
   5225   5224   5226     1   108.4600466 328.025600
   5226   5224   5236     1   109.5600471 388.275200
   5227   5230   5231     1   109.8000471 387.438400
   5227   5230   5232     1   109.8000471 387.438400
   5228   5227   5230     1   109.5600471 388.275200
   5228   5227   5229     1   108.4600466 328.025600
   5229   5227   5230     1   109.5600471 388.275200
   5230   5239   5240     1   109.5600471 388.275200
   5230   5239   5241     1   109.5600471 388.275200
   5231   5230   5239     1   109.8000471 387.438400
   5231   5230   5232     1   107.5800459 329.699200
   5232   5230   5239     1   109.8000471 387.438400
   5233   5245   5246     1   109.5600471 388.275200
   5233   5245   5247     1   109.5600471 388.275200
   5234   5233   5245     1   109.8000471 387.438400
   5234   5233   5235     1   107.5800459 329.699200
   5235   5233   5245     1   109.8000471 387.438400
   5236   5242   5243     1   109.5600471 388.275200
   5236   5242   5244     1   109.5600471 388.275200
   5237   5236   5242     1   109.8000471 387.438400
   5237   5236   5238     1   107.5800459 329.699200
   5238   5236   5242     1   109.8000471 387.438400
   5240   5239   5248     1   109.7800468 425.094400
   5240   5239   5241     1   108.4600466 328.025600
   5241   5239   5248     1   109.7800468 425.094400
   5243   5242  10526     1   109.7800468 425.094400
   5243   5242   5244     1   108.4600466 328.025600
   5244   5242  10526     1   109.7800468 425.094400
   5246   5245  10555     1   109.7800468 425.094400
   5246   5245   5247     1   108.4600466 328.025600
   5247   5245  10555     1   109.7800468 425.094400
   5249   5250   5251     1   109.8800469 414.216000
   5249   5250   5252     1   109.8800469 414.216000
   5249   5253   5254     1   109.8800469 414.216000
   5249   5253   5255     1   109.8800469 414.216000
   5249   5256   5257     1   109.8800469 414.216000
   5249   5256   5258     1   109.8800469 414.216000
   5250   5262   5263     1   109.8000471 387.438400
   5250   5262   5264     1   109.8000471 387.438400
   5251   5250   5262     1   109.5600471 388.275200
   5251   5250   5252     1   108.4600466 328.025600
   5252   5250   5262     1   109.5600471 388.275200
   5253   5265   5266     1   109.8000471 387.438400
   5253   5265   5267     1   109.8000471 387.438400
   5254   5253   5265     1   109.5600471 388.275200
   5254   5253   5255     1   108.4600466 328.025600
   5255   5253   5265     1   109.5600471 388.275200
   5256   5259   5260     1   109.8000471 387.438400
   5256   5259   5261     1   109.8000471 387.438400
   5257   5256   5259     1   109.5600471 388.275200
   5257   5256   5258     1   108.4600466 328.025600
   5258   5256   5259     1   109.5600471 388.275200
   5259   5268   5269     1   109.5600471 388.275200
   5259   5268   5270     1   109.5600471 388.275200
   5260   5259   5268     1   109.8000471 387.438400
   5260   5259   5261     1   107.5800459 329.699200
   5261   5259   5268     1   109.8000471 387.438400
   5262   5274   5275     1   109.5600471 388.275200
   5262   5274   5276     1   109.5600471 388.275200
   5263   5262   5274     1   109.8000471 387.438400
   5263   5262   5264     1   107.5800459 329.699200
   5264   5262   5274     1   109.8000471 387.438400
   5265   5271   5272     1   109.5600471 388.275200
   5265   5271   5273     1   109.5600471 388.275200
   5266   5265   5271     1   109.8000471 387.438400
   5266   5265   5267     1   107.5800459 329.699200
   5267   5265   5271     1   109.8000471 387.438400
   5269   5268   5277     1   109.7800468 425.094400
   5269   5268   5270     1   108.4600466 328.025600
   5270   5268   5277     1   109.7800468 425.094400
   5272   5271  10584     1   109.7800468 425.094400
   5272   5271   5273     1   108.4600466 328.025600
   5273   5271  10584     1   109.7800468 425.094400
   5275   5274  10613     1   109.7800468 425.094400
   5275   5274   5276     1   108.4600466 328.025600
   5276   5274  10613     1   109.7800468 425.094400
   5278   5279   5280     1   109.8800469 414.216000
   5278   5279   5281     1   109.8800469 414.216000
   5278   5282   5283     1   109.8800469 414.216000
   5278   5282   5284     1   109.8800469 414.216000
   5278   5285   5286     1   109.8800469 414.216000
   5278   5285   5287     1   109.8800469 414.216000
   5279   5291   5292     1   109.8000471 387.438400
   5279   5291   5293     1   109.8000471 387.438400
   5280   5279   5291     1   109.5600471 388.275200
   5280   5279   5281     1   108.4600466 328.025600
   5281   5279   5291     1   109.5600471 388.275200
   5282   5294   5295     1   109.8000471 387.438400
   5282   5294   5296     1   109.8000471 387.438400
   5283   5282   5294     1   109.5600471 388.275200
   5283   5282   5284     1   108.4600466 328.025600
   5284   5282   5294     1   109.5600471 388.275200
   5285   5288   5289     1   109.8000471 387.438400
   5285   5288   5290     1   109.8000471 387.438400
   5286   5285   5288     1   109.5600471 388.275200
   5286   5285   5287     1   108.4600466 328.025600
   5287   5285   5288     1   109.5600471 388.275200
   5288   5297   5298     1   109.5600471 388.275200
   5288   5297   5299     1   109.5600471 388.275200
   5289   5288   5297     1   109.8000471 387.438400
   5289   5288   5290     1   107.5800459 329.699200
   5290   5288   5297     1   109.8000471 387.438400
   5291   5303   5304     1   109.5600471 388.275200
   5291   5303   5305     1   109.5600471 388.275200
   5292   5291   5303     1   109.8000471 387.438400
   5292   5291   5293     1   107.5800459 329.699200
   5293   5291   5303     1   109.8000471 387.438400
   5294   5300   5301     1   109.5600471 388.275200
   5294   5300   5302     1   109.5600471 388.275200
   5295   5294   5300     1   109.8000471 387.438400
   5295   5294   5296     1   107.5800459 329.699200
   5296   5294   5300     1   109.8000471 387.438400
   5298   5297   5306     1   109.7800468 425.094400
   5298   5297   5299     1   108.4600466 328.025600
   5299   5297   5306     1   109.7800468 425.094400
   5301   5300  10642     1   109.7800468 425.094400
   5301   5300   5302     1   108.4600466 328.025600
   5302   5300  10642     1   109.7800468 425.094400
   5304   5303  10671     1   109.7800468 425.094400
   5304   5303   5305     1   108.4600466 328.025600
   5305   5303  10671     1   109.7800468 425.094400
   5307   5308   5309     1   109.8800469 414.216000
   5307   5308   5310     1   109.8800469 414.216000
   5307   5311   5312     1   109.8800469 414.216000
   5307   5311   5313     1   109.8800469 414.216000
   5307   5314   5315     1   109.8800469 414.216000
   5307   5314   5316     1   109.8800469 414.216000
   5308   5320   5321     1   109.8000471 387.438400
   5308   5320   5322     1   109.8000471 387.438400
   5309   5308   5320     1   109.5600471 388.275200
   5309   5308   5310     1   108.4600466 328.025600
   5310   5308   5320     1   109.5600471 388.275200
   5311   5323   5324     1   109.8000471 387.438400
   5311   5323   5325     1   109.8000471 387.438400
   5312   5311   5323     1   109.5600471 388.275200
   5312   5311   5313     1   108.4600466 328.025600
   5313   5311   5323     1   109.5600471 388.275200
   5314   5317   5318     1   109.8000471 387.438400
   5314   5317   5319     1   109.8000471 387.438400
   5315   5314   5317     1   109.5600471 388.275200
   5315   5314   5316     1   108.4600466 328.025600
   5316   5314   5317     1   109.5600471 388.275200
   5317   5326   5327     1   109.5600471 388.275200
   5317   5326   5328     1   109.5600471 388.275200
   5318   5317   5326     1   109.8000471 387.438400
   5318   5317   5319     1   107.5800459 329.699200
   5319   5317   5326     1   109.8000471 387.438400
   5320   5332   5333     1   109.5600471 388.275200
   5320   5332   5334     1   109.5600471 388.275200
   5321   5320   5332     1   109.8000471 387.438400
   5321   5320   5322     1   107.5800459 329.699200
   5322   5320   5332     1   109.8000471 387.438400
   5323   5329   5330     1   109.5600471 388.275200
   5323   5329   5331     1   109.5600471 388.275200
   5324   5323   5329     1   109.8000471 387.438400
   5324   5323   5325     1   107.5800459 329.699200
   5325   5323   5329     1   109.8000471 387.438400
   5327   5326   5335     1   109.7800468 425.094400
   5327   5326   5328     1   108.4600466 328.025600
   5328   5326   5335     1   109.7800468 425.094400
   5330   5329  10700     1   109.7800468 425.094400
   5330   5329   5331     1   108.4600466 328.025600
   5331   5329  10700     1   109.7800468 425.094400
   5333   5332  10729     1   109.7800468 425.094400
   5333   5332   5334     1   108.4600466 328.025600
   5334   5332  10729     1   109.7800468 425.094400
   5336   5337   5338     1   109.8800469 414.216000
   5336   5337   5339     1   109.8800469 414.216000
   5336   5340   5341     1   109.8800469 414.216000
   5336   5340   5342     1   109.8800469 414.216000
   5336   5343   5344     1   109.8800469 414.216000
   5336   5343   5345     1   109.8800469 414.216000
   5337   5349   5350     1   109.8000471 387.438400
   5337   5349   5351     1   109.8000471 387.438400
   5338   5337   5349     1   109.5600471 388.275200
   5338   5337   5339     1   108.4600466 328.025600
   5339   5337   5349     1   109.5600471 388.275200
   5340   5352   5353     1   109.8000471 387.438400
   5340   5352   5354     1   109.8000471 387.438400
   5341   5340   5352     1   109.5600471 388.275200
   5341   5340   5342     1   108.4600466 328.025600
   5342   5340   5352     1   109.5600471 388.275200
   5343   5346   5347     1   109.8000471 387.438400
   5343   5346   5348     1   109.8000471 387.438400
   5344   5343   5346     1   109.5600471 388.275200
   5344   5343   5345     1   108.4600466 328.025600
   5345   5343   5346     1   109.5600471 388.275200
   5346   5355   5356     1   109.5600471 388.275200
   5346   5355   5357     1   109.5600471 388.275200
   5347   5346   5355     1   109.8000471 387.438400
   5347   5346   5348     1   107.5800459 329.699200
   5348   5346   5355     1   109.8000471 387.438400
   5349   5361   5362     1   109.5600471 388.275200
   5349   5361   5363     1   109.5600471 388.275200
   5350   5349   5361     1   109.8000471 387.438400
   5350   5349   5351     1   107.5800459 329.699200
   5351   5349   5361     1   109.8000471 387.438400
   5352   5358   5359     1   109.5600471 388.275200
   5352   5358   5360     1   109.5600471 388.275200
   5353   5352   5358     1   109.8000471 387.438400
   5353   5352   5354     1   107.5800459 329.699200
   5354   5352   5358     1   109.8000471 387.438400
   5356   5355   5364     1   109.7800468 425.094400
   5356   5355   5357     1   108.4600466 328.025600
   5357   5355   5364     1   109.7800468 425.094400
   5359   5358  10758     1   109.7800468 425.094400
   5359   5358   5360     1   108.4600466 328.025600
   5360   5358  10758     1   109.7800468 425.094400
   5362   5361  10787     1   109.7800468 425.094400
   5362   5361   5363     1   108.4600466 328.025600
   5363   5361  10787     1   109.7800468 425.094400
   5365   5366   5367     1   109.8800469 414.216000
   5365   5366   5368     1   109.8800469 414.216000
   5365   5369   5370     1   109.8800469 414.216000
   5365   5369   5371     1   109.8800469 414.216000
   5365   5372   5373     1   109.8800469 414.216000
   5365   5372   5374     1   109.8800469 414.216000
   5366   5378   5379     1   109.8000471 387.438400
   5366   5378   5380     1   109.8000471 387.438400
   5367   5366   5378     1   109.5600471 388.275200
   5367   5366   5368     1   108.4600466 328.025600
   5368   5366   5378     1   109.5600471 388.275200
   5369   5381   5382     1   109.8000471 387.438400
   5369   5381   5383     1   109.8000471 387.438400
   5370   5369   5381     1   109.5600471 388.275200
   5370   5369   5371     1   108.4600466 328.025600
   5371   5369   5381     1   109.5600471 388.275200
   5372   5375   5376     1   109.8000471 387.438400
   5372   5375   5377     1   109.8000471 387.438400
   5373   5372   5375     1   109.5600471 388.275200
   5373   5372   5374     1   108.4600466 328.025600
   5374   5372   5375     1   109.5600471 388.275200
   5375   5384   5385     1   109.5600471 388.275200
   5375   5384   5386     1   109.5600471 388.275200
   5376   5375   5384     1   109.8000471 387.438400
   5376   5375   5377     1   107.5800459 329.699200
   5377   5375   5384     1   109.8000471 387.438400
   5378   5390   5391     1   109.5600471 388.275200
   5378   5390   5392     1   109.5600471 388.275200
   5379   5378   5390     1   109.8000471 387.438400
   5379   5378   5380     1   107.5800459 329.699200
   5380   5378   5390     1   109.8000471 387.438400
   5381   5387   5388     1   109.5600471 388.275200
   5381   5387   5389     1   109.5600471 388.275200
   5382   5381   5387     1   109.8000471 387.438400
   5382   5381   5383     1   107.5800459 329.699200
   5383   5381   5387     1   109.8000471 387.438400
   5385   5384   5393     1   109.7800468 425.094400
   5385   5384   5386     1   108.4600466 328.025600
   5386   5384   5393     1   109.7800468 425.094400
   5388   5387  10816     1   109.7800468 425.094400
   5388   5387   5389     1   108.4600466 328.025600
   5389   5387  10816     1   109.7800468 425.094400
   5391   5390  10845     1   109.7800468 425.094400
   5391   5390   5392     1   108.4600466 328.025600
   5392   5390  10845     1   109.7800468 425.094400
   5394   5395   5396     1   109.8800469 414.216000
   5394   5395   5397     1   109.8800469 414.216000
   5394   5398   5399     1   109.8800469 414.216000
   5394   5398   5400     1   109.8800469 414.216000
   5394   5401   5402     1   109.8800469 414.216000
   5394   5401   5403     1   109.8800469 414.216000
   5395   5407   5408     1   109.8000471 387.438400
   5395   5407   5409     1   109.8000471 387.438400
   5396   5395   5407     1   109.5600471 388.275200
   5396   5395   5397     1   108.4600466 328.025600
   5397   5395   5407     1   109.5600471 388.275200
   5398   5410   5411     1   109.8000471 387.438400
   5398   5410   5412     1   109.8000471 387.438400
   5399   5398   5410     1   109.5600471 388.275200
   5399   5398   5400     1   108.4600466 328.025600
   5400   5398   5410     1   109.5600471 388.275200
   5401   5404   5405     1   109.8000471 387.438400
   5401   5404   5406     1   109.8000471 387.438400
   5402   5401   5404     1   109.5600471 388.275200
   5402   5401   5403     1   108.4600466 328.025600
   5403   5401   5404     1   109.5600471 388.275200
   5404   5413   5414     1   109.5600471 388.275200
   5404   5413   5415     1   109.5600471 388.275200
   5405   5404   5413     1   109.8000471 387.438400
   5405   5404   5406     1   107.5800459 329.699200
   5406   5404   5413     1   109.8000471 387.438400
   5407   5419   5420     1   109.5600471 388.275200
   5407   5419   5421     1   109.5600471 388.275200
   5408   5407   5419     1   109.8000471 387.438400
   5408   5407   5409     1   107.5800459 329.699200
   5409   5407   5419     1   109.8000471 387.438400
   5410   5416   5417     1   109.5600471 388.275200
   5410   5416   5418     1   109.5600471 388.275200
   5411   5410   5416     1   109.8000471 387.438400
   5411   5410   5412     1   107.5800459 329.699200
   5412   5410   5416     1   109.8000471 387.438400
   5414   5413   5422     1   109.7800468 425.094400
   5414   5413   5415     1   108.4600466 328.025600
   5415   5413   5422     1   109.7800468 425.094400
   5417   5416  10874     1   109.7800468 425.094400
   5417   5416   5418     1   108.4600466 328.025600
   5418   5416  10874     1   109.7800468 425.094400
   5420   5419  10903     1   109.7800468 425.094400
   5420   5419   5421     1   108.4600466 328.025600
   5421   5419  10903     1   109.7800468 425.094400
   5423   5424   5425     1   109.8800469 414.216000
   5423   5424   5426     1   109.8800469 414.216000
   5423   5427   5428     1   109.8800469 414.216000
   5423   5427   5429     1   109.8800469 414.216000
   5423   5430   5431     1   109.8800469 414.216000
   5423   5430   5432     1   109.8800469 414.216000
   5424   5436   5437     1   109.8000471 387.438400
   5424   5436   5438     1   109.8000471 387.438400
   5425   5424   5436     1   109.5600471 388.275200
   5425   5424   5426     1   108.4600466 328.025600
   5426   5424   5436     1   109.5600471 388.275200
   5427   5439   5440     1   109.8000471 387.438400
   5427   5439   5441     1   109.8000471 387.438400
   5428   5427   5439     1   109.5600471 388.275200
   5428   5427   5429     1   108.4600466 328.025600
   5429   5427   5439     1   109.5600471 388.275200
   5430   5433   5434     1   109.8000471 387.438400
   5430   5433   5435     1   109.8000471 387.438400
   5431   5430   5433     1   109.5600471 388.275200
   5431   5430   5432     1   108.4600466 328.025600
   5432   5430   5433     1   109.5600471 388.275200
   5433   5442   5443     1   109.5600471 388.275200
   5433   5442   5444     1   109.5600471 388.275200
   5434   5433   5442     1   109.8000471 387.438400
   5434   5433   5435     1   107.5800459 329.699200
   5435   5433   5442     1   109.8000471 387.438400
   5436   5448   5449     1   109.5600471 388.275200
   5436   5448   5450     1   109.5600471 388.275200
   5437   5436   5448     1   109.8000471 387.438400
   5437   5436   5438     1   107.5800459 329.699200
   5438   5436   5448     1   109.8000471 387.438400
   5439   5445   5446     1   109.5600471 388.275200
   5439   5445   5447     1   109.5600471 388.275200
   5440   5439   5445     1   109.8000471 387.438400
   5440   5439   5441     1   107.5800459 329.699200
   5441   5439   5445     1   109.8000471 387.438400
   5443   5442   5451     1   109.7800468 425.094400
   5443   5442   5444     1   108.4600466 328.025600
   5444   5442   5451     1   109.7800468 425.094400
   5446   5445  10932     1   109.7800468 425.094400
   5446   5445   5447     1   108.4600466 328.025600
   5447   5445  10932     1   109.7800468 425.094400
   5449   5448  10961     1   109.7800468 425.094400
   5449   5448   5450     1   108.4600466 328.025600
   5450   5448  10961     1   109.7800468 425.094400
   5452   5453   5454     1   109.8800469 414.216000
   5452   5453   5455     1   109.8800469 414.216000
   5452   5456   5457     1   109.8800469 414.216000
   5452   5456   5458     1   109.8800469 414.216000
   5452   5459   5460     1   109.8800469 414.216000
   5452   5459   5461     1   109.8800469 414.216000
   5453   5465   5466     1   109.8000471 387.438400
   5453   5465   5467     1   109.8000471 387.438400
   5454   5453   5465     1   109.5600471 388.275200
   5454   5453   5455     1   108.4600466 328.025600
   5455   5453   5465     1   109.5600471 388.275200
   5456   5468   5469     1   109.8000471 387.438400
   5456   5468   5470     1   109.8000471 387.438400
   5457   5456   5468     1   109.5600471 388.275200
   5457   5456   5458     1   108.4600466 328.025600
   5458   5456   5468     1   109.5600471 388.275200
   5459   5462   5463     1   109.8000471 387.438400
   5459   5462   5464     1   109.8000471 387.438400
   5460   5459   5462     1   109.5600471 388.275200
   5460   5459   5461     1   108.4600466 328.025600
   5461   5459   5462     1   109.5600471 388.275200
   5462   5471   5472     1   109.5600471 388.275200
   5462   5471   5473     1   109.5600471 388.275200
   5463   5462   5471     1   109.8000471 387.438400
   5463   5462   5464     1   107.5800459 329.699200
   5464   5462   5471     1   109.8000471 387.438400
   5465   5477   5478     1   109.5600471 388.275200
   5465   5477   5479     1   109.5600471 388.275200
   5466   5465   5477     1   109.8000471 387.438400
   5466   5465   5467     1   107.5800459 329.699200
   5467   5465   5477     1   109.8000471 387.438400
   5468   5474   5475     1   109.5600471 388.275200
   5468   5474   5476     1   109.5600471 388.275200
   5469   5468   5474     1   109.8000471 387.438400
   5469   5468   5470     1   107.5800459 329.699200
   5470   5468   5474     1   109.8000471 387.438400
   5472   5471   5480     1   109.7800468 425.094400
   5472   5471   5473     1   108.4600466 328.025600
   5473   5471   5480     1   109.7800468 425.094400
   5475   5474  10990     1   109.7800468 425.094400
   5475   5474   5476     1   108.4600466 328.025600
   5476   5474  10990     1   109.7800468 425.094400
   5478   5477  11019     1   109.7800468 425.094400
   5478   5477   5479     1   108.4600466 328.025600
   5479   5477  11019     1   109.7800468 425.094400
   5481   5482   5483     1   109.8800469 414.216000
   5481   5482   5484     1   109.8800469 414.216000
   5481   5485   5486     1   109.8800469 414.216000
   5481   5485   5487     1   109.8800469 414.216000
   5481   5488   5489     1   109.8800469 414.216000
   5481   5488   5490     1   109.8800469 414.216000
   5482   5494   5495     1   109.8000471 387.438400
   5482   5494   5496     1   109.8000471 387.438400
   5483   5482   5494     1   109.5600471 388.275200
   5483   5482   5484     1   108.4600466 328.025600
   5484   5482   5494     1   109.5600471 388.275200
   5485   5497   5498     1   109.8000471 387.438400
   5485   5497   5499     1   109.8000471 387.438400
   5486   5485   5497     1   109.5600471 388.275200
   5486   5485   5487     1   108.4600466 328.025600
   5487   5485   5497     1   109.5600471 388.275200
   5488   5491   5492     1   109.8000471 387.438400
   5488   5491   5493     1   109.8000471 387.438400
   5489   5488   5491     1   109.5600471 388.275200
   5489   5488   5490     1   108.4600466 328.025600
   5490   5488   5491     1   109.5600471 388.275200
   5491   5500   5501     1   109.5600471 388.275200
   5491   5500   5502     1   109.5600471 388.275200
   5492   5491   5500     1   109.8000471 387.438400
   5492   5491   5493     1   107.5800459 329.699200
   5493   5491   5500     1   109.8000471 387.438400
   5494   5506   5507     1   109.5600471 388.275200
   5494   5506   5508     1   109.5600471 388.275200
   5495   5494   5506     1   109.8000471 387.438400
   5495   5494   5496     1   107.5800459 329.699200
   5496   5494   5506     1   109.8000471 387.438400
   5497   5503   5504     1   109.5600471 388.275200
   5497   5503   5505     1   109.5600471 388.275200
   5498   5497   5503     1   109.8000471 387.438400
   5498   5497   5499     1   107.5800459 329.699200
   5499   5497   5503     1   109.8000471 387.438400
   5501   5500   5509     1   109.7800468 425.094400
   5501   5500   5502     1   108.4600466 328.025600
   5502   5500   5509     1   109.7800468 425.094400
   5504   5503  11048     1   109.7800468 425.094400
   5504   5503   5505     1   108.4600466 328.025600
   5505   5503  11048     1   109.7800468 425.094400
   5507   5506  11077     1   109.7800468 425.094400
   5507   5506   5508     1   108.4600466 328.025600
   5508   5506  11077     1   109.7800468 425.094400
   5510   5513   5514     1   109.8000471 387.438400
   5510   5513   5515     1   109.8000471 387.438400
   5511   5510   5513     1   109.5600471 388.275200
   5511   5510   5538     1   109.7800468 425.094400
   5511   5510   5512     1   108.4600466 328.025600
   5512   5510   5513     1   109.5600471 388.275200
   5512   5510   5538     1   109.7800468 425.094400
   5513   5516   5517     1   109.5600471 388.275200
   5513   5516   5518     1   109.5600471 388.275200
   5514   5513   5516     1   109.8000471 387.438400
   5514   5513   5515     1   107.5800459 329.699200
   5515   5513   5516     1   109.8000471 387.438400
   5517   5516   5519     1   109.8800469 414.216000
   5517   5516   5518     1   108.4600466 328.025600
   5518   5516   5519     1   109.8800469 414.216000
   5519   5520   5521     1   109.8800469 414.216000
   5519   5520   5522     1   109.8800469 414.216000
   5519   5529   5530     1   109.8800469 414.216000
   5519   5529   5531     1   109.8800469 414.216000
   5520   5523   5524     1   109.8000471 387.438400
   5520   5523   5525     1   109.8000471 387.438400
   5521   5520   5523     1   109.5600471 388.275200
   5521   5520   5522     1   108.4600466 328.025600
   5522   5520   5523     1   109.5600471 388.275200
   5524   5523   5526     1   108.7700466 392.459200
   5524   5523   5525     1   107.5800459 329.699200
   5525   5523   5526     1   108.7700466 392.459200
   5529   5532   5533     1   109.8000471 387.438400
   5529   5532   5534     1   109.8000471 387.438400
   5530   5529   5532     1   109.5600471 388.275200
   5530   5529   5531     1   108.4600466 328.025600
   5531   5529   5532     1   109.5600471 388.275200
   5533   5532   5535     1   108.7700466 392.459200
   5533   5532   5534     1   107.5800459 329.699200
   5534   5532   5535     1   108.7700466 392.459200
   5539   5542   5543     1   109.8000471 387.438400
   5539   5542   5544     1   109.8000471 387.438400
   5540   5539   5542     1   109.5600471 388.275200
   5540   5539   5567     1   109.7800468 425.094400
   5540   5539   5541     1   108.4600466 328.025600
   5541   5539   5542     1   109.5600471 388.275200
   5541   5539   5567     1   109.7800468 425.094400
   5542   5545   5546     1   109.5600471 388.275200
   5542   5545   5547     1   109.5600471 388.275200
   5543   5542   5545     1   109.8000471 387.438400
   5543   5542   5544     1   107.5800459 329.699200
   5544   5542   5545     1   109.8000471 387.438400
   5546   5545   5548     1   109.8800469 414.216000
   5546   5545   5547     1   108.4600466 328.025600
   5547   5545   5548     1   109.8800469 414.216000
   5548   5549   5550     1   109.8800469 414.216000
   5548   5549   5551     1   109.8800469 414.216000
   5548   5558   5559     1   109.8800469 414.216000
   5548   5558   5560     1   109.8800469 414.216000
   5549   5552   5553     1   109.8000471 387.438400
   5549   5552   5554     1   109.8000471 387.438400
   5550   5549   5552     1   109.5600471 388.275200
   5550   5549   5551     1   108.4600466 328.025600
   5551   5549   5552     1   109.5600471 388.275200
   5553   5552   5555     1   108.7700466 392.459200
   5553   5552   5554     1   107.5800459 329.699200
   5554   5552   5555     1   108.7700466 392.459200
   5558   5561   5562     1   109.8000471 387.438400
   5558   5561   5563     1   109.8000471 387.438400
   5559   5558   5561     1   109.5600471 388.275200
   5559   5558   5560     1   108.4600466 328.025600
   5560   5558   5561     1   109.5600471 388.275200
   5562   5561   5564     1   108.7700466 392.459200
   5562   5561   5563     1   107.5800459 329.699200
   5563   5561   5564     1   108.7700466 392.459200
   5568   5571   5572     1   109.8000471 387.438400
   5568   5571   5573     1   109.8000471 387.438400
   5569   5568   5571     1   109.5600471 388.275200
   5569   5568   5596     1   109.7800468 425.094400
   5569   5568   5570     1   108.4600466 328.025600
   5570   5568   5571     1   109.5600471 388.275200
   5570   5568   5596     1   109.7800468 425.094400
   5571   5574   5575     1   109.5600471 388.275200
   5571   5574   5576     1   109.5600471 388.275200
   5572   5571   5574     1   109.8000471 387.438400
   5572   5571   5573     1   107.5800459 329.699200
   5573   5571   5574     1   109.8000471 387.438400
   5575   5574   5577     1   109.8800469 414.216000
   5575   5574   5576     1   108.4600466 328.025600
   5576   5574   5577     1   109.8800469 414.216000
   5577   5578   5579     1   109.8800469 414.216000
   5577   5578   5580     1   109.8800469 414.216000
   5577   5587   5588     1   109.8800469 414.216000
   5577   5587   5589     1   109.8800469 414.216000
   5578   5581   5582     1   109.8000471 387.438400
   5578   5581   5583     1   109.8000471 387.438400
   5579   5578   5581     1   109.5600471 388.275200
   5579   5578   5580     1   108.4600466 328.025600
   5580   5578   5581     1   109.5600471 388.275200
   5582   5581   5584     1   108.7700466 392.459200
   5582   5581   5583     1   107.5800459 329.699200
   5583   5581   5584     1   108.7700466 392.459200
   5587   5590   5591     1   109.8000471 387.438400
   5587   5590   5592     1   109.8000471 387.438400
   5588   5587   5590     1   109.5600471 388.275200
   5588   5587   5589     1   108.4600466 328.025600
   5589   5587   5590     1   109.5600471 388.275200
   5591   5590   5593     1   108.7700466 392.459200
   5591   5590   5592     1   107.5800459 329.699200
   5592   5590   5593     1   108.7700466 392.459200
   5597   5600   5601     1   109.8000471 387.438400
   5597   5600   5602     1   109.8000471 387.438400
   5598   5597   5600     1   109.5600471 388.275200
   5598   5597   5625     1   109.7800468 425.094400
   5598   5597   5599     1   108.4600466 328.025600
   5599   5597   5600     1   109.5600471 388.275200
   5599   5597   5625     1   109.7800468 425.094400
   5600   5603   5604     1   109.5600471 388.275200
   5600   5603   5605     1   109.5600471 388.275200
   5601   5600   5603     1   109.8000471 387.438400
   5601   5600   5602     1   107.5800459 329.699200
   5602   5600   5603     1   109.8000471 387.438400
   5604   5603   5606     1   109.8800469 414.216000
   5604   5603   5605     1   108.4600466 328.025600
   5605   5603   5606     1   109.8800469 414.216000
   5606   5607   5608     1   109.8800469 414.216000
   5606   5607   5609     1   109.8800469 414.216000
   5606   5616   5617     1   109.8800469 414.216000
   5606   5616   5618     1   109.8800469 414.216000
   5607   5610   5611     1   109.8000471 387.438400
   5607   5610   5612     1   109.8000471 387.438400
   5608   5607   5610     1   109.5600471 388.275200
   5608   5607   5609     1   108.4600466 328.025600
   5609   5607   5610     1   109.5600471 388.275200
   5611   5610   5613     1   108.7700466 392.459200
   5611   5610   5612     1   107.5800459 329.699200
   5612   5610   5613     1   108.7700466 392.459200
   5616   5619   5620     1   109.8000471 387.438400
   5616   5619   5621     1   109.8000471 387.438400
   5617   5616   5619     1   109.5600471 388.275200
   5617   5616   5618     1   108.4600466 328.025600
   5618   5616   5619     1   109.5600471 388.275200
   5620   5619   5622     1   108.7700466 392.459200
   5620   5619   5621     1   107.5800459 329.699200
   5621   5619   5622     1   108.7700466 392.459200
   5626   5629   5630     1   109.8000471 387.438400
   5626   5629   5631     1   109.8000471 387.438400
   5627   5626   5629     1   109.5600471 388.275200
   5627   5626   5654     1   109.7800468 425.094400
   5627   5626   5628     1   108.4600466 328.025600
   5628   5626   5629     1   109.5600471 388.275200
   5628   5626   5654     1   109.7800468 425.094400
   5629   5632   5633     1   109.5600471 388.275200
   5629   5632   5634     1   109.5600471 388.275200
   5630   5629   5632     1   109.8000471 387.438400
   5630   5629   5631     1   107.5800459 329.699200
   5631   5629   5632     1   109.8000471 387.438400
   5633   5632   5635     1   109.8800469 414.216000
   5633   5632   5634     1   108.4600466 328.025600
   5634   5632   5635     1   109.8800469 414.216000
   5635   5636   5637     1   109.8800469 414.216000
   5635   5636   5638     1   109.8800469 414.216000
   5635   5645   5646     1   109.8800469 414.216000
   5635   5645   5647     1   109.8800469 414.216000
   5636   5639   5640     1   109.8000471 387.438400
   5636   5639   5641     1   109.8000471 387.438400
   5637   5636   5639     1   109.5600471 388.275200
   5637   5636   5638     1   108.4600466 328.025600
   5638   5636   5639     1   109.5600471 388.275200
   5640   5639   5642     1   108.7700466 392.459200
   5640   5639   5641     1   107.5800459 329.699200
   5641   5639   5642     1   108.7700466 392.459200
   5645   5648   5649     1   109.8000471 387.438400
   5645   5648   5650     1   109.8000471 387.438400
   5646   5645   5648     1   109.5600471 388.275200
   5646   5645   5647     1   108.4600466 328.025600
   5647   5645   5648     1   109.5600471 388.275200
   5649   5648   5651     1   108.7700466 392.459200
   5649   5648   5650     1   107.5800459 329.699200
   5650   5648   5651     1   108.7700466 392.459200
   5655   5658   5659     1   109.8000471 387.438400
   5655   5658   5660     1   109.8000471 387.438400
   5656   5655   5658     1   109.5600471 388.275200
   5656   5655   5683     1   109.7800468 425.094400
   5656   5655   5657     1   108.4600466 328.025600
   5657   5655   5658     1   109.5600471 388.275200
   5657   5655   5683     1   109.7800468 425.094400
   5658   5661   5662     1   109.5600471 388.275200
   5658   5661   5663     1   109.5600471 388.275200
   5659   5658   5661     1   109.8000471 387.438400
   5659   5658   5660     1   107.5800459 329.699200
   5660   5658   5661     1   109.8000471 387.438400
   5662   5661   5664     1   109.8800469 414.216000
   5662   5661   5663     1   108.4600466 328.025600
   5663   5661   5664     1   109.8800469 414.216000
   5664   5665   5666     1   109.8800469 414.216000
   5664   5665   5667     1   109.8800469 414.216000
   5664   5674   5675     1   109.8800469 414.216000
   5664   5674   5676     1   109.8800469 414.216000
   5665   5668   5669     1   109.8000471 387.438400
   5665   5668   5670     1   109.8000471 387.438400
   5666   5665   5668     1   109.5600471 388.275200
   5666   5665   5667     1   108.4600466 328.025600
   5667   5665   5668     1   109.5600471 388.275200
   5669   5668   5671     1   108.7700466 392.459200
   5669   5668   5670     1   107.5800459 329.699200
   5670   5668   5671     1   108.7700466 392.459200
   5674   5677   5678     1   109.8000471 387.438400
   5674   5677   5679     1   109.8000471 387.438400
   5675   5674   5677     1   109.5600471 388.275200
   5675   5674   5676     1   108.4600466 328.025600
   5676   5674   5677     1   109.5600471 388.275200
   5678   5677   5680     1   108.7700466 392.459200
   5678   5677   5679     1   107.5800459 329.699200
   5679   5677   5680     1   108.7700466 392.459200
   5684   5687   5688     1   109.8000471 387.438400
   5684   5687   5689     1   109.8000471 387.438400
   5685   5684   5687     1   109.5600471 388.275200
   5685   5684   5712     1   109.7800468 425.094400
   5685   5684   5686     1   108.4600466 328.025600
   5686   5684   5687     1   109.5600471 388.275200
   5686   5684   5712     1   109.7800468 425.094400
   5687   5690   5691     1   109.5600471 388.275200
   5687   5690   5692     1   109.5600471 388.275200
   5688   5687   5690     1   109.8000471 387.438400
   5688   5687   5689     1   107.5800459 329.699200
   5689   5687   5690     1   109.8000471 387.438400
   5691   5690   5693     1   109.8800469 414.216000
   5691   5690   5692     1   108.4600466 328.025600
   5692   5690   5693     1   109.8800469 414.216000
   5693   5694   5695     1   109.8800469 414.216000
   5693   5694   5696     1   109.8800469 414.216000
   5693   5703   5704     1   109.8800469 414.216000
   5693   5703   5705     1   109.8800469 414.216000
   5694   5697   5698     1   109.8000471 387.438400
   5694   5697   5699     1   109.8000471 387.438400
   5695   5694   5697     1   109.5600471 388.275200
   5695   5694   5696     1   108.4600466 328.025600
   5696   5694   5697     1   109.5600471 388.275200
   5698   5697   5700     1   108.7700466 392.459200
   5698   5697   5699     1   107.5800459 329.699200
   5699   5697   5700     1   108.7700466 392.459200
   5703   5706   5707     1   109.8000471 387.438400
   5703   5706   5708     1   109.8000471 387.438400
   5704   5703   5706     1   109.5600471 388.275200
   5704   5703   5705     1   108.4600466 328.025600
   5705   5703   5706     1   109.5600471 388.275200
   5707   5706   5709     1   108.7700466 392.459200
   5707   5706   5708     1   107.5800459 329.699200
   5708   5706   5709     1   108.7700466 392.459200
   5713   5716   5717     1   109.8000471 387.438400
   5713   5716   5718     1   109.8000471 387.438400
   5714   5713   5716     1   109.5600471 388.275200
   5714   5713   5741     1   109.7800468 425.094400
   5714   5713   5715     1   108.4600466 328.025600
   5715   5713   5716     1   109.5600471 388.275200
   5715   5713   5741     1   109.7800468 425.094400
   5716   5719   5720     1   109.5600471 388.275200
   5716   5719   5721     1   109.5600471 388.275200
   5717   5716   5719     1   109.8000471 387.438400
   5717   5716   5718     1   107.5800459 329.699200
   5718   5716   5719     1   109.8000471 387.438400
   5720   5719   5722     1   109.8800469 414.216000
   5720   5719   5721     1   108.4600466 328.025600
   5721   5719   5722     1   109.8800469 414.216000
   5722   5723   5724     1   109.8800469 414.216000
   5722   5723   5725     1   109.8800469 414.216000
   5722   5732   5733     1   109.8800469 414.216000
   5722   5732   5734     1   109.8800469 414.216000
   5723   5726   5727     1   109.8000471 387.438400
   5723   5726   5728     1   109.8000471 387.438400
   5724   5723   5726     1   109.5600471 388.275200
   5724   5723   5725     1   108.4600466 328.025600
   5725   5723   5726     1   109.5600471 388.275200
   5727   5726   5729     1   108.7700466 392.459200
   5727   5726   5728     1   107.5800459 329.699200
   5728   5726   5729     1   108.7700466 392.459200
   5732   5735   5736     1   109.8000471 387.438400
   5732   5735   5737     1   109.8000471 387.438400
   5733   5732   5735     1   109.5600471 388.275200
   5733   5732   5734     1   108.4600466 328.025600
   5734   5732   5735     1   109.5600471 388.275200
   5736   5735   5738     1   108.7700466 392.459200
   5736   5735   5737     1   107.5800459 329.699200
   5737   5735   5738     1   108.7700466 392.459200
   5742   5745   5746     1   109.8000471 387.438400
   5742   5745   5747     1   109.8000471 387.438400
   5743   5742   5745     1   109.5600471 388.275200
   5743   5742   5770     1   109.7800468 425.094400
   5743   5742   5744     1   108.4600466 328.025600
   5744   5742   5745     1   109.5600471 388.275200
   5744   5742   5770     1   109.7800468 425.094400
   5745   5748   5749     1   109.5600471 388.275200
   5745   5748   5750     1   109.5600471 388.275200
   5746   5745   5748     1   109.8000471 387.438400
   5746   5745   5747     1   107.5800459 329.699200
   5747   5745   5748     1   109.8000471 387.438400
   5749   5748   5751     1   109.8800469 414.216000
   5749   5748   5750     1   108.4600466 328.025600
   5750   5748   5751     1   109.8800469 414.216000
   5751   5752   5753     1   109.8800469 414.216000
   5751   5752   5754     1   109.8800469 414.216000
   5751   5761   5762     1   109.8800469 414.216000
   5751   5761   5763     1   109.8800469 414.216000
   5752   5755   5756     1   109.8000471 387.438400
   5752   5755   5757     1   109.8000471 387.438400
   5753   5752   5755     1   109.5600471 388.275200
   5753   5752   5754     1   108.4600466 328.025600
   5754   5752   5755     1   109.5600471 388.275200
   5756   5755   5758     1   108.7700466 392.459200
   5756   5755   5757     1   107.5800459 329.699200
   5757   5755   5758     1   108.7700466 392.459200
   5761   5764   5765     1   109.8000471 387.438400
   5761   5764   5766     1   109.8000471 387.438400
   5762   5761   5764     1   109.5600471 388.275200
   5762   5761   5763     1   108.4600466 328.025600
   5763   5761   5764     1   109.5600471 388.275200
   5765   5764   5767     1   108.7700466 392.459200
   5765   5764   5766     1   107.5800459 329.699200
   5766   5764   5767     1   108.7700466 392.459200
   5771   5774   5775     1   109.8000471 387.438400
   5771   5774   5776     1   109.8000471 387.438400
   5772   5771   5774     1   109.5600471 388.275200
   5772   5771   5799     1   109.7800468 425.094400
   5772   5771   5773     1   108.4600466 328.025600
   5773   5771   5774     1   109.5600471 388.275200
   5773   5771   5799     1   109.7800468 425.094400
   5774   5777   5778     1   109.5600471 388.275200
   5774   5777   5779     1   109.5600471 388.275200
   5775   5774   5777     1   109.8000471 387.438400
   5775   5774   5776     1   107.5800459 329.699200
   5776   5774   5777     1   109.8000471 387.438400
   5778   5777   5780     1   109.8800469 414.216000
   5778   5777   5779     1   108.4600466 328.025600
   5779   5777   5780     1   109.8800469 414.216000
   5780   5781   5782     1   109.8800469 414.216000
   5780   5781   5783     1   109.8800469 414.216000
   5780   5790   5791     1   109.8800469 414.216000
   5780   5790   5792     1   109.8800469 414.216000
   5781   5784   5785     1   109.8000471 387.438400
   5781   5784   5786     1   109.8000471 387.438400
   5782   5781   5784     1   109.5600471 388.275200
   5782   5781   5783     1   108.4600466 328.025600
   5783   5781   5784     1   109.5600471 388.275200
   5785   5784   5787     1   108.7700466 392.459200
   5785   5784   5786     1   107.5800459 329.699200
   5786   5784   5787     1   108.7700466 392.459200
   5790   5793   5794     1   109.8000471 387.438400
   5790   5793   5795     1   109.8000471 387.438400
   5791   5790   5793     1   109.5600471 388.275200
   5791   5790   5792     1   108.4600466 328.025600
   5792   5790   5793     1   109.5600471 388.275200
   5794   5793   5796     1   108.7700466 392.459200
   5794   5793   5795     1   107.5800459 329.699200
   5795   5793   5796     1   108.7700466 392.459200
   5800   5803   5804     1   109.8000471 387.438400
   5800   5803   5805     1   109.8000471 387.438400
   5801   5800   5803     1   109.5600471 388.275200
   5801   5800   5828     1   109.7800468 425.094400
   5801   5800   5802     1   108.4600466 328.025600
   5802   5800   5803     1   109.5600471 388.275200
   5802   5800   5828     1   109.7800468 425.094400
   5803   5806   5807     1   109.5600471 388.275200
   5803   5806   5808     1   109.5600471 388.275200
   5804   5803   5806     1   109.8000471 387.438400
   5804   5803   5805     1   107.5800459 329.699200
   5805   5803   5806     1   109.8000471 387.438400
   5807   5806   5809     1   109.8800469 414.216000
   5807   5806   5808     1   108.4600466 328.025600
   5808   5806   5809     1   109.8800469 414.216000
   5809   5810   5811     1   109.8800469 414.216000
   5809   5810   5812     1   109.8800469 414.216000
   5809   5819   5820     1   109.8800469 414.216000
   5809   5819   5821     1   109.8800469 414.216000
   5810   5813   5814     1   109.8000471 387.438400
   5810   5813   5815     1   109.8000471 387.438400
   5811   5810   5813     1   109.5600471 388.275200
   5811   5810   5812     1   108.4600466 328.025600
   5812   5810   5813     1   109.5600471 388.275200
   5814   5813   5816     1   108.7700466 392.459200
   5814   5813   5815     1   107.5800459 329.699200
   5815   5813   5816     1   108.7700466 392.459200
   5819   5822   5823     1   109.8000471 387.438400
   5819   5822   5824     1   109.8000471 387.438400
   5820   5819   5822     1   109.5600471 388.275200
   5820   5819   5821     1   108.4600466 328.025600
   5821   5819   5822     1   109.5600471 388.275200
   5823   5822   5825     1   108.7700466 392.459200
   5823   5822   5824     1   107.5800459 329.699200
   5824   5822   5825     1   108.7700466 392.459200
   5829   5832   5833     1   109.8000471 387.438400
   5829   5832   5834     1   109.8000471 387.438400
   5830   5829   5832     1   109.5600471 388.275200
   5830   5829   5857     1   109.7800468 425.094400
   5830   5829   5831     1   108.4600466 328.025600
   5831   5829   5832     1   109.5600471 388.275200
   5831   5829   5857     1   109.7800468 425.094400
   5832   5835   5836     1   109.5600471 388.275200
   5832   5835   5837     1   109.5600471 388.275200
   5833   5832   5835     1   109.8000471 387.438400
   5833   5832   5834     1   107.5800459 329.699200
   5834   5832   5835     1   109.8000471 387.438400
   5836   5835   5838     1   109.8800469 414.216000
   5836   5835   5837     1   108.4600466 328.025600
   5837   5835   5838     1   109.8800469 414.216000
   5838   5839   5840     1   109.8800469 414.216000
   5838   5839   5841     1   109.8800469 414.216000
   5838   5848   5849     1   109.8800469 414.216000
   5838   5848   5850     1   109.8800469 414.216000
   5839   5842   5843     1   109.8000471 387.438400
   5839   5842   5844     1   109.8000471 387.438400
   5840   5839   5842     1   109.5600471 388.275200
   5840   5839   5841     1   108.4600466 328.025600
   5841   5839   5842     1   109.5600471 388.275200
   5843   5842   5845     1   108.7700466 392.459200
   5843   5842   5844     1   107.5800459 329.699200
   5844   5842   5845     1   108.7700466 392.459200
   5848   5851   5852     1   109.8000471 387.438400
   5848   5851   5853     1   109.8000471 387.438400
   5849   5848   5851     1   109.5600471 388.275200
   5849   5848   5850     1   108.4600466 328.025600
   5850   5848   5851     1   109.5600471 388.275200
   5852   5851   5854     1   108.7700466 392.459200
   5852   5851   5853     1   107.5800459 329.699200
   5853   5851   5854     1   108.7700466 392.459200
   5858   5861   5862     1   109.8000471 387.438400
   5858   5861   5863     1   109.8000471 387.438400
   5859   5858   5861     1   109.5600471 388.275200
   5859   5858   5886     1   109.7800468 425.094400
   5859   5858   5860     1   108.4600466 328.025600
   5860   5858   5861     1   109.5600471 388.275200
   5860   5858   5886     1   109.7800468 425.094400
   5861   5864   5865     1   109.5600471 388.275200
   5861   5864   5866     1   109.5600471 388.275200
   5862   5861   5864     1   109.8000471 387.438400
   5862   5861   5863     1   107.5800459 329.699200
   5863   5861   5864     1   109.8000471 387.438400
   5865   5864   5867     1   109.8800469 414.216000
   5865   5864   5866     1   108.4600466 328.025600
   5866   5864   5867     1   109.8800469 414.216000
   5867   5868   5869     1   109.8800469 414.216000
   5867   5868   5870     1   109.8800469 414.216000
   5867   5877   5878     1   109.8800469 414.216000
   5867   5877   5879     1   109.8800469 414.216000
   5868   5871   5872     1   109.8000471 387.438400
   5868   5871   5873     1   109.8000471 387.438400
   5869   5868   5871     1   109.5600471 388.275200
   5869   5868   5870     1   108.4600466 328.025600
   5870   5868   5871     1   109.5600471 388.275200
   5872   5871   5874     1   108.7700466 392.459200
   5872   5871   5873     1   107.5800459 329.699200
   5873   5871   5874     1   108.7700466 392.459200
   5877   5880   5881     1   109.8000471 387.438400
   5877   5880   5882     1   109.8000471 387.438400
   5878   5877   5880     1   109.5600471 388.275200
   5878   5877   5879     1   108.4600466 328.025600
   5879   5877   5880     1   109.5600471 388.275200
   5881   5880   5883     1   108.7700466 392.459200
   5881   5880   5882     1   107.5800459 329.699200
   5882   5880   5883     1   108.7700466 392.459200
   5887   5890   5891     1   109.8000471 387.438400
   5887   5890   5892     1   109.8000471 387.438400
   5888   5887   5890     1   109.5600471 388.275200
   5888   5887   5915     1   109.7800468 425.094400
   5888   5887   5889     1   108.4600466 328.025600
   5889   5887   5890     1   109.5600471 388.275200
   5889   5887   5915     1   109.7800468 425.094400
   5890   5893   5894     1   109.5600471 388.275200
   5890   5893   5895     1   109.5600471 388.275200
   5891   5890   5893     1   109.8000471 387.438400
   5891   5890   5892     1   107.5800459 329.699200
   5892   5890   5893     1   109.8000471 387.438400
   5894   5893   5896     1   109.8800469 414.216000
   5894   5893   5895     1   108.4600466 328.025600
   5895   5893   5896     1   109.8800469 414.216000
   5896   5897   5898     1   109.8800469 414.216000
   5896   5897   5899     1   109.8800469 414.216000
   5896   5906   5907     1   109.8800469 414.216000
   5896   5906   5908     1   109.8800469 414.216000
   5897   5900   5901     1   109.8000471 387.438400
   5897   5900   5902     1   109.8000471 387.438400
   5898   5897   5900     1   109.5600471 388.275200
   5898   5897   5899     1   108.4600466 328.025600
   5899   5897   5900     1   109.5600471 388.275200
   5901   5900   5903     1   108.7700466 392.459200
   5901   5900   5902     1   107.5800459 329.699200
   5902   5900   5903     1   108.7700466 392.459200
   5906   5909   5910     1   109.8000471 387.438400
   5906   5909   5911     1   109.8000471 387.438400
   5907   5906   5909     1   109.5600471 388.275200
   5907   5906   5908     1   108.4600466 328.025600
   5908   5906   5909     1   109.5600471 388.275200
   5910   5909   5912     1   108.7700466 392.459200
   5910   5909   5911     1   107.5800459 329.699200
   5911   5909   5912     1   108.7700466 392.459200
   5916   5919   5920     1   109.8000471 387.438400
   5916   5919   5921     1   109.8000471 387.438400
   5917   5916   5919     1   109.5600471 388.275200
   5917   5916   5944     1   109.7800468 425.094400
   5917   5916   5918     1   108.4600466 328.025600
   5918   5916   5919     1   109.5600471 388.275200
   5918   5916   5944     1   109.7800468 425.094400
   5919   5922   5923     1   109.5600471 388.275200
   5919   5922   5924     1   109.5600471 388.275200
   5920   5919   5922     1   109.8000471 387.438400
   5920   5919   5921     1   107.5800459 329.699200
   5921   5919   5922     1   109.8000471 387.438400
   5923   5922   5925     1   109.8800469 414.216000
   5923   5922   5924     1   108.4600466 328.025600
   5924   5922   5925     1   109.8800469 414.216000
   5925   5926   5927     1   109.8800469 414.216000
   5925   5926   5928     1   109.8800469 414.216000
   5925   5935   5936     1   109.8800469 414.216000
   5925   5935   5937     1   109.8800469 414.216000
   5926   5929   5930     1   109.8000471 387.438400
   5926   5929   5931     1   109.8000471 387.438400
   5927   5926   5929     1   109.5600471 388.275200
   5927   5926   5928     1   108.4600466 328.025600
   5928   5926   5929     1   109.5600471 388.275200
   5930   5929   5932     1   108.7700466 392.459200
   5930   5929   5931     1   107.5800459 329.699200
   5931   5929   5932     1   108.7700466 392.459200
   5935   5938   5939     1   109.8000471 387.438400
   5935   5938   5940     1   109.8000471 387.438400
   5936   5935   5938     1   109.5600471 388.275200
   5936   5935   5937     1   108.4600466 328.025600
   5937   5935   5938     1   109.5600471 388.275200
   5939   5938   5941     1   108.7700466 392.459200
   5939   5938   5940     1   107.5800459 329.699200
   5940   5938   5941     1   108.7700466 392.459200
   5945   5948   5949     1   109.8000471 387.438400
   5945   5948   5950     1   109.8000471 387.438400
   5946   5945   5948     1   109.5600471 388.275200
   5946   5945   5973     1   109.7800468 425.094400
   5946   5945   5947     1   108.4600466 328.025600
   5947   5945   5948     1   109.5600471 388.275200
   5947   5945   5973     1   109.7800468 425.094400
   5948   5951   5952     1   109.5600471 388.275200
   5948   5951   5953     1   109.5600471 388.275200
   5949   5948   5951     1   109.8000471 387.438400
   5949   5948   5950     1   107.5800459 329.699200
   5950   5948   5951     1   109.8000471 387.438400
   5952   5951   5954     1   109.8800469 414.216000
   5952   5951   5953     1   108.4600466 328.025600
   5953   5951   5954     1   109.8800469 414.216000
   5954   5955   5956     1   109.8800469 414.216000
   5954   5955   5957     1   109.8800469 414.216000
   5954   5964   5965     1   109.8800469 414.216000
   5954   5964   5966     1   109.8800469 414.216000
   5955   5958   5959     1   109.8000471 387.438400
   5955   5958   5960     1   109.8000471 387.438400
   5956   5955   5958     1   109.5600471 388.275200
   5956   5955   5957     1   108.4600466 328.025600
   5957   5955   5958     1   109.5600471 388.275200
   5959   5958   5961     1   108.7700466 392.459200
   5959   5958   5960     1   107.5800459 329.699200
   5960   5958   5961     1   108.7700466 392.459200
   5964   5967   5968     1   109.8000471 387.438400
   5964   5967   5969     1   109.8000471 387.438400
   5965   5964   5967     1   109.5600471 388.275200
   5965   5964   5966     1   108.4600466 328.025600
   5966   5964   5967     1   109.5600471 388.275200
   5968   5967   5970     1   108.7700466 392.459200
   5968   5967   5969     1   107.5800459 329.699200
   5969   5967   5970     1   108.7700466 392.459200
   5974   5977   5978     1   109.8000471 387.438400
   5974   5977   5979     1   109.8000471 387.438400
   5975   5974   5977     1   109.5600471 388.275200
   5975   5974   6002     1   109.7800468 425.094400
   5975   5974   5976     1   108.4600466 328.025600
   5976   5974   5977     1   109.5600471 388.275200
   5976   5974   6002     1   109.7800468 425.094400
   5977   5980   5981     1   109.5600471 388.275200
   5977   5980   5982     1   109.5600471 388.275200
   5978   5977   5980     1   109.8000471 387.438400
   5978   5977   5979     1   107.5800459 329.699200
   5979   5977   5980     1   109.8000471 387.438400
   5981   5980   5983     1   109.8800469 414.216000
   5981   5980   5982     1   108.4600466 328.025600
   5982   5980   5983     1   109.8800469 414.216000
   5983   5984   5985     1   109.8800469 414.216000
   5983   5984   5986     1   109.8800469 414.216000
   5983   5993   5994     1   109.8800469 414.216000
   5983   5993   5995     1   109.8800469 414.216000
   5984   5987   5988     1   109.8000471 387.438400
   5984   5987   5989     1   109.8000471 387.438400
   5985   5984   5987     1   109.5600471 388.275200
   5985   5984   5986     1   108.4600466 328.025600
   5986   5984   5987     1   109.5600471 388.275200
   5988   5987   5990     1   108.7700466 392.459200
   5988   5987   5989     1   107.5800459 329.699200
   5989   5987   5990     1   108.7700466 392.459200
   5993   5996   5997     1   109.8000471 387.438400
   5993   5996   5998     1   109.8000471 387.438400
   5994   5993   5996     1   109.5600471 388.275200
   5994   5993   5995     1   108.4600466 328.025600
   5995   5993   5996     1   109.5600471 388.275200
   5997   5996   5999     1   108.7700466 392.459200
   5997   5996   5998     1   107.5800459 329.699200
   5998   5996   5999     1   108.7700466 392.459200
   6003   6006   6007     1   109.8000471 387.438400
   6003   6006   6008     1   109.8000471 387.438400
   6004   6003   6006     1   109.5600471 388.275200
   6004   6003   6031     1   109.7800468 425.094400
   6004   6003   6005     1   108.4600466 328.025600
   6005   6003   6006     1   109.5600471 388.275200
   6005   6003   6031     1   109.7800468 425.094400
   6006   6009   6010     1   109.5600471 388.275200
   6006   6009   6011     1   109.5600471 388.275200
   6007   6006   6009     1   109.8000471 387.438400
   6007   6006   6008     1   107.5800459 329.699200
   6008   6006   6009     1   109.8000471 387.438400
   6010   6009   6012     1   109.8800469 414.216000
   6010   6009   6011     1   108.4600466 328.025600
   6011   6009   6012     1   109.8800469 414.216000
   6012   6013   6014     1   109.8800469 414.216000
   6012   6013   6015     1   109.8800469 414.216000
   6012   6022   6023     1   109.8800469 414.216000
   6012   6022   6024     1   109.8800469 414.216000
   6013   6016   6017     1   109.8000471 387.438400
   6013   6016   6018     1   109.8000471 387.438400
   6014   6013   6016     1   109.5600471 388.275200
   6014   6013   6015     1   108.4600466 328.025600
   6015   6013   6016     1   109.5600471 388.275200
   6017   6016   6019     1   108.7700466 392.459200
   6017   6016   6018     1   107.5800459 329.699200
   6018   6016   6019     1   108.7700466 392.459200
   6022   6025   6026     1   109.8000471 387.438400
   6022   6025   6027     1   109.8000471 387.438400
   6023   6022   6025     1   109.5600471 388.275200
   6023   6022   6024     1   108.4600466 328.025600
   6024   6022   6025     1   109.5600471 388.275200
   6026   6025   6028     1   108.7700466 392.459200
   6026   6025   6027     1   107.5800459 329.699200
   6027   6025   6028     1   108.7700466 392.459200
   6032   6035   6036     1   109.8000471 387.438400
   6032   6035   6037     1   109.8000471 387.438400
   6033   6032   6035     1   109.5600471 388.275200
   6033   6032   6060     1   109.7800468 425.094400
   6033   6032   6034     1   108.4600466 328.025600
   6034   6032   6035     1   109.5600471 388.275200
   6034   6032   6060     1   109.7800468 425.094400
   6035   6038   6039     1   109.5600471 388.275200
   6035   6038   6040     1   109.5600471 388.275200
   6036   6035   6038     1   109.8000471 387.438400
   6036   6035   6037     1   107.5800459 329.699200
   6037   6035   6038     1   109.8000471 387.438400
   6039   6038   6041     1   109.8800469 414.216000
   6039   6038   6040     1   108.4600466 328.025600
   6040   6038   6041     1   109.8800469 414.216000
   6041   6042   6043     1   109.8800469 414.216000
   6041   6042   6044     1   109.8800469 414.216000
   6041   6051   6052     1   109.8800469 414.216000
   6041   6051   6053     1   109.8800469 414.216000
   6042   6045   6046     1   109.8000471 387.438400
   6042   6045   6047     1   109.8000471 387.438400
   6043   6042   6045     1   109.5600471 388.275200
   6043   6042   6044     1   108.4600466 328.025600
   6044   6042   6045     1   109.5600471 388.275200
   6046   6045   6048     1   108.7700466 392.459200
   6046   6045   6047     1   107.5800459 329.699200
   6047   6045   6048     1   108.7700466 392.459200
   6051   6054   6055     1   109.8000471 387.438400
   6051   6054   6056     1   109.8000471 387.438400
   6052   6051   6054     1   109.5600471 388.275200
   6052   6051   6053     1   108.4600466 328.025600
   6053   6051   6054     1   109.5600471 388.275200
   6055   6054   6057     1   108.7700466 392.459200
   6055   6054   6056     1   107.5800459 329.699200
   6056   6054   6057     1   108.7700466 392.459200
   6061   6064   6065     1   109.8000471 387.438400
   6061   6064   6066     1   109.8000471 387.438400
   6062   6061   6064     1   109.5600471 388.275200
   6062   6061   6089     1   109.7800468 425.094400
   6062   6061   6063     1   108.4600466 328.025600
   6063   6061   6064     1   109.5600471 388.275200
   6063   6061   6089     1   109.7800468 425.094400
   6064   6067   6068     1   109.5600471 388.275200
   6064   6067   6069     1   109.5600471 388.275200
   6065   6064   6067     1   109.8000471 387.438400
   6065   6064   6066     1   107.5800459 329.699200
   6066   6064   6067     1   109.8000471 387.438400
   6068   6067   6070     1   109.8800469 414.216000
   6068   6067   6069     1   108.4600466 328.025600
   6069   6067   6070     1   109.8800469 414.216000
   6070   6071   6072     1   109.8800469 414.216000
   6070   6071   6073     1   109.8800469 414.216000
   6070   6080   6081     1   109.8800469 414.216000
   6070   6080   6082     1   109.8800469 414.216000
   6071   6074   6075     1   109.8000471 387.438400
   6071   6074   6076     1   109.8000471 387.438400
   6072   6071   6074     1   109.5600471 388.275200
   6072   6071   6073     1   108.4600466 328.025600
   6073   6071   6074     1   109.5600471 388.275200
   6075   6074   6077     1   108.7700466 392.459200
   6075   6074   6076     1   107.5800459 329.699200
   6076   6074   6077     1   108.7700466 392.459200
   6080   6083   6084     1   109.8000471 387.438400
   6080   6083   6085     1   109.8000471 387.438400
   6081   6080   6083     1   109.5600471 388.275200
   6081   6080   6082     1   108.4600466 328.025600
   6082   6080   6083     1   109.5600471 388.275200
   6084   6083   6086     1   108.7700466 392.459200
   6084   6083   6085     1   107.5800459 329.699200
   6085   6083   6086     1   108.7700466 392.459200
   6090   6093   6094     1   109.8000471 387.438400
   6090   6093   6095     1   109.8000471 387.438400
   6091   6090   6093     1   109.5600471 388.275200
   6091   6090   6118     1   109.7800468 425.094400
   6091   6090   6092     1   108.4600466 328.025600
   6092   6090   6093     1   109.5600471 388.275200
   6092   6090   6118     1   109.7800468 425.094400
   6093   6096   6097     1   109.5600471 388.275200
   6093   6096   6098     1   109.5600471 388.275200
   6094   6093   6096     1   109.8000471 387.438400
   6094   6093   6095     1   107.5800459 329.699200
   6095   6093   6096     1   109.8000471 387.438400
   6097   6096   6099     1   109.8800469 414.216000
   6097   6096   6098     1   108.4600466 328.025600
   6098   6096   6099     1   109.8800469 414.216000
   6099   6100   6101     1   109.8800469 414.216000
   6099   6100   6102     1   109.8800469 414.216000
   6099   6109   6110     1   109.8800469 414.216000
   6099   6109   6111     1   109.8800469 414.216000
   6100   6103   6104     1   109.8000471 387.438400
   6100   6103   6105     1   109.8000471 387.438400
   6101   6100   6103     1   109.5600471 388.275200
   6101   6100   6102     1   108.4600466 328.025600
   6102   6100   6103     1   109.5600471 388.275200
   6104   6103   6106     1   108.7700466 392.459200
   6104   6103   6105     1   107.5800459 329.699200
   6105   6103   6106     1   108.7700466 392.459200
   6109   6112   6113     1   109.8000471 387.438400
   6109   6112   6114     1   109.8000471 387.438400
   6110   6109   6112     1   109.5600471 388.275200
   6110   6109   6111     1   108.4600466 328.025600
   6111   6109   6112     1   109.5600471 388.275200
   6113   6112   6115     1   108.7700466 392.459200
   6113   6112   6114     1   107.5800459 329.699200
   6114   6112   6115     1   108.7700466 392.459200
   6119   6122   6123     1   109.8000471 387.438400
   6119   6122   6124     1   109.8000471 387.438400
   6120   6119   6122     1   109.5600471 388.275200
   6120   6119   6147     1   109.7800468 425.094400
   6120   6119   6121     1   108.4600466 328.025600
   6121   6119   6122     1   109.5600471 388.275200
   6121   6119   6147     1   109.7800468 425.094400
   6122   6125   6126     1   109.5600471 388.275200
   6122   6125   6127     1   109.5600471 388.275200
   6123   6122   6125     1   109.8000471 387.438400
   6123   6122   6124     1   107.5800459 329.699200
   6124   6122   6125     1   109.8000471 387.438400
   6126   6125   6128     1   109.8800469 414.216000
   6126   6125   6127     1   108.4600466 328.025600
   6127   6125   6128     1   109.8800469 414.216000
   6128   6129   6130     1   109.8800469 414.216000
   6128   6129   6131     1   109.8800469 414.216000
   6128   6138   6139     1   109.8800469 414.216000
   6128   6138   6140     1   109.8800469 414.216000
   6129   6132   6133     1   109.8000471 387.438400
   6129   6132   6134     1   109.8000471 387.438400
   6130   6129   6132     1   109.5600471 388.275200
   6130   6129   6131     1   108.4600466 328.025600
   6131   6129   6132     1   109.5600471 388.275200
   6133   6132   6135     1   108.7700466 392.459200
   6133   6132   6134     1   107.5800459 329.699200
   6134   6132   6135     1   108.7700466 392.459200
   6138   6141   6142     1   109.8000471 387.438400
   6138   6141   6143     1   109.8000471 387.438400
   6139   6138   6141     1   109.5600471 388.275200
   6139   6138   6140     1   108.4600466 328.025600
   6140   6138   6141     1   109.5600471 388.275200
   6142   6141   6144     1   108.7700466 392.459200
   6142   6141   6143     1   107.5800459 329.699200
   6143   6141   6144     1   108.7700466 392.459200
   6148   6151   6152     1   109.8000471 387.438400
   6148   6151   6153     1   109.8000471 387.438400
   6149   6148   6151     1   109.5600471 388.275200
   6149   6148   6176     1   109.7800468 425.094400
   6149   6148   6150     1   108.4600466 328.025600
   6150   6148   6151     1   109.5600471 388.275200
   6150   6148   6176     1   109.7800468 425.094400
   6151   6154   6155     1   109.5600471 388.275200
   6151   6154   6156     1   109.5600471 388.275200
   6152   6151   6154     1   109.8000471 387.438400
   6152   6151   6153     1   107.5800459 329.699200
   6153   6151   6154     1   109.8000471 387.438400
   6155   6154   6157     1   109.8800469 414.216000
   6155   6154   6156     1   108.4600466 328.025600
   6156   6154   6157     1   109.8800469 414.216000
   6157   6158   6159     1   109.8800469 414.216000
   6157   6158   6160     1   109.8800469 414.216000
   6157   6167   6168     1   109.8800469 414.216000
   6157   6167   6169     1   109.8800469 414.216000
   6158   6161   6162     1   109.8000471 387.438400
   6158   6161   6163     1   109.8000471 387.438400
   6159   6158   6161     1   109.5600471 388.275200
   6159   6158   6160     1   108.4600466 328.025600
   6160   6158   6161     1   109.5600471 388.275200
   6162   6161   6164     1   108.7700466 392.459200
   6162   6161   6163     1   107.5800459 329.699200
   6163   6161   6164     1   108.7700466 392.459200
   6167   6170   6171     1   109.8000471 387.438400
   6167   6170   6172     1   109.8000471 387.438400
   6168   6167   6170     1   109.5600471 388.275200
   6168   6167   6169     1   108.4600466 328.025600
   6169   6167   6170     1   109.5600471 388.275200
   6171   6170   6173     1   108.7700466 392.459200
   6171   6170   6172     1   107.5800459 329.699200
   6172   6170   6173     1   108.7700466 392.459200
   6177   6180   6181     1   109.8000471 387.438400
   6177   6180   6182     1   109.8000471 387.438400
   6178   6177   6180     1   109.5600471 388.275200
   6178   6177   6205     1   109.7800468 425.094400
   6178   6177   6179     1   108.4600466 328.025600
   6179   6177   6180     1   109.5600471 388.275200
   6179   6177   6205     1   109.7800468 425.094400
   6180   6183   6184     1   109.5600471 388.275200
   6180   6183   6185     1   109.5600471 388.275200
   6181   6180   6183     1   109.8000471 387.438400
   6181   6180   6182     1   107.5800459 329.699200
   6182   6180   6183     1   109.8000471 387.438400
   6184   6183   6186     1   109.8800469 414.216000
   6184   6183   6185     1   108.4600466 328.025600
   6185   6183   6186     1   109.8800469 414.216000
   6186   6187   6188     1   109.8800469 414.216000
   6186   6187   6189     1   109.8800469 414.216000
   6186   6196   6197     1   109.8800469 414.216000
   6186   6196   6198     1   109.8800469 414.216000
   6187   6190   6191     1   109.8000471 387.438400
   6187   6190   6192     1   109.8000471 387.438400
   6188   6187   6190     1   109.5600471 388.275200
   6188   6187   6189     1   108.4600466 328.025600
   6189   6187   6190     1   109.5600471 388.275200
   6191   6190   6193     1   108.7700466 392.459200
   6191   6190   6192     1   107.5800459 329.699200
   6192   6190   6193     1   108.7700466 392.459200
   6196   6199   6200     1   109.8000471 387.438400
   6196   6199   6201     1   109.8000471 387.438400
   6197   6196   6199     1   109.5600471 388.275200
   6197   6196   6198     1   108.4600466 328.025600
   6198   6196   6199     1   109.5600471 388.275200
   6200   6199   6202     1   108.7700466 392.459200
   6200   6199   6201     1   107.5800459 329.699200
   6201   6199   6202     1   108.7700466 392.459200
   6206   6209   6210     1   109.8000471 387.438400
   6206   6209   6211     1   109.8000471 387.438400
   6207   6206   6209     1   109.5600471 388.275200
   6207   6206   6234     1   109.7800468 425.094400
   6207   6206   6208     1   108.4600466 328.025600
   6208   6206   6209     1   109.5600471 388.275200
   6208   6206   6234     1   109.7800468 425.094400
   6209   6212   6213     1   109.5600471 388.275200
   6209   6212   6214     1   109.5600471 388.275200
   6210   6209   6212     1   109.8000471 387.438400
   6210   6209   6211     1   107.5800459 329.699200
   6211   6209   6212     1   109.8000471 387.438400
   6213   6212   6215     1   109.8800469 414.216000
   6213   6212   6214     1   108.4600466 328.025600
   6214   6212   6215     1   109.8800469 414.216000
   6215   6216   6217     1   109.8800469 414.216000
   6215   6216   6218     1   109.8800469 414.216000
   6215   6225   6226     1   109.8800469 414.216000
   6215   6225   6227     1   109.8800469 414.216000
   6216   6219   6220     1   109.8000471 387.438400
   6216   6219   6221     1   109.8000471 387.438400
   6217   6216   6219     1   109.5600471 388.275200
   6217   6216   6218     1   108.4600466 328.025600
   6218   6216   6219     1   109.5600471 388.275200
   6220   6219   6222     1   108.7700466 392.459200
   6220   6219   6221     1   107.5800459 329.699200
   6221   6219   6222     1   108.7700466 392.459200
   6225   6228   6229     1   109.8000471 387.438400
   6225   6228   6230     1   109.8000471 387.438400
   6226   6225   6228     1   109.5600471 388.275200
   6226   6225   6227     1   108.4600466 328.025600
   6227   6225   6228     1   109.5600471 388.275200
   6229   6228   6231     1   108.7700466 392.459200
   6229   6228   6230     1   107.5800459 329.699200
   6230   6228   6231     1   108.7700466 392.459200
   6235   6238   6239     1   109.8000471 387.438400
   6235   6238   6240     1   109.8000471 387.438400
   6236   6235   6238     1   109.5600471 388.275200
   6236   6235   6263     1   109.7800468 425.094400
   6236   6235   6237     1   108.4600466 328.025600
   6237   6235   6238     1   109.5600471 388.275200
   6237   6235   6263     1   109.7800468 425.094400
   6238   6241   6242     1   109.5600471 388.275200
   6238   6241   6243     1   109.5600471 388.275200
   6239   6238   6241     1   109.8000471 387.438400
   6239   6238   6240     1   107.5800459 329.699200
   6240   6238   6241     1   109.8000471 387.438400
   6242   6241   6244     1   109.8800469 414.216000
   6242   6241   6243     1   108.4600466 328.025600
   6243   6241   6244     1   109.8800469 414.216000
   6244   6245   6246     1   109.8800469 414.216000
   6244   6245   6247     1   109.8800469 414.216000
   6244   6254   6255     1   109.8800469 414.216000
   6244   6254   6256     1   109.8800469 414.216000
   6245   6248   6249     1   109.8000471 387.438400
   6245   6248   6250     1   109.8000471 387.438400
   6246   6245   6248     1   109.5600471 388.275200
   6246   6245   6247     1   108.4600466 328.025600
   6247   6245   6248     1   109.5600471 388.275200
   6249   6248   6251     1   108.7700466 392.459200
   6249   6248   6250     1   107.5800459 329.699200
   6250   6248   6251     1   108.7700466 392.459200
   6254   6257   6258     1   109.8000471 387.438400
   6254   6257   6259     1   109.8000471 387.438400
   6255   6254   6257     1   109.5600471 388.275200
   6255   6254   6256     1   108.4600466 328.025600
   6256   6254   6257     1   109.5600471 388.275200
   6258   6257   6260     1   108.7700466 392.459200
   6258   6257   6259     1   107.5800459 329.699200
   6259   6257   6260     1   108.7700466 392.459200
   6264   6267   6268     1   109.8000471 387.438400
   6264   6267   6269     1   109.8000471 387.438400
   6265   6264   6267     1   109.5600471 388.275200
   6265   6264   6292     1   109.7800468 425.094400
   6265   6264   6266     1   108.4600466 328.025600
   6266   6264   6267     1   109.5600471 388.275200
   6266   6264   6292     1   109.7800468 425.094400
   6267   6270   6271     1   109.5600471 388.275200
   6267   6270   6272     1   109.5600471 388.275200
   6268   6267   6270     1   109.8000471 387.438400
   6268   6267   6269     1   107.5800459 329.699200
   6269   6267   6270     1   109.8000471 387.438400
   6271   6270   6273     1   109.8800469 414.216000
   6271   6270   6272     1   108.4600466 328.025600
   6272   6270   6273     1   109.8800469 414.216000
   6273   6274   6275     1   109.8800469 414.216000
   6273   6274   6276     1   109.8800469 414.216000
   6273   6283   6284     1   109.8800469 414.216000
   6273   6283   6285     1   109.8800469 414.216000
   6274   6277   6278     1   109.8000471 387.438400
   6274   6277   6279     1   109.8000471 387.438400
   6275   6274   6277     1   109.5600471 388.275200
   6275   6274   6276     1   108.4600466 328.025600
   6276   6274   6277     1   109.5600471 388.275200
   6278   6277   6280     1   108.7700466 392.459200
   6278   6277   6279     1   107.5800459 329.699200
   6279   6277   6280     1   108.7700466 392.459200
   6283   6286   6287     1   109.8000471 387.438400
   6283   6286   6288     1   109.8000471 387.438400
   6284   6283   6286     1   109.5600471 388.275200
   6284   6283   6285     1   108.4600466 328.025600
   6285   6283   6286     1   109.5600471 388.275200
   6287   6286   6289     1   108.7700466 392.459200
   6287   6286   6288     1   107.5800459 329.699200
   6288   6286   6289     1   108.7700466 392.459200
   6293   6296   6297     1   109.8000471 387.438400
   6293   6296   6298     1   109.8000471 387.438400
   6294   6293   6296     1   109.5600471 388.275200
   6294   6293   6321     1   109.7800468 425.094400
   6294   6293   6295     1   108.4600466 328.025600
   6295   6293   6296     1   109.5600471 388.275200
   6295   6293   6321     1   109.7800468 425.094400
   6296   6299   6300     1   109.5600471 388.275200
   6296   6299   6301     1   109.5600471 388.275200
   6297   6296   6299     1   109.8000471 387.438400
   6297   6296   6298     1   107.5800459 329.699200
   6298   6296   6299     1   109.8000471 387.438400
   6300   6299   6302     1   109.8800469 414.216000
   6300   6299   6301     1   108.4600466 328.025600
   6301   6299   6302     1   109.8800469 414.216000
   6302   6303   6304     1   109.8800469 414.216000
   6302   6303   6305     1   109.8800469 414.216000
   6302   6312   6313     1   109.8800469 414.216000
   6302   6312   6314     1   109.8800469 414.216000
   6303   6306   6307     1   109.8000471 387.438400
   6303   6306   6308     1   109.8000471 387.438400
   6304   6303   6306     1   109.5600471 388.275200
   6304   6303   6305     1   108.4600466 328.025600
   6305   6303   6306     1   109.5600471 388.275200
   6307   6306   6309     1   108.7700466 392.459200
   6307   6306   6308     1   107.5800459 329.699200
   6308   6306   6309     1   108.7700466 392.459200
   6312   6315   6316     1   109.8000471 387.438400
   6312   6315   6317     1   109.8000471 387.438400
   6313   6312   6315     1   109.5600471 388.275200
   6313   6312   6314     1   108.4600466 328.025600
   6314   6312   6315     1   109.5600471 388.275200
   6316   6315   6318     1   108.7700466 392.459200
   6316   6315   6317     1   107.5800459 329.699200
   6317   6315   6318     1   108.7700466 392.459200
   6322   6325   6326     1   109.8000471 387.438400
   6322   6325   6327     1   109.8000471 387.438400
   6323   6322   6325     1   109.5600471 388.275200
   6323   6322   6350     1   109.7800468 425.094400
   6323   6322   6324     1   108.4600466 328.025600
   6324   6322   6325     1   109.5600471 388.275200
   6324   6322   6350     1   109.7800468 425.094400
   6325   6328   6329     1   109.5600471 388.275200
   6325   6328   6330     1   109.5600471 388.275200
   6326   6325   6328     1   109.8000471 387.438400
   6326   6325   6327     1   107.5800459 329.699200
   6327   6325   6328     1   109.8000471 387.438400
   6329   6328   6331     1   109.8800469 414.216000
   6329   6328   6330     1   108.4600466 328.025600
   6330   6328   6331     1   109.8800469 414.216000
   6331   6332   6333     1   109.8800469 414.216000
   6331   6332   6334     1   109.8800469 414.216000
   6331   6341   6342     1   109.8800469 414.216000
   6331   6341   6343     1   109.8800469 414.216000
   6332   6335   6336     1   109.8000471 387.438400
   6332   6335   6337     1   109.8000471 387.438400
   6333   6332   6335     1   109.5600471 388.275200
   6333   6332   6334     1   108.4600466 328.025600
   6334   6332   6335     1   109.5600471 388.275200
   6336   6335   6338     1   108.7700466 392.459200
   6336   6335   6337     1   107.5800459 329.699200
   6337   6335   6338     1   108.7700466 392.459200
   6341   6344   6345     1   109.8000471 387.438400
   6341   6344   6346     1   109.8000471 387.438400
   6342   6341   6344     1   109.5600471 388.275200
   6342   6341   6343     1   108.4600466 328.025600
   6343   6341   6344     1   109.5600471 388.275200
   6345   6344   6347     1   108.7700466 392.459200
   6345   6344   6346     1   107.5800459 329.699200
   6346   6344   6347     1   108.7700466 392.459200
   6351   6354   6355     1   109.8000471 387.438400
   6351   6354   6356     1   109.8000471 387.438400
   6352   6351   6354     1   109.5600471 388.275200
   6352   6351   6379     1   109.7800468 425.094400
   6352   6351   6353     1   108.4600466 328.025600
   6353   6351   6354     1   109.5600471 388.275200
   6353   6351   6379     1   109.7800468 425.094400
   6354   6357   6358     1   109.5600471 388.275200
   6354   6357   6359     1   109.5600471 388.275200
   6355   6354   6357     1   109.8000471 387.438400
   6355   6354   6356     1   107.5800459 329.699200
   6356   6354   6357     1   109.8000471 387.438400
   6358   6357   6360     1   109.8800469 414.216000
   6358   6357   6359     1   108.4600466 328.025600
   6359   6357   6360     1   109.8800469 414.216000
   6360   6361   6362     1   109.8800469 414.216000
   6360   6361   6363     1   109.8800469 414.216000
   6360   6370   6371     1   109.8800469 414.216000
   6360   6370   6372     1   109.8800469 414.216000
   6361   6364   6365     1   109.8000471 387.438400
   6361   6364   6366     1   109.8000471 387.438400
   6362   6361   6364     1   109.5600471 388.275200
   6362   6361   6363     1   108.4600466 328.025600
   6363   6361   6364     1   109.5600471 388.275200
   6365   6364   6367     1   108.7700466 392.459200
   6365   6364   6366     1   107.5800459 329.699200
   6366   6364   6367     1   108.7700466 392.459200
   6370   6373   6374     1   109.8000471 387.438400
   6370   6373   6375     1   109.8000471 387.438400
   6371   6370   6373     1   109.5600471 388.275200
   6371   6370   6372     1   108.4600466 328.025600
   6372   6370   6373     1   109.5600471 388.275200
   6374   6373   6376     1   108.7700466 392.459200
   6374   6373   6375     1   107.5800459 329.699200
   6375   6373   6376     1   108.7700466 392.459200
   6380   6383   6384     1   109.8000471 387.438400
   6380   6383   6385     1   109.8000471 387.438400
   6381   6380   6383     1   109.5600471 388.275200
   6381   6380   6408     1   109.7800468 425.094400
   6381   6380   6382     1   108.4600466 328.025600
   6382   6380   6383     1   109.5600471 388.275200
   6382   6380   6408     1   109.7800468 425.094400
   6383   6386   6387     1   109.5600471 388.275200
   6383   6386   6388     1   109.5600471 388.275200
   6384   6383   6386     1   109.8000471 387.438400
   6384   6383   6385     1   107.5800459 329.699200
   6385   6383   6386     1   109.8000471 387.438400
   6387   6386   6389     1   109.8800469 414.216000
   6387   6386   6388     1   108.4600466 328.025600
   6388   6386   6389     1   109.8800469 414.216000
   6389   6390   6391     1   109.8800469 414.216000
   6389   6390   6392     1   109.8800469 414.216000
   6389   6399   6400     1   109.8800469 414.216000
   6389   6399   6401     1   109.8800469 414.216000
   6390   6393   6394     1   109.8000471 387.438400
   6390   6393   6395     1   109.8000471 387.438400
   6391   6390   6393     1   109.5600471 388.275200
   6391   6390   6392     1   108.4600466 328.025600
   6392   6390   6393     1   109.5600471 388.275200
   6394   6393   6396     1   108.7700466 392.459200
   6394   6393   6395     1   107.5800459 329.699200
   6395   6393   6396     1   108.7700466 392.459200
   6399   6402   6403     1   109.8000471 387.438400
   6399   6402   6404     1   109.8000471 387.438400
   6400   6399   6402     1   109.5600471 388.275200
   6400   6399   6401     1   108.4600466 328.025600
   6401   6399   6402     1   109.5600471 388.275200
   6403   6402   6405     1   108.7700466 392.459200
   6403   6402   6404     1   107.5800459 329.699200
   6404   6402   6405     1   108.7700466 392.459200
   6409   6412   6413     1   109.8000471 387.438400
   6409   6412   6414     1   109.8000471 387.438400
   6410   6409   6412     1   109.5600471 388.275200
   6410   6409   6437     1   109.7800468 425.094400
   6410   6409   6411     1   108.4600466 328.025600
   6411   6409   6412     1   109.5600471 388.275200
   6411   6409   6437     1   109.7800468 425.094400
   6412   6415   6416     1   109.5600471 388.275200
   6412   6415   6417     1   109.5600471 388.275200
   6413   6412   6415     1   109.8000471 387.438400
   6413   6412   6414     1   107.5800459 329.699200
   6414   6412   6415     1   109.8000471 387.438400
   6416   6415   6418     1   109.8800469 414.216000
   6416   6415   6417     1   108.4600466 328.025600
   6417   6415   6418     1   109.8800469 414.216000
   6418   6419   6420     1   109.8800469 414.216000
   6418   6419   6421     1   109.8800469 414.216000
   6418   6428   6429     1   109.8800469 414.216000
   6418   6428   6430     1   109.8800469 414.216000
   6419   6422   6423     1   109.8000471 387.438400
   6419   6422   6424     1   109.8000471 387.438400
   6420   6419   6422     1   109.5600471 388.275200
   6420   6419   6421     1   108.4600466 328.025600
   6421   6419   6422     1   109.5600471 388.275200
   6423   6422   6425     1   108.7700466 392.459200
   6423   6422   6424     1   107.5800459 329.699200
   6424   6422   6425     1   108.7700466 392.459200
   6428   6431   6432     1   109.8000471 387.438400
   6428   6431   6433     1   109.8000471 387.438400
   6429   6428   6431     1   109.5600471 388.275200
   6429   6428   6430     1   108.4600466 328.025600
   6430   6428   6431     1   109.5600471 388.275200
   6432   6431   6434     1   108.7700466 392.459200
   6432   6431   6433     1   107.5800459 329.699200
   6433   6431   6434     1   108.7700466 392.459200
   6438   6441   6442     1   109.8000471 387.438400
   6438   6441   6443     1   109.8000471 387.438400
   6439   6438   6441     1   109.5600471 388.275200
   6439   6438   6466     1   109.7800468 425.094400
   6439   6438   6440     1   108.4600466 328.025600
   6440   6438   6441     1   109.5600471 388.275200
   6440   6438   6466     1   109.7800468 425.094400
   6441   6444   6445     1   109.5600471 388.275200
   6441   6444   6446     1   109.5600471 388.275200
   6442   6441   6444     1   109.8000471 387.438400
   6442   6441   6443     1   107.5800459 329.699200
   6443   6441   6444     1   109.8000471 387.438400
   6445   6444   6447     1   109.8800469 414.216000
   6445   6444   6446     1   108.4600466 328.025600
   6446   6444   6447     1   109.8800469 414.216000
   6447   6448   6449     1   109.8800469 414.216000
   6447   6448   6450     1   109.8800469 414.216000
   6447   6457   6458     1   109.8800469 414.216000
   6447   6457   6459     1   109.8800469 414.216000
   6448   6451   6452     1   109.8000471 387.438400
   6448   6451   6453     1   109.8000471 387.438400
   6449   6448   6451     1   109.5600471 388.275200
   6449   6448   6450     1   108.4600466 328.025600
   6450   6448   6451     1   109.5600471 388.275200
   6452   6451   6454     1   108.7700466 392.459200
   6452   6451   6453     1   107.5800459 329.699200
   6453   6451   6454     1   108.7700466 392.459200
   6457   6460   6461     1   109.8000471 387.438400
   6457   6460   6462     1   109.8000471 387.438400
   6458   6457   6460     1   109.5600471 388.275200
   6458   6457   6459     1   108.4600466 328.025600
   6459   6457   6460     1   109.5600471 388.275200
   6461   6460   6463     1   108.7700466 392.459200
   6461   6460   6462     1   107.5800459 329.699200
   6462   6460   6463     1   108.7700466 392.459200
   6467   6470   6471     1   109.8000471 387.438400
   6467   6470   6472     1   109.8000471 387.438400
   6468   6467   6470     1   109.5600471 388.275200
   6468   6467   6495     1   109.7800468 425.094400
   6468   6467   6469     1   108.4600466 328.025600
   6469   6467   6470     1   109.5600471 388.275200
   6469   6467   6495     1   109.7800468 425.094400
   6470   6473   6474     1   109.5600471 388.275200
   6470   6473   6475     1   109.5600471 388.275200
   6471   6470   6473     1   109.8000471 387.438400
   6471   6470   6472     1   107.5800459 329.699200
   6472   6470   6473     1   109.8000471 387.438400
   6474   6473   6476     1   109.8800469 414.216000
   6474   6473   6475     1   108.4600466 328.025600
   6475   6473   6476     1   109.8800469 414.216000
   6476   6477   6478     1   109.8800469 414.216000
   6476   6477   6479     1   109.8800469 414.216000
   6476   6486   6487     1   109.8800469 414.216000
   6476   6486   6488     1   109.8800469 414.216000
   6477   6480   6481     1   109.8000471 387.438400
   6477   6480   6482     1   109.8000471 387.438400
   6478   6477   6480     1   109.5600471 388.275200
   6478   6477   6479     1   108.4600466 328.025600
   6479   6477   6480     1   109.5600471 388.275200
   6481   6480   6483     1   108.7700466 392.459200
   6481   6480   6482     1   107.5800459 329.699200
   6482   6480   6483     1   108.7700466 392.459200
   6486   6489   6490     1   109.8000471 387.438400
   6486   6489   6491     1   109.8000471 387.438400
   6487   6486   6489     1   109.5600471 388.275200
   6487   6486   6488     1   108.4600466 328.025600
   6488   6486   6489     1   109.5600471 388.275200
   6490   6489   6492     1   108.7700466 392.459200
   6490   6489   6491     1   107.5800459 329.699200
   6491   6489   6492     1   108.7700466 392.459200
   6496   6499   6500     1   109.8000471 387.438400
   6496   6499   6501     1   109.8000471 387.438400
   6497   6496   6499     1   109.5600471 388.275200
   6497   6496   6524     1   109.7800468 425.094400
   6497   6496   6498     1   108.4600466 328.025600
   6498   6496   6499     1   109.5600471 388.275200
   6498   6496   6524     1   109.7800468 425.094400
   6499   6502   6503     1   109.5600471 388.275200
   6499   6502   6504     1   109.5600471 388.275200
   6500   6499   6502     1   109.8000471 387.438400
   6500   6499   6501     1   107.5800459 329.699200
   6501   6499   6502     1   109.8000471 387.438400
   6503   6502   6505     1   109.8800469 414.216000
   6503   6502   6504     1   108.4600466 328.025600
   6504   6502   6505     1   109.8800469 414.216000
   6505   6506   6507     1   109.8800469 414.216000
   6505   6506   6508     1   109.8800469 414.216000
   6505   6515   6516     1   109.8800469 414.216000
   6505   6515   6517     1   109.8800469 414.216000
   6506   6509   6510     1   109.8000471 387.438400
   6506   6509   6511     1   109.8000471 387.438400
   6507   6506   6509     1   109.5600471 388.275200
   6507   6506   6508     1   108.4600466 328.025600
   6508   6506   6509     1   109.5600471 388.275200
   6510   6509   6512     1   108.7700466 392.459200
   6510   6509   6511     1   107.5800459 329.699200
   6511   6509   6512     1   108.7700466 392.459200
   6515   6518   6519     1   109.8000471 387.438400
   6515   6518   6520     1   109.8000471 387.438400
   6516   6515   6518     1   109.5600471 388.275200
   6516   6515   6517     1   108.4600466 328.025600
   6517   6515   6518     1   109.5600471 388.275200
   6519   6518   6521     1   108.7700466 392.459200
   6519   6518   6520     1   107.5800459 329.699200
   6520   6518   6521     1   108.7700466 392.459200
   6525   6528   6529     1   109.8000471 387.438400
   6525   6528   6530     1   109.8000471 387.438400
   6526   6525   6528     1   109.5600471 388.275200
   6526   6525   6553     1   109.7800468 425.094400
   6526   6525   6527     1   108.4600466 328.025600
   6527   6525   6528     1   109.5600471 388.275200
   6527   6525   6553     1   109.7800468 425.094400
   6528   6531   6532     1   109.5600471 388.275200
   6528   6531   6533     1   109.5600471 388.275200
   6529   6528   6531     1   109.8000471 387.438400
   6529   6528   6530     1   107.5800459 329.699200
   6530   6528   6531     1   109.8000471 387.438400
   6532   6531   6534     1   109.8800469 414.216000
   6532   6531   6533     1   108.4600466 328.025600
   6533   6531   6534     1   109.8800469 414.216000
   6534   6535   6536     1   109.8800469 414.216000
   6534   6535   6537     1   109.8800469 414.216000
   6534   6544   6545     1   109.8800469 414.216000
   6534   6544   6546     1   109.8800469 414.216000
   6535   6538   6539     1   109.8000471 387.438400
   6535   6538   6540     1   109.8000471 387.438400
   6536   6535   6538     1   109.5600471 388.275200
   6536   6535   6537     1   108.4600466 328.025600
   6537   6535   6538     1   109.5600471 388.275200
   6539   6538   6541     1   108.7700466 392.459200
   6539   6538   6540     1   107.5800459 329.699200
   6540   6538   6541     1   108.7700466 392.459200
   6544   6547   6548     1   109.8000471 387.438400
   6544   6547   6549     1   109.8000471 387.438400
   6545   6544   6547     1   109.5600471 388.275200
   6545   6544   6546     1   108.4600466 328.025600
   6546   6544   6547     1   109.5600471 388.275200
   6548   6547   6550     1   108.7700466 392.459200
   6548   6547   6549     1   107.5800459 329.699200
   6549   6547   6550     1   108.7700466 392.459200
   6554   6557   6558     1   109.8000471 387.438400
   6554   6557   6559     1   109.8000471 387.438400
   6555   6554   6557     1   109.5600471 388.275200
   6555   6554   6582     1   109.7800468 425.094400
   6555   6554   6556     1   108.4600466 328.025600
   6556   6554   6557     1   109.5600471 388.275200
   6556   6554   6582     1   109.7800468 425.094400
   6557   6560   6561     1   109.5600471 388.275200
   6557   6560   6562     1   109.5600471 388.275200
   6558   6557   6560     1   109.8000471 387.438400
   6558   6557   6559     1   107.5800459 329.699200
   6559   6557   6560     1   109.8000471 387.438400
   6561   6560   6563     1   109.8800469 414.216000
   6561   6560   6562     1   108.4600466 328.025600
   6562   6560   6563     1   109.8800469 414.216000
   6563   6564   6565     1   109.8800469 414.216000
   6563   6564   6566     1   109.8800469 414.216000
   6563   6573   6574     1   109.8800469 414.216000
   6563   6573   6575     1   109.8800469 414.216000
   6564   6567   6568     1   109.8000471 387.438400
   6564   6567   6569     1   109.8000471 387.438400
   6565   6564   6567     1   109.5600471 388.275200
   6565   6564   6566     1   108.4600466 328.025600
   6566   6564   6567     1   109.5600471 388.275200
   6568   6567   6570     1   108.7700466 392.459200
   6568   6567   6569     1   107.5800459 329.699200
   6569   6567   6570     1   108.7700466 392.459200
   6573   6576   6577     1   109.8000471 387.438400
   6573   6576   6578     1   109.8000471 387.438400
   6574   6573   6576     1   109.5600471 388.275200
   6574   6573   6575     1   108.4600466 328.025600
   6575   6573   6576     1   109.5600471 388.275200
   6577   6576   6579     1   108.7700466 392.459200
   6577   6576   6578     1   107.5800459 329.699200
   6578   6576   6579     1   108.7700466 392.459200
   6583   6586   6587     1   109.8000471 387.438400
   6583   6586   6588     1   109.8000471 387.438400
   6584   6583   6586     1   109.5600471 388.275200
   6584   6583   6611     1   109.7800468 425.094400
   6584   6583   6585     1   108.4600466 328.025600
   6585   6583   6586     1   109.5600471 388.275200
   6585   6583   6611     1   109.7800468 425.094400
   6586   6589   6590     1   109.5600471 388.275200
   6586   6589   6591     1   109.5600471 388.275200
   6587   6586   6589     1   109.8000471 387.438400
   6587   6586   6588     1   107.5800459 329.699200
   6588   6586   6589     1   109.8000471 387.438400
   6590   6589   6592     1   109.8800469 414.216000
   6590   6589   6591     1   108.4600466 328.025600
   6591   6589   6592     1   109.8800469 414.216000
   6592   6593   6594     1   109.8800469 414.216000
   6592   6593   6595     1   109.8800469 414.216000
   6592   6602   6603     1   109.8800469 414.216000
   6592   6602   6604     1   109.8800469 414.216000
   6593   6596   6597     1   109.8000471 387.438400
   6593   6596   6598     1   109.8000471 387.438400
   6594   6593   6596     1   109.5600471 388.275200
   6594   6593   6595     1   108.4600466 328.025600
   6595   6593   6596     1   109.5600471 388.275200
   6597   6596   6599     1   108.7700466 392.459200
   6597   6596   6598     1   107.5800459 329.699200
   6598   6596   6599     1   108.7700466 392.459200
   6602   6605   6606     1   109.8000471 387.438400
   6602   6605   6607     1   109.8000471 387.438400
   6603   6602   6605     1   109.5600471 388.275200
   6603   6602   6604     1   108.4600466 328.025600
   6604   6602   6605     1   109.5600471 388.275200
   6606   6605   6608     1   108.7700466 392.459200
   6606   6605   6607     1   107.5800459 329.699200
   6607   6605   6608     1   108.7700466 392.459200
   6612   6615   6616     1   109.8000471 387.438400
   6612   6615   6617     1   109.8000471 387.438400
   6613   6612   6615     1   109.5600471 388.275200
   6613   6612   6640     1   109.7800468 425.094400
   6613   6612   6614     1   108.4600466 328.025600
   6614   6612   6615     1   109.5600471 388.275200
   6614   6612   6640     1   109.7800468 425.094400
   6615   6618   6619     1   109.5600471 388.275200
   6615   6618   6620     1   109.5600471 388.275200
   6616   6615   6618     1   109.8000471 387.438400
   6616   6615   6617     1   107.5800459 329.699200
   6617   6615   6618     1   109.8000471 387.438400
   6619   6618   6621     1   109.8800469 414.216000
   6619   6618   6620     1   108.4600466 328.025600
   6620   6618   6621     1   109.8800469 414.216000
   6621   6622   6623     1   109.8800469 414.216000
   6621   6622   6624     1   109.8800469 414.216000
   6621   6631   6632     1   109.8800469 414.216000
   6621   6631   6633     1   109.8800469 414.216000
   6622   6625   6626     1   109.8000471 387.438400
   6622   6625   6627     1   109.8000471 387.438400
   6623   6622   6625     1   109.5600471 388.275200
   6623   6622   6624     1   108.4600466 328.025600
   6624   6622   6625     1   109.5600471 388.275200
   6626   6625   6628     1   108.7700466 392.459200
   6626   6625   6627     1   107.5800459 329.699200
   6627   6625   6628     1   108.7700466 392.459200
   6631   6634   6635     1   109.8000471 387.438400
   6631   6634   6636     1   109.8000471 387.438400
   6632   6631   6634     1   109.5600471 388.275200
   6632   6631   6633     1   108.4600466 328.025600
   6633   6631   6634     1   109.5600471 388.275200
   6635   6634   6637     1   108.7700466 392.459200
   6635   6634   6636     1   107.5800459 329.699200
   6636   6634   6637     1   108.7700466 392.459200
   6641   6644   6645     1   109.8000471 387.438400
   6641   6644   6646     1   109.8000471 387.438400
   6642   6641   6644     1   109.5600471 388.275200
   6642   6641   6669     1   109.7800468 425.094400
   6642   6641   6643     1   108.4600466 328.025600
   6643   6641   6644     1   109.5600471 388.275200
   6643   6641   6669     1   109.7800468 425.094400
   6644   6647   6648     1   109.5600471 388.275200
   6644   6647   6649     1   109.5600471 388.275200
   6645   6644   6647     1   109.8000471 387.438400
   6645   6644   6646     1   107.5800459 329.699200
   6646   6644   6647     1   109.8000471 387.438400
   6648   6647   6650     1   109.8800469 414.216000
   6648   6647   6649     1   108.4600466 328.025600
   6649   6647   6650     1   109.8800469 414.216000
   6650   6651   6652     1   109.8800469 414.216000
   6650   6651   6653     1   109.8800469 414.216000
   6650   6660   6661     1   109.8800469 414.216000
   6650   6660   6662     1   109.8800469 414.216000
   6651   6654   6655     1   109.8000471 387.438400
   6651   6654   6656     1   109.8000471 387.438400
   6652   6651   6654     1   109.5600471 388.275200
   6652   6651   6653     1   108.4600466 328.025600
   6653   6651   6654     1   109.5600471 388.275200
   6655   6654   6657     1   108.7700466 392.459200
   6655   6654   6656     1   107.5800459 329.699200
   6656   6654   6657     1   108.7700466 392.459200
   6660   6663   6664     1   109.8000471 387.438400
   6660   6663   6665     1   109.8000471 387.438400
   6661   6660   6663     1   109.5600471 388.275200
   6661   6660   6662     1   108.4600466 328.025600
   6662   6660   6663     1   109.5600471 388.275200
   6664   6663   6666     1   108.7700466 392.459200
   6664   6663   6665     1   107.5800459 329.699200
   6665   6663   6666     1   108.7700466 392.459200
   6670   6673   6674     1   109.8000471 387.438400
   6670   6673   6675     1   109.8000471 387.438400
   6671   6670   6673     1   109.5600471 388.275200
   6671   6670   6698     1   109.7800468 425.094400
   6671   6670   6672     1   108.4600466 328.025600
   6672   6670   6673     1   109.5600471 388.275200
   6672   6670   6698     1   109.7800468 425.094400
   6673   6676   6677     1   109.5600471 388.275200
   6673   6676   6678     1   109.5600471 388.275200
   6674   6673   6676     1   109.8000471 387.438400
   6674   6673   6675     1   107.5800459 329.699200
   6675   6673   6676     1   109.8000471 387.438400
   6677   6676   6679     1   109.8800469 414.216000
   6677   6676   6678     1   108.4600466 328.025600
   6678   6676   6679     1   109.8800469 414.216000
   6679   6680   6681     1   109.8800469 414.216000
   6679   6680   6682     1   109.8800469 414.216000
   6679   6689   6690     1   109.8800469 414.216000
   6679   6689   6691     1   109.8800469 414.216000
   6680   6683   6684     1   109.8000471 387.438400
   6680   6683   6685     1   109.8000471 387.438400
   6681   6680   6683     1   109.5600471 388.275200
   6681   6680   6682     1   108.4600466 328.025600
   6682   6680   6683     1   109.5600471 388.275200
   6684   6683   6686     1   108.7700466 392.459200
   6684   6683   6685     1   107.5800459 329.699200
   6685   6683   6686     1   108.7700466 392.459200
   6689   6692   6693     1   109.8000471 387.438400
   6689   6692   6694     1   109.8000471 387.438400
   6690   6689   6692     1   109.5600471 388.275200
   6690   6689   6691     1   108.4600466 328.025600
   6691   6689   6692     1   109.5600471 388.275200
   6693   6692   6695     1   108.7700466 392.459200
   6693   6692   6694     1   107.5800459 329.699200
   6694   6692   6695     1   108.7700466 392.459200
   6699   6702   6703     1   109.8000471 387.438400
   6699   6702   6704     1   109.8000471 387.438400
   6700   6699   6702     1   109.5600471 388.275200
   6700   6699   6727     1   109.7800468 425.094400
   6700   6699   6701     1   108.4600466 328.025600
   6701   6699   6702     1   109.5600471 388.275200
   6701   6699   6727     1   109.7800468 425.094400
   6702   6705   6706     1   109.5600471 388.275200
   6702   6705   6707     1   109.5600471 388.275200
   6703   6702   6705     1   109.8000471 387.438400
   6703   6702   6704     1   107.5800459 329.699200
   6704   6702   6705     1   109.8000471 387.438400
   6706   6705   6708     1   109.8800469 414.216000
   6706   6705   6707     1   108.4600466 328.025600
   6707   6705   6708     1   109.8800469 414.216000
   6708   6709   6710     1   109.8800469 414.216000
   6708   6709   6711     1   109.8800469 414.216000
   6708   6718   6719     1   109.8800469 414.216000
   6708   6718   6720     1   109.8800469 414.216000
   6709   6712   6713     1   109.8000471 387.438400
   6709   6712   6714     1   109.8000471 387.438400
   6710   6709   6712     1   109.5600471 388.275200
   6710   6709   6711     1   108.4600466 328.025600
   6711   6709   6712     1   109.5600471 388.275200
   6713   6712   6715     1   108.7700466 392.459200
   6713   6712   6714     1   107.5800459 329.699200
   6714   6712   6715     1   108.7700466 392.459200
   6718   6721   6722     1   109.8000471 387.438400
   6718   6721   6723     1   109.8000471 387.438400
   6719   6718   6721     1   109.5600471 388.275200
   6719   6718   6720     1   108.4600466 328.025600
   6720   6718   6721     1   109.5600471 388.275200
   6722   6721   6724     1   108.7700466 392.459200
   6722   6721   6723     1   107.5800459 329.699200
   6723   6721   6724     1   108.7700466 392.459200
   6728   6731   6732     1   109.8000471 387.438400
   6728   6731   6733     1   109.8000471 387.438400
   6729   6728   6731     1   109.5600471 388.275200
   6729   6728   6756     1   109.7800468 425.094400
   6729   6728   6730     1   108.4600466 328.025600
   6730   6728   6731     1   109.5600471 388.275200
   6730   6728   6756     1   109.7800468 425.094400
   6731   6734   6735     1   109.5600471 388.275200
   6731   6734   6736     1   109.5600471 388.275200
   6732   6731   6734     1   109.8000471 387.438400
   6732   6731   6733     1   107.5800459 329.699200
   6733   6731   6734     1   109.8000471 387.438400
   6735   6734   6737     1   109.8800469 414.216000
   6735   6734   6736     1   108.4600466 328.025600
   6736   6734   6737     1   109.8800469 414.216000
   6737   6738   6739     1   109.8800469 414.216000
   6737   6738   6740     1   109.8800469 414.216000
   6737   6747   6748     1   109.8800469 414.216000
   6737   6747   6749     1   109.8800469 414.216000
   6738   6741   6742     1   109.8000471 387.438400
   6738   6741   6743     1   109.8000471 387.438400
   6739   6738   6741     1   109.5600471 388.275200
   6739   6738   6740     1   108.4600466 328.025600
   6740   6738   6741     1   109.5600471 388.275200
   6742   6741   6744     1   108.7700466 392.459200
   6742   6741   6743     1   107.5800459 329.699200
   6743   6741   6744     1   108.7700466 392.459200
   6747   6750   6751     1   109.8000471 387.438400
   6747   6750   6752     1   109.8000471 387.438400
   6748   6747   6750     1   109.5600471 388.275200
   6748   6747   6749     1   108.4600466 328.025600
   6749   6747   6750     1   109.5600471 388.275200
   6751   6750   6753     1   108.7700466 392.459200
   6751   6750   6752     1   107.5800459 329.699200
   6752   6750   6753     1   108.7700466 392.459200
   6757   6760   6761     1   109.8000471 387.438400
   6757   6760   6762     1   109.8000471 387.438400
   6758   6757   6760     1   109.5600471 388.275200
   6758   6757   6785     1   109.7800468 425.094400
   6758   6757   6759     1   108.4600466 328.025600
   6759   6757   6760     1   109.5600471 388.275200
   6759   6757   6785     1   109.7800468 425.094400
   6760   6763   6764     1   109.5600471 388.275200
   6760   6763   6765     1   109.5600471 388.275200
   6761   6760   6763     1   109.8000471 387.438400
   6761   6760   6762     1   107.5800459 329.699200
   6762   6760   6763     1   109.8000471 387.438400
   6764   6763   6766     1   109.8800469 414.216000
   6764   6763   6765     1   108.4600466 328.025600
   6765   6763   6766     1   109.8800469 414.216000
   6766   6767   6768     1   109.8800469 414.216000
   6766   6767   6769     1   109.8800469 414.216000
   6766   6776   6777     1   109.8800469 414.216000
   6766   6776   6778     1   109.8800469 414.216000
   6767   6770   6771     1   109.8000471 387.438400
   6767   6770   6772     1   109.8000471 387.438400
   6768   6767   6770     1   109.5600471 388.275200
   6768   6767   6769     1   108.4600466 328.025600
   6769   6767   6770     1   109.5600471 388.275200
   6771   6770   6773     1   108.7700466 392.459200
   6771   6770   6772     1   107.5800459 329.699200
   6772   6770   6773     1   108.7700466 392.459200
   6776   6779   6780     1   109.8000471 387.438400
   6776   6779   6781     1   109.8000471 387.438400
   6777   6776   6779     1   109.5600471 388.275200
   6777   6776   6778     1   108.4600466 328.025600
   6778   6776   6779     1   109.5600471 388.275200
   6780   6779   6782     1   108.7700466 392.459200
   6780   6779   6781     1   107.5800459 329.699200
   6781   6779   6782     1   108.7700466 392.459200
   6786   6789   6790     1   109.8000471 387.438400
   6786   6789   6791     1   109.8000471 387.438400
   6787   6786   6789     1   109.5600471 388.275200
   6787   6786   6814     1   109.7800468 425.094400
   6787   6786   6788     1   108.4600466 328.025600
   6788   6786   6789     1   109.5600471 388.275200
   6788   6786   6814     1   109.7800468 425.094400
   6789   6792   6793     1   109.5600471 388.275200
   6789   6792   6794     1   109.5600471 388.275200
   6790   6789   6792     1   109.8000471 387.438400
   6790   6789   6791     1   107.5800459 329.699200
   6791   6789   6792     1   109.8000471 387.438400
   6793   6792   6795     1   109.8800469 414.216000
   6793   6792   6794     1   108.4600466 328.025600
   6794   6792   6795     1   109.8800469 414.216000
   6795   6796   6797     1   109.8800469 414.216000
   6795   6796   6798     1   109.8800469 414.216000
   6795   6805   6806     1   109.8800469 414.216000
   6795   6805   6807     1   109.8800469 414.216000
   6796   6799   6800     1   109.8000471 387.438400
   6796   6799   6801     1   109.8000471 387.438400
   6797   6796   6799     1   109.5600471 388.275200
   6797   6796   6798     1   108.4600466 328.025600
   6798   6796   6799     1   109.5600471 388.275200
   6800   6799   6802     1   108.7700466 392.459200
   6800   6799   6801     1   107.5800459 329.699200
   6801   6799   6802     1   108.7700466 392.459200
   6805   6808   6809     1   109.8000471 387.438400
   6805   6808   6810     1   109.8000471 387.438400
   6806   6805   6808     1   109.5600471 388.275200
   6806   6805   6807     1   108.4600466 328.025600
   6807   6805   6808     1   109.5600471 388.275200
   6809   6808   6811     1   108.7700466 392.459200
   6809   6808   6810     1   107.5800459 329.699200
   6810   6808   6811     1   108.7700466 392.459200
   6815   6818   6819     1   109.8000471 387.438400
   6815   6818   6820     1   109.8000471 387.438400
   6816   6815   6818     1   109.5600471 388.275200
   6816   6815   6843     1   109.7800468 425.094400
   6816   6815   6817     1   108.4600466 328.025600
   6817   6815   6818     1   109.5600471 388.275200
   6817   6815   6843     1   109.7800468 425.094400
   6818   6821   6822     1   109.5600471 388.275200
   6818   6821   6823     1   109.5600471 388.275200
   6819   6818   6821     1   109.8000471 387.438400
   6819   6818   6820     1   107.5800459 329.699200
   6820   6818   6821     1   109.8000471 387.438400
   6822   6821   6824     1   109.8800469 414.216000
   6822   6821   6823     1   108.4600466 328.025600
   6823   6821   6824     1   109.8800469 414.216000
   6824   6825   6826     1   109.8800469 414.216000
   6824   6825   6827     1   109.8800469 414.216000
   6824   6834   6835     1   109.8800469 414.216000
   6824   6834   6836     1   109.8800469 414.216000
   6825   6828   6829     1   109.8000471 387.438400
   6825   6828   6830     1   109.8000471 387.438400
   6826   6825   6828     1   109.5600471 388.275200
   6826   6825   6827     1   108.4600466 328.025600
   6827   6825   6828     1   109.5600471 388.275200
   6829   6828   6831     1   108.7700466 392.459200
   6829   6828   6830     1   107.5800459 329.699200
   6830   6828   6831     1   108.7700466 392.459200
   6834   6837   6838     1   109.8000471 387.438400
   6834   6837   6839     1   109.8000471 387.438400
   6835   6834   6837     1   109.5600471 388.275200
   6835   6834   6836     1   108.4600466 328.025600
   6836   6834   6837     1   109.5600471 388.275200
   6838   6837   6840     1   108.7700466 392.459200
   6838   6837   6839     1   107.5800459 329.699200
   6839   6837   6840     1   108.7700466 392.459200
   6844   6847   6848     1   109.8000471 387.438400
   6844   6847   6849     1   109.8000471 387.438400
   6845   6844   6847     1   109.5600471 388.275200
   6845   6844   6872     1   109.7800468 425.094400
   6845   6844   6846     1   108.4600466 328.025600
   6846   6844   6847     1   109.5600471 388.275200
   6846   6844   6872     1   109.7800468 425.094400
   6847   6850   6851     1   109.5600471 388.275200
   6847   6850   6852     1   109.5600471 388.275200
   6848   6847   6850     1   109.8000471 387.438400
   6848   6847   6849     1   107.5800459 329.699200
   6849   6847   6850     1   109.8000471 387.438400
   6851   6850   6853     1   109.8800469 414.216000
   6851   6850   6852     1   108.4600466 328.025600
   6852   6850   6853     1   109.8800469 414.216000
   6853   6854   6855     1   109.8800469 414.216000
   6853   6854   6856     1   109.8800469 414.216000
   6853   6863   6864     1   109.8800469 414.216000
   6853   6863   6865     1   109.8800469 414.216000
   6854   6857   6858     1   109.8000471 387.438400
   6854   6857   6859     1   109.8000471 387.438400
   6855   6854   6857     1   109.5600471 388.275200
   6855   6854   6856     1   108.4600466 328.025600
   6856   6854   6857     1   109.5600471 388.275200
   6858   6857   6860     1   108.7700466 392.459200
   6858   6857   6859     1   107.5800459 329.699200
   6859   6857   6860     1   108.7700466 392.459200
   6863   6866   6867     1   109.8000471 387.438400
   6863   6866   6868     1   109.8000471 387.438400
   6864   6863   6866     1   109.5600471 388.275200
   6864   6863   6865     1   108.4600466 328.025600
   6865   6863   6866     1   109.5600471 388.275200
   6867   6866   6869     1   108.7700466 392.459200
   6867   6866   6868     1   107.5800459 329.699200
   6868   6866   6869     1   108.7700466 392.459200
   6873   6876   6877     1   109.8000471 387.438400
   6873   6876   6878     1   109.8000471 387.438400
   6874   6873   6876     1   109.5600471 388.275200
   6874   6873   6901     1   109.7800468 425.094400
   6874   6873   6875     1   108.4600466 328.025600
   6875   6873   6876     1   109.5600471 388.275200
   6875   6873   6901     1   109.7800468 425.094400
   6876   6879   6880     1   109.5600471 388.275200
   6876   6879   6881     1   109.5600471 388.275200
   6877   6876   6879     1   109.8000471 387.438400
   6877   6876   6878     1   107.5800459 329.699200
   6878   6876   6879     1   109.8000471 387.438400
   6880   6879   6882     1   109.8800469 414.216000
   6880   6879   6881     1   108.4600466 328.025600
   6881   6879   6882     1   109.8800469 414.216000
   6882   6883   6884     1   109.8800469 414.216000
   6882   6883   6885     1   109.8800469 414.216000
   6882   6892   6893     1   109.8800469 414.216000
   6882   6892   6894     1   109.8800469 414.216000
   6883   6886   6887     1   109.8000471 387.438400
   6883   6886   6888     1   109.8000471 387.438400
   6884   6883   6886     1   109.5600471 388.275200
   6884   6883   6885     1   108.4600466 328.025600
   6885   6883   6886     1   109.5600471 388.275200
   6887   6886   6889     1   108.7700466 392.459200
   6887   6886   6888     1   107.5800459 329.699200
   6888   6886   6889     1   108.7700466 392.459200
   6892   6895   6896     1   109.8000471 387.438400
   6892   6895   6897     1   109.8000471 387.438400
   6893   6892   6895     1   109.5600471 388.275200
   6893   6892   6894     1   108.4600466 328.025600
   6894   6892   6895     1   109.5600471 388.275200
   6896   6895   6898     1   108.7700466 392.459200
   6896   6895   6897     1   107.5800459 329.699200
   6897   6895   6898     1   108.7700466 392.459200
   6902   6905   6906     1   109.8000471 387.438400
   6902   6905   6907     1   109.8000471 387.438400
   6903   6902   6905     1   109.5600471 388.275200
   6903   6902   6930     1   109.7800468 425.094400
   6903   6902   6904     1   108.4600466 328.025600
   6904   6902   6905     1   109.5600471 388.275200
   6904   6902   6930     1   109.7800468 425.094400
   6905   6908   6909     1   109.5600471 388.275200
   6905   6908   6910     1   109.5600471 388.275200
   6906   6905   6908     1   109.8000471 387.438400
   6906   6905   6907     1   107.5800459 329.699200
   6907   6905   6908     1   109.8000471 387.438400
   6909   6908   6911     1   109.8800469 414.216000
   6909   6908   6910     1   108.4600466 328.025600
   6910   6908   6911     1   109.8800469 414.216000
   6911   6912   6913     1   109.8800469 414.216000
   6911   6912   6914     1   109.8800469 414.216000
   6911   6921   6922     1   109.8800469 414.216000
   6911   6921   6923     1   109.8800469 414.216000
   6912   6915   6916     1   109.8000471 387.438400
   6912   6915   6917     1   109.8000471 387.438400
   6913   6912   6915     1   109.5600471 388.275200
   6913   6912   6914     1   108.4600466 328.025600
   6914   6912   6915     1   109.5600471 388.275200
   6916   6915   6918     1   108.7700466 392.459200
   6916   6915   6917     1   107.5800459 329.699200
   6917   6915   6918     1   108.7700466 392.459200
   6921   6924   6925     1   109.8000471 387.438400
   6921   6924   6926     1   109.8000471 387.438400
   6922   6921   6924     1   109.5600471 388.275200
   6922   6921   6923     1   108.4600466 328.025600
   6923   6921   6924     1   109.5600471 388.275200
   6925   6924   6927     1   108.7700466 392.459200
   6925   6924   6926     1   107.5800459 329.699200
   6926   6924   6927     1   108.7700466 392.459200
   6931   6934   6935     1   109.8000471 387.438400
   6931   6934   6936     1   109.8000471 387.438400
   6932   6931   6934     1   109.5600471 388.275200
   6932   6931   6959     1   109.7800468 425.094400
   6932   6931   6933     1   108.4600466 328.025600
   6933   6931   6934     1   109.5600471 388.275200
   6933   6931   6959     1   109.7800468 425.094400
   6934   6937   6938     1   109.5600471 388.275200
   6934   6937   6939     1   109.5600471 388.275200
   6935   6934   6937     1   109.8000471 387.438400
   6935   6934   6936     1   107.5800459 329.699200
   6936   6934   6937     1   109.8000471 387.438400
   6938   6937   6940     1   109.8800469 414.216000
   6938   6937   6939     1   108.4600466 328.025600
   6939   6937   6940     1   109.8800469 414.216000
   6940   6941   6942     1   109.8800469 414.216000
   6940   6941   6943     1   109.8800469 414.216000
   6940   6950   6951     1   109.8800469 414.216000
   6940   6950   6952     1   109.8800469 414.216000
   6941   6944   6945     1   109.8000471 387.438400
   6941   6944   6946     1   109.8000471 387.438400
   6942   6941   6944     1   109.5600471 388.275200
   6942   6941   6943     1   108.4600466 328.025600
   6943   6941   6944     1   109.5600471 388.275200
   6945   6944   6947     1   108.7700466 392.459200
   6945   6944   6946     1   107.5800459 329.699200
   6946   6944   6947     1   108.7700466 392.459200
   6950   6953   6954     1   109.8000471 387.438400
   6950   6953   6955     1   109.8000471 387.438400
   6951   6950   6953     1   109.5600471 388.275200
   6951   6950   6952     1   108.4600466 328.025600
   6952   6950   6953     1   109.5600471 388.275200
   6954   6953   6956     1   108.7700466 392.459200
   6954   6953   6955     1   107.5800459 329.699200
   6955   6953   6956     1   108.7700466 392.459200
   6960   6963   6964     1   109.8000471 387.438400
   6960   6963   6965     1   109.8000471 387.438400
   6961   6960   6963     1   109.5600471 388.275200
   6961   6960   6988     1   109.7800468 425.094400
   6961   6960   6962     1   108.4600466 328.025600
   6962   6960   6963     1   109.5600471 388.275200
   6962   6960   6988     1   109.7800468 425.094400
   6963   6966   6967     1   109.5600471 388.275200
   6963   6966   6968     1   109.5600471 388.275200
   6964   6963   6966     1   109.8000471 387.438400
   6964   6963   6965     1   107.5800459 329.699200
   6965   6963   6966     1   109.8000471 387.438400
   6967   6966   6969     1   109.8800469 414.216000
   6967   6966   6968     1   108.4600466 328.025600
   6968   6966   6969     1   109.8800469 414.216000
   6969   6970   6971     1   109.8800469 414.216000
   6969   6970   6972     1   109.8800469 414.216000
   6969   6979   6980     1   109.8800469 414.216000
   6969   6979   6981     1   109.8800469 414.216000
   6970   6973   6974     1   109.8000471 387.438400
   6970   6973   6975     1   109.8000471 387.438400
   6971   6970   6973     1   109.5600471 388.275200
   6971   6970   6972     1   108.4600466 328.025600
   6972   6970   6973     1   109.5600471 388.275200
   6974   6973   6976     1   108.7700466 392.459200
   6974   6973   6975     1   107.5800459 329.699200
   6975   6973   6976     1   108.7700466 392.459200
   6979   6982   6983     1   109.8000471 387.438400
   6979   6982   6984     1   109.8000471 387.438400
   6980   6979   6982     1   109.5600471 388.275200
   6980   6979   6981     1   108.4600466 328.025600
   6981   6979   6982     1   109.5600471 388.275200
   6983   6982   6985     1   108.7700466 392.459200
   6983   6982   6984     1   107.5800459 329.699200
   6984   6982   6985     1   108.7700466 392.459200
   6989   6992   6993     1   109.8000471 387.438400
   6989   6992   6994     1   109.8000471 387.438400
   6990   6989   6992     1   109.5600471 388.275200
   6990   6989   7017     1   109.7800468 425.094400
   6990   6989   6991     1   108.4600466 328.025600
   6991   6989   6992     1   109.5600471 388.275200
   6991   6989   7017     1   109.7800468 425.094400
   6992   6995   6996     1   109.5600471 388.275200
   6992   6995   6997     1   109.5600471 388.275200
   6993   6992   6995     1   109.8000471 387.438400
   6993   6992   6994     1   107.5800459 329.699200
   6994   6992   6995     1   109.8000471 387.438400
   6996   6995   6998     1   109.8800469 414.216000
   6996   6995   6997     1   108.4600466 328.025600
   6997   6995   6998     1   109.8800469 414.216000
   6998   6999   7000     1   109.8800469 414.216000
   6998   6999   7001     1   109.8800469 414.216000
   6998   7008   7009     1   109.8800469 414.216000
   6998   7008   7010     1   109.8800469 414.216000
   6999   7002   7003     1   109.8000471 387.438400
   6999   7002   7004     1   109.8000471 387.438400
   7000   6999   7002     1   109.5600471 388.275200
   7000   6999   7001     1   108.4600466 328.025600
   7001   6999   7002     1   109.5600471 388.275200
   7003   7002   7005     1   108.7700466 392.459200
   7003   7002   7004     1   107.5800459 329.699200
   7004   7002   7005     1   108.7700466 392.459200
   7008   7011   7012     1   109.8000471 387.438400
   7008   7011   7013     1   109.8000471 387.438400
   7009   7008   7011     1   109.5600471 388.275200
   7009   7008   7010     1   108.4600466 328.025600
   7010   7008   7011     1   109.5600471 388.275200
   7012   7011   7014     1   108.7700466 392.459200
   7012   7011   7013     1   107.5800459 329.699200
   7013   7011   7014     1   108.7700466 392.459200
   7018   7021   7022     1   109.8000471 387.438400
   7018   7021   7023     1   109.8000471 387.438400
   7019   7018   7021     1   109.5600471 388.275200
   7019   7018   7046     1   109.7800468 425.094400
   7019   7018   7020     1   108.4600466 328.025600
   7020   7018   7021     1   109.5600471 388.275200
   7020   7018   7046     1   109.7800468 425.094400
   7021   7024   7025     1   109.5600471 388.275200
   7021   7024   7026     1   109.5600471 388.275200
   7022   7021   7024     1   109.8000471 387.438400
   7022   7021   7023     1   107.5800459 329.699200
   7023   7021   7024     1   109.8000471 387.438400
   7025   7024   7027     1   109.8800469 414.216000
   7025   7024   7026     1   108.4600466 328.025600
   7026   7024   7027     1   109.8800469 414.216000
   7027   7028   7029     1   109.8800469 414.216000
   7027   7028   7030     1   109.8800469 414.216000
   7027   7037   7038     1   109.8800469 414.216000
   7027   7037   7039     1   109.8800469 414.216000
   7028   7031   7032     1   109.8000471 387.438400
   7028   7031   7033     1   109.8000471 387.438400
   7029   7028   7031     1   109.5600471 388.275200
   7029   7028   7030     1   108.4600466 328.025600
   7030   7028   7031     1   109.5600471 388.275200
   7032   7031   7034     1   108.7700466 392.459200
   7032   7031   7033     1   107.5800459 329.699200
   7033   7031   7034     1   108.7700466 392.459200
   7037   7040   7041     1   109.8000471 387.438400
   7037   7040   7042     1   109.8000471 387.438400
   7038   7037   7040     1   109.5600471 388.275200
   7038   7037   7039     1   108.4600466 328.025600
   7039   7037   7040     1   109.5600471 388.275200
   7041   7040   7043     1   108.7700466 392.459200
   7041   7040   7042     1   107.5800459 329.699200
   7042   7040   7043     1   108.7700466 392.459200
   7047   7050   7051     1   109.8000471 387.438400
   7047   7050   7052     1   109.8000471 387.438400
   7048   7047   7050     1   109.5600471 388.275200
   7048   7047   7075     1   109.7800468 425.094400
   7048   7047   7049     1   108.4600466 328.025600
   7049   7047   7050     1   109.5600471 388.275200
   7049   7047   7075     1   109.7800468 425.094400
   7050   7053   7054     1   109.5600471 388.275200
   7050   7053   7055     1   109.5600471 388.275200
   7051   7050   7053     1   109.8000471 387.438400
   7051   7050   7052     1   107.5800459 329.699200
   7052   7050   7053     1   109.8000471 387.438400
   7054   7053   7056     1   109.8800469 414.216000
   7054   7053   7055     1   108.4600466 328.025600
   7055   7053   7056     1   109.8800469 414.216000
   7056   7057   7058     1   109.8800469 414.216000
   7056   7057   7059     1   109.8800469 414.216000
   7056   7066   7067     1   109.8800469 414.216000
   7056   7066   7068     1   109.8800469 414.216000
   7057   7060   7061     1   109.8000471 387.438400
   7057   7060   7062     1   109.8000471 387.438400
   7058   7057   7060     1   109.5600471 388.275200
   7058   7057   7059     1   108.4600466 328.025600
   7059   7057   7060     1   109.5600471 388.275200
   7061   7060   7063     1   108.7700466 392.459200
   7061   7060   7062     1   107.5800459 329.699200
   7062   7060   7063     1   108.7700466 392.459200
   7066   7069   7070     1   109.8000471 387.438400
   7066   7069   7071     1   109.8000471 387.438400
   7067   7066   7069     1   109.5600471 388.275200
   7067   7066   7068     1   108.4600466 328.025600
   7068   7066   7069     1   109.5600471 388.275200
   7070   7069   7072     1   108.7700466 392.459200
   7070   7069   7071     1   107.5800459 329.699200
   7071   7069   7072     1   108.7700466 392.459200
   7076   7079   7080     1   109.8000471 387.438400
   7076   7079   7081     1   109.8000471 387.438400
   7077   7076   7079     1   109.5600471 388.275200
   7077   7076   7104     1   109.7800468 425.094400
   7077   7076   7078     1   108.4600466 328.025600
   7078   7076   7079     1   109.5600471 388.275200
   7078   7076   7104     1   109.7800468 425.094400
   7079   7082   7083     1   109.5600471 388.275200
   7079   7082   7084     1   109.5600471 388.275200
   7080   7079   7082     1   109.8000471 387.438400
   7080   7079   7081     1   107.5800459 329.699200
   7081   7079   7082     1   109.8000471 387.438400
   7083   7082   7085     1   109.8800469 414.216000
   7083   7082   7084     1   108.4600466 328.025600
   7084   7082   7085     1   109.8800469 414.216000
   7085   7086   7087     1   109.8800469 414.216000
   7085   7086   7088     1   109.8800469 414.216000
   7085   7095   7096     1   109.8800469 414.216000
   7085   7095   7097     1   109.8800469 414.216000
   7086   7089   7090     1   109.8000471 387.438400
   7086   7089   7091     1   109.8000471 387.438400
   7087   7086   7089     1   109.5600471 388.275200
   7087   7086   7088     1   108.4600466 328.025600
   7088   7086   7089     1   109.5600471 388.275200
   7090   7089   7092     1   108.7700466 392.459200
   7090   7089   7091     1   107.5800459 329.699200
   7091   7089   7092     1   108.7700466 392.459200
   7095   7098   7099     1   109.8000471 387.438400
   7095   7098   7100     1   109.8000471 387.438400
   7096   7095   7098     1   109.5600471 388.275200
   7096   7095   7097     1   108.4600466 328.025600
   7097   7095   7098     1   109.5600471 388.275200
   7099   7098   7101     1   108.7700466 392.459200
   7099   7098   7100     1   107.5800459 329.699200
   7100   7098   7101     1   108.7700466 392.459200
   7105   7108   7109     1   109.8000471 387.438400
   7105   7108   7110     1   109.8000471 387.438400
   7106   7105   7108     1   109.5600471 388.275200
   7106   7105   7133     1   109.7800468 425.094400
   7106   7105   7107     1   108.4600466 328.025600
   7107   7105   7108     1   109.5600471 388.275200
   7107   7105   7133     1   109.7800468 425.094400
   7108   7111   7112     1   109.5600471 388.275200
   7108   7111   7113     1   109.5600471 388.275200
   7109   7108   7111     1   109.8000471 387.438400
   7109   7108   7110     1   107.5800459 329.699200
   7110   7108   7111     1   109.8000471 387.438400
   7112   7111   7114     1   109.8800469 414.216000
   7112   7111   7113     1   108.4600466 328.025600
   7113   7111   7114     1   109.8800469 414.216000
   7114   7115   7116     1   109.8800469 414.216000
   7114   7115   7117     1   109.8800469 414.216000
   7114   7124   7125     1   109.8800469 414.216000
   7114   7124   7126     1   109.8800469 414.216000
   7115   7118   7119     1   109.8000471 387.438400
   7115   7118   7120     1   109.8000471 387.438400
   7116   7115   7118     1   109.5600471 388.275200
   7116   7115   7117     1   108.4600466 328.025600
   7117   7115   7118     1   109.5600471 388.275200
   7119   7118   7121     1   108.7700466 392.459200
   7119   7118   7120     1   107.5800459 329.699200
   7120   7118   7121     1   108.7700466 392.459200
   7124   7127   7128     1   109.8000471 387.438400
   7124   7127   7129     1   109.8000471 387.438400
   7125   7124   7127     1   109.5600471 388.275200
   7125   7124   7126     1   108.4600466 328.025600
   7126   7124   7127     1   109.5600471 388.275200
   7128   7127   7130     1   108.7700466 392.459200
   7128   7127   7129     1   107.5800459 329.699200
   7129   7127   7130     1   108.7700466 392.459200
   7134   7137   7138     1   109.8000471 387.438400
   7134   7137   7139     1   109.8000471 387.438400
   7135   7134   7137     1   109.5600471 388.275200
   7135   7134   7162     1   109.7800468 425.094400
   7135   7134   7136     1   108.4600466 328.025600
   7136   7134   7137     1   109.5600471 388.275200
   7136   7134   7162     1   109.7800468 425.094400
   7137   7140   7141     1   109.5600471 388.275200
   7137   7140   7142     1   109.5600471 388.275200
   7138   7137   7140     1   109.8000471 387.438400
   7138   7137   7139     1   107.5800459 329.699200
   7139   7137   7140     1   109.8000471 387.438400
   7141   7140   7143     1   109.8800469 414.216000
   7141   7140   7142     1   108.4600466 328.025600
   7142   7140   7143     1   109.8800469 414.216000
   7143   7144   7145     1   109.8800469 414.216000
   7143   7144   7146     1   109.8800469 414.216000
   7143   7153   7154     1   109.8800469 414.216000
   7143   7153   7155     1   109.8800469 414.216000
   7144   7147   7148     1   109.8000471 387.438400
   7144   7147   7149     1   109.8000471 387.438400
   7145   7144   7147     1   109.5600471 388.275200
   7145   7144   7146     1   108.4600466 328.025600
   7146   7144   7147     1   109.5600471 388.275200
   7148   7147   7150     1   108.7700466 392.459200
   7148   7147   7149     1   107.5800459 329.699200
   7149   7147   7150     1   108.7700466 392.459200
   7153   7156   7157     1   109.8000471 387.438400
   7153   7156   7158     1   109.8000471 387.438400
   7154   7153   7156     1   109.5600471 388.275200
   7154   7153   7155     1   108.4600466 328.025600
   7155   7153   7156     1   109.5600471 388.275200
   7157   7156   7159     1   108.7700466 392.459200
   7157   7156   7158     1   107.5800459 329.699200
   7158   7156   7159     1   108.7700466 392.459200
   7163   7166   7167     1   109.8000471 387.438400
   7163   7166   7168     1   109.8000471 387.438400
   7164   7163   7166     1   109.5600471 388.275200
   7164   7163   7191     1   109.7800468 425.094400
   7164   7163   7165     1   108.4600466 328.025600
   7165   7163   7166     1   109.5600471 388.275200
   7165   7163   7191     1   109.7800468 425.094400
   7166   7169   7170     1   109.5600471 388.275200
   7166   7169   7171     1   109.5600471 388.275200
   7167   7166   7169     1   109.8000471 387.438400
   7167   7166   7168     1   107.5800459 329.699200
   7168   7166   7169     1   109.8000471 387.438400
   7170   7169   7172     1   109.8800469 414.216000
   7170   7169   7171     1   108.4600466 328.025600
   7171   7169   7172     1   109.8800469 414.216000
   7172   7173   7174     1   109.8800469 414.216000
   7172   7173   7175     1   109.8800469 414.216000
   7172   7182   7183     1   109.8800469 414.216000
   7172   7182   7184     1   109.8800469 414.216000
   7173   7176   7177     1   109.8000471 387.438400
   7173   7176   7178     1   109.8000471 387.438400
   7174   7173   7176     1   109.5600471 388.275200
   7174   7173   7175     1   108.4600466 328.025600
   7175   7173   7176     1   109.5600471 388.275200
   7177   7176   7179     1   108.7700466 392.459200
   7177   7176   7178     1   107.5800459 329.699200
   7178   7176   7179     1   108.7700466 392.459200
   7182   7185   7186     1   109.8000471 387.438400
   7182   7185   7187     1   109.8000471 387.438400
   7183   7182   7185     1   109.5600471 388.275200
   7183   7182   7184     1   108.4600466 328.025600
   7184   7182   7185     1   109.5600471 388.275200
   7186   7185   7188     1   108.7700466 392.459200
   7186   7185   7187     1   107.5800459 329.699200
   7187   7185   7188     1   108.7700466 392.459200
   7192   7195   7196     1   109.8000471 387.438400
   7192   7195   7197     1   109.8000471 387.438400
   7193   7192   7195     1   109.5600471 388.275200
   7193   7192   7220     1   109.7800468 425.094400
   7193   7192   7194     1   108.4600466 328.025600
   7194   7192   7195     1   109.5600471 388.275200
   7194   7192   7220     1   109.7800468 425.094400
   7195   7198   7199     1   109.5600471 388.275200
   7195   7198   7200     1   109.5600471 388.275200
   7196   7195   7198     1   109.8000471 387.438400
   7196   7195   7197     1   107.5800459 329.699200
   7197   7195   7198     1   109.8000471 387.438400
   7199   7198   7201     1   109.8800469 414.216000
   7199   7198   7200     1   108.4600466 328.025600
   7200   7198   7201     1   109.8800469 414.216000
   7201   7202   7203     1   109.8800469 414.216000
   7201   7202   7204     1   109.8800469 414.216000
   7201   7211   7212     1   109.8800469 414.216000
   7201   7211   7213     1   109.8800469 414.216000
   7202   7205   7206     1   109.8000471 387.438400
   7202   7205   7207     1   109.8000471 387.438400
   7203   7202   7205     1   109.5600471 388.275200
   7203   7202   7204     1   108.4600466 328.025600
   7204   7202   7205     1   109.5600471 388.275200
   7206   7205   7208     1   108.7700466 392.459200
   7206   7205   7207     1   107.5800459 329.699200
   7207   7205   7208     1   108.7700466 392.459200
   7211   7214   7215     1   109.8000471 387.438400
   7211   7214   7216     1   109.8000471 387.438400
   7212   7211   7214     1   109.5600471 388.275200
   7212   7211   7213     1   108.4600466 328.025600
   7213   7211   7214     1   109.5600471 388.275200
   7215   7214   7217     1   108.7700466 392.459200
   7215   7214   7216     1   107.5800459 329.699200
   7216   7214   7217     1   108.7700466 392.459200
   7221   7224   7225     1   109.8000471 387.438400
   7221   7224   7226     1   109.8000471 387.438400
   7222   7221   7224     1   109.5600471 388.275200
   7222   7221   7249     1   109.7800468 425.094400
   7222   7221   7223     1   108.4600466 328.025600
   7223   7221   7224     1   109.5600471 388.275200
   7223   7221   7249     1   109.7800468 425.094400
   7224   7227   7228     1   109.5600471 388.275200
   7224   7227   7229     1   109.5600471 388.275200
   7225   7224   7227     1   109.8000471 387.438400
   7225   7224   7226     1   107.5800459 329.699200
   7226   7224   7227     1   109.8000471 387.438400
   7228   7227   7230     1   109.8800469 414.216000
   7228   7227   7229     1   108.4600466 328.025600
   7229   7227   7230     1   109.8800469 414.216000
   7230   7231   7232     1   109.8800469 414.216000
   7230   7231   7233     1   109.8800469 414.216000
   7230   7240   7241     1   109.8800469 414.216000
   7230   7240   7242     1   109.8800469 414.216000
   7231   7234   7235     1   109.8000471 387.438400
   7231   7234   7236     1   109.8000471 387.438400
   7232   7231   7234     1   109.5600471 388.275200
   7232   7231   7233     1   108.4600466 328.025600
   7233   7231   7234     1   109.5600471 388.275200
   7235   7234   7237     1   108.7700466 392.459200
   7235   7234   7236     1   107.5800459 329.699200
   7236   7234   7237     1   108.7700466 392.459200
   7240   7243   7244     1   109.8000471 387.438400
   7240   7243   7245     1   109.8000471 387.438400
   7241   7240   7243     1   109.5600471 388.275200
   7241   7240   7242     1   108.4600466 328.025600
   7242   7240   7243     1   109.5600471 388.275200
   7244   7243   7246     1   108.7700466 392.459200
   7244   7243   7245     1   107.5800459 329.699200
   7245   7243   7246     1   108.7700466 392.459200
   7250   7253   7254     1   109.8000471 387.438400
   7250   7253   7255     1   109.8000471 387.438400
   7251   7250   7253     1   109.5600471 388.275200
   7251   7250   7278     1   109.7800468 425.094400
   7251   7250   7252     1   108.4600466 328.025600
   7252   7250   7253     1   109.5600471 388.275200
   7252   7250   7278     1   109.7800468 425.094400
   7253   7256   7257     1   109.5600471 388.275200
   7253   7256   7258     1   109.5600471 388.275200
   7254   7253   7256     1   109.8000471 387.438400
   7254   7253   7255     1   107.5800459 329.699200
   7255   7253   7256     1   109.8000471 387.438400
   7257   7256   7259     1   109.8800469 414.216000
   7257   7256   7258     1   108.4600466 328.025600
   7258   7256   7259     1   109.8800469 414.216000
   7259   7260   7261     1   109.8800469 414.216000
   7259   7260   7262     1   109.8800469 414.216000
   7259   7269   7270     1   109.8800469 414.216000
   7259   7269   7271     1   109.8800469 414.216000
   7260   7263   7264     1   109.8000471 387.438400
   7260   7263   7265     1   109.8000471 387.438400
   7261   7260   7263     1   109.5600471 388.275200
   7261   7260   7262     1   108.4600466 328.025600
   7262   7260   7263     1   109.5600471 388.275200
   7264   7263   7266     1   108.7700466 392.459200
   7264   7263   7265     1   107.5800459 329.699200
   7265   7263   7266     1   108.7700466 392.459200
   7269   7272   7273     1   109.8000471 387.438400
   7269   7272   7274     1   109.8000471 387.438400
   7270   7269   7272     1   109.5600471 388.275200
   7270   7269   7271     1   108.4600466 328.025600
   7271   7269   7272     1   109.5600471 388.275200
   7273   7272   7275     1   108.7700466 392.459200
   7273   7272   7274     1   107.5800459 329.699200
   7274   7272   7275     1   108.7700466 392.459200
   7279   7282   7283     1   109.8000471 387.438400
   7279   7282   7284     1   109.8000471 387.438400
   7280   7279   7282     1   109.5600471 388.275200
   7280   7279   7307     1   109.7800468 425.094400
   7280   7279   7281     1   108.4600466 328.025600
   7281   7279   7282     1   109.5600471 388.275200
   7281   7279   7307     1   109.7800468 425.094400
   7282   7285   7286     1   109.5600471 388.275200
   7282   7285   7287     1   109.5600471 388.275200
   7283   7282   7285     1   109.8000471 387.438400
   7283   7282   7284     1   107.5800459 329.699200
   7284   7282   7285     1   109.8000471 387.438400
   7286   7285   7288     1   109.8800469 414.216000
   7286   7285   7287     1   108.4600466 328.025600
   7287   7285   7288     1   109.8800469 414.216000
   7288   7289   7290     1   109.8800469 414.216000
   7288   7289   7291     1   109.8800469 414.216000
   7288   7298   7299     1   109.8800469 414.216000
   7288   7298   7300     1   109.8800469 414.216000
   7289   7292   7293     1   109.8000471 387.438400
   7289   7292   7294     1   109.8000471 387.438400
   7290   7289   7292     1   109.5600471 388.275200
   7290   7289   7291     1   108.4600466 328.025600
   7291   7289   7292     1   109.5600471 388.275200
   7293   7292   7295     1   108.7700466 392.459200
   7293   7292   7294     1   107.5800459 329.699200
   7294   7292   7295     1   108.7700466 392.459200
   7298   7301   7302     1   109.8000471 387.438400
   7298   7301   7303     1   109.8000471 387.438400
   7299   7298   7301     1   109.5600471 388.275200
   7299   7298   7300     1   108.4600466 328.025600
   7300   7298   7301     1   109.5600471 388.275200
   7302   7301   7304     1   108.7700466 392.459200
   7302   7301   7303     1   107.5800459 329.699200
   7303   7301   7304     1   108.7700466 392.459200
   7308   7311   7312     1   109.8000471 387.438400
   7308   7311   7313     1   109.8000471 387.438400
   7309   7308   7311     1   109.5600471 388.275200
   7309   7308   7336     1   109.7800468 425.094400
   7309   7308   7310     1   108.4600466 328.025600
   7310   7308   7311     1   109.5600471 388.275200
   7310   7308   7336     1   109.7800468 425.094400
   7311   7314   7315     1   109.5600471 388.275200
   7311   7314   7316     1   109.5600471 388.275200
   7312   7311   7314     1   109.8000471 387.438400
   7312   7311   7313     1   107.5800459 329.699200
   7313   7311   7314     1   109.8000471 387.438400
   7315   7314   7317     1   109.8800469 414.216000
   7315   7314   7316     1   108.4600466 328.025600
   7316   7314   7317     1   109.8800469 414.216000
   7317   7318   7319     1   109.8800469 414.216000
   7317   7318   7320     1   109.8800469 414.216000
   7317   7327   7328     1   109.8800469 414.216000
   7317   7327   7329     1   109.8800469 414.216000
   7318   7321   7322     1   109.8000471 387.438400
   7318   7321   7323     1   109.8000471 387.438400
   7319   7318   7321     1   109.5600471 388.275200
   7319   7318   7320     1   108.4600466 328.025600
   7320   7318   7321     1   109.5600471 388.275200
   7322   7321   7324     1   108.7700466 392.459200
   7322   7321   7323     1   107.5800459 329.699200
   7323   7321   7324     1   108.7700466 392.459200
   7327   7330   7331     1   109.8000471 387.438400
   7327   7330   7332     1   109.8000471 387.438400
   7328   7327   7330     1   109.5600471 388.275200
   7328   7327   7329     1   108.4600466 328.025600
   7329   7327   7330     1   109.5600471 388.275200
   7331   7330   7333     1   108.7700466 392.459200
   7331   7330   7332     1   107.5800459 329.699200
   7332   7330   7333     1   108.7700466 392.459200
   7337   7340   7341     1   109.8000471 387.438400
   7337   7340   7342     1   109.8000471 387.438400
   7338   7337   7340     1   109.5600471 388.275200
   7338   7337   7365     1   109.7800468 425.094400
   7338   7337   7339     1   108.4600466 328.025600
   7339   7337   7340     1   109.5600471 388.275200
   7339   7337   7365     1   109.7800468 425.094400
   7340   7343   7344     1   109.5600471 388.275200
   7340   7343   7345     1   109.5600471 388.275200
   7341   7340   7343     1   109.8000471 387.438400
   7341   7340   7342     1   107.5800459 329.699200
   7342   7340   7343     1   109.8000471 387.438400
   7344   7343   7346     1   109.8800469 414.216000
   7344   7343   7345     1   108.4600466 328.025600
   7345   7343   7346     1   109.8800469 414.216000
   7346   7347   7348     1   109.8800469 414.216000
   7346   7347   7349     1   109.8800469 414.216000
   7346   7356   7357     1   109.8800469 414.216000
   7346   7356   7358     1   109.8800469 414.216000
   7347   7350   7351     1   109.8000471 387.438400
   7347   7350   7352     1   109.8000471 387.438400
   7348   7347   7350     1   109.5600471 388.275200
   7348   7347   7349     1   108.4600466 328.025600
   7349   7347   7350     1   109.5600471 388.275200
   7351   7350   7353     1   108.7700466 392.459200
   7351   7350   7352     1   107.5800459 329.699200
   7352   7350   7353     1   108.7700466 392.459200
   7356   7359   7360     1   109.8000471 387.438400
   7356   7359   7361     1   109.8000471 387.438400
   7357   7356   7359     1   109.5600471 388.275200
   7357   7356   7358     1   108.4600466 328.025600
   7358   7356   7359     1   109.5600471 388.275200
   7360   7359   7362     1   108.7700466 392.459200
   7360   7359   7361     1   107.5800459 329.699200
   7361   7359   7362     1   108.7700466 392.459200
   7366   7369   7370     1   109.8000471 387.438400
   7366   7369   7371     1   109.8000471 387.438400
   7367   7366   7369     1   109.5600471 388.275200
   7367   7366   7394     1   109.7800468 425.094400
   7367   7366   7368     1   108.4600466 328.025600
   7368   7366   7369     1   109.5600471 388.275200
   7368   7366   7394     1   109.7800468 425.094400
   7369   7372   7373     1   109.5600471 388.275200
   7369   7372   7374     1   109.5600471 388.275200
   7370   7369   7372     1   109.8000471 387.438400
   7370   7369   7371     1   107.5800459 329.699200
   7371   7369   7372     1   109.8000471 387.438400
   7373   7372   7375     1   109.8800469 414.216000
   7373   7372   7374     1   108.4600466 328.025600
   7374   7372   7375     1   109.8800469 414.216000
   7375   7376   7377     1   109.8800469 414.216000
   7375   7376   7378     1   109.8800469 414.216000
   7375   7385   7386     1   109.8800469 414.216000
   7375   7385   7387     1   109.8800469 414.216000
   7376   7379   7380     1   109.8000471 387.438400
   7376   7379   7381     1   109.8000471 387.438400
   7377   7376   7379     1   109.5600471 388.275200
   7377   7376   7378     1   108.4600466 328.025600
   7378   7376   7379     1   109.5600471 388.275200
   7380   7379   7382     1   108.7700466 392.459200
   7380   7379   7381     1   107.5800459 329.699200
   7381   7379   7382     1   108.7700466 392.459200
   7385   7388   7389     1   109.8000471 387.438400
   7385   7388   7390     1   109.8000471 387.438400
   7386   7385   7388     1   109.5600471 388.275200
   7386   7385   7387     1   108.4600466 328.025600
   7387   7385   7388     1   109.5600471 388.275200
   7389   7388   7391     1   108.7700466 392.459200
   7389   7388   7390     1   107.5800459 329.699200
   7390   7388   7391     1   108.7700466 392.459200
   7395   7398   7399     1   109.8000471 387.438400
   7395   7398   7400     1   109.8000471 387.438400
   7396   7395   7398     1   109.5600471 388.275200
   7396   7395   7423     1   109.7800468 425.094400
   7396   7395   7397     1   108.4600466 328.025600
   7397   7395   7398     1   109.5600471 388.275200
   7397   7395   7423     1   109.7800468 425.094400
   7398   7401   7402     1   109.5600471 388.275200
   7398   7401   7403     1   109.5600471 388.275200
   7399   7398   7401     1   109.8000471 387.438400
   7399   7398   7400     1   107.5800459 329.699200
   7400   7398   7401     1   109.8000471 387.438400
   7402   7401   7404     1   109.8800469 414.216000
   7402   7401   7403     1   108.4600466 328.025600
   7403   7401   7404     1   109.8800469 414.216000
   7404   7405   7406     1   109.8800469 414.216000
   7404   7405   7407     1   109.8800469 414.216000
   7404   7414   7415     1   109.8800469 414.216000
   7404   7414   7416     1   109.8800469 414.216000
   7405   7408   7409     1   109.8000471 387.438400
   7405   7408   7410     1   109.8000471 387.438400
   7406   7405   7408     1   109.5600471 388.275200
   7406   7405   7407     1   108.4600466 328.025600
   7407   7405   7408     1   109.5600471 388.275200
   7409   7408   7411     1   108.7700466 392.459200
   7409   7408   7410     1   107.5800459 329.699200
   7410   7408   7411     1   108.7700466 392.459200
   7414   7417   7418     1   109.8000471 387.438400
   7414   7417   7419     1   109.8000471 387.438400
   7415   7414   7417     1   109.5600471 388.275200
   7415   7414   7416     1   108.4600466 328.025600
   7416   7414   7417     1   109.5600471 388.275200
   7418   7417   7420     1   108.7700466 392.459200
   7418   7417   7419     1   107.5800459 329.699200
   7419   7417   7420     1   108.7700466 392.459200
   7424   7427   7428     1   109.8000471 387.438400
   7424   7427   7429     1   109.8000471 387.438400
   7425   7424   7427     1   109.5600471 388.275200
   7425   7424   7452     1   109.7800468 425.094400
   7425   7424   7426     1   108.4600466 328.025600
   7426   7424   7427     1   109.5600471 388.275200
   7426   7424   7452     1   109.7800468 425.094400
   7427   7430   7431     1   109.5600471 388.275200
   7427   7430   7432     1   109.5600471 388.275200
   7428   7427   7430     1   109.8000471 387.438400
   7428   7427   7429     1   107.5800459 329.699200
   7429   7427   7430     1   109.8000471 387.438400
   7431   7430   7433     1   109.8800469 414.216000
   7431   7430   7432     1   108.4600466 328.025600
   7432   7430   7433     1   109.8800469 414.216000
   7433   7434   7435     1   109.8800469 414.216000
   7433   7434   7436     1   109.8800469 414.216000
   7433   7443   7444     1   109.8800469 414.216000
   7433   7443   7445     1   109.8800469 414.216000
   7434   7437   7438     1   109.8000471 387.438400
   7434   7437   7439     1   109.8000471 387.438400
   7435   7434   7437     1   109.5600471 388.275200
   7435   7434   7436     1   108.4600466 328.025600
   7436   7434   7437     1   109.5600471 388.275200
   7438   7437   7440     1   108.7700466 392.459200
   7438   7437   7439     1   107.5800459 329.699200
   7439   7437   7440     1   108.7700466 392.459200
   7443   7446   7447     1   109.8000471 387.438400
   7443   7446   7448     1   109.8000471 387.438400
   7444   7443   7446     1   109.5600471 388.275200
   7444   7443   7445     1   108.4600466 328.025600
   7445   7443   7446     1   109.5600471 388.275200
   7447   7446   7449     1   108.7700466 392.459200
   7447   7446   7448     1   107.5800459 329.699200
   7448   7446   7449     1   108.7700466 392.459200
   7453   7456   7457     1   109.8000471 387.438400
   7453   7456   7458     1   109.8000471 387.438400
   7454   7453   7456     1   109.5600471 388.275200
   7454   7453   7481     1   109.7800468 425.094400
   7454   7453   7455     1   108.4600466 328.025600
   7455   7453   7456     1   109.5600471 388.275200
   7455   7453   7481     1   109.7800468 425.094400
   7456   7459   7460     1   109.5600471 388.275200
   7456   7459   7461     1   109.5600471 388.275200
   7457   7456   7459     1   109.8000471 387.438400
   7457   7456   7458     1   107.5800459 329.699200
   7458   7456   7459     1   109.8000471 387.438400
   7460   7459   7462     1   109.8800469 414.216000
   7460   7459   7461     1   108.4600466 328.025600
   7461   7459   7462     1   109.8800469 414.216000
   7462   7463   7464     1   109.8800469 414.216000
   7462   7463   7465     1   109.8800469 414.216000
   7462   7472   7473     1   109.8800469 414.216000
   7462   7472   7474     1   109.8800469 414.216000
   7463   7466   7467     1   109.8000471 387.438400
   7463   7466   7468     1   109.8000471 387.438400
   7464   7463   7466     1   109.5600471 388.275200
   7464   7463   7465     1   108.4600466 328.025600
   7465   7463   7466     1   109.5600471 388.275200
   7467   7466   7469     1   108.7700466 392.459200
   7467   7466   7468     1   107.5800459 329.699200
   7468   7466   7469     1   108.7700466 392.459200
   7472   7475   7476     1   109.8000471 387.438400
   7472   7475   7477     1   109.8000471 387.438400
   7473   7472   7475     1   109.5600471 388.275200
   7473   7472   7474     1   108.4600466 328.025600
   7474   7472   7475     1   109.5600471 388.275200
   7476   7475   7478     1   108.7700466 392.459200
   7476   7475   7477     1   107.5800459 329.699200
   7477   7475   7478     1   108.7700466 392.459200
   7482   7485   7486     1   109.8000471 387.438400
   7482   7485   7487     1   109.8000471 387.438400
   7483   7482   7485     1   109.5600471 388.275200
   7483   7482   7510     1   109.7800468 425.094400
   7483   7482   7484     1   108.4600466 328.025600
   7484   7482   7485     1   109.5600471 388.275200
   7484   7482   7510     1   109.7800468 425.094400
   7485   7488   7489     1   109.5600471 388.275200
   7485   7488   7490     1   109.5600471 388.275200
   7486   7485   7488     1   109.8000471 387.438400
   7486   7485   7487     1   107.5800459 329.699200
   7487   7485   7488     1   109.8000471 387.438400
   7489   7488   7491     1   109.8800469 414.216000
   7489   7488   7490     1   108.4600466 328.025600
   7490   7488   7491     1   109.8800469 414.216000
   7491   7492   7493     1   109.8800469 414.216000
   7491   7492   7494     1   109.8800469 414.216000
   7491   7501   7502     1   109.8800469 414.216000
   7491   7501   7503     1   109.8800469 414.216000
   7492   7495   7496     1   109.8000471 387.438400
   7492   7495   7497     1   109.8000471 387.438400
   7493   7492   7495     1   109.5600471 388.275200
   7493   7492   7494     1   108.4600466 328.025600
   7494   7492   7495     1   109.5600471 388.275200
   7496   7495   7498     1   108.7700466 392.459200
   7496   7495   7497     1   107.5800459 329.699200
   7497   7495   7498     1   108.7700466 392.459200
   7501   7504   7505     1   109.8000471 387.438400
   7501   7504   7506     1   109.8000471 387.438400
   7502   7501   7504     1   109.5600471 388.275200
   7502   7501   7503     1   108.4600466 328.025600
   7503   7501   7504     1   109.5600471 388.275200
   7505   7504   7507     1   108.7700466 392.459200
   7505   7504   7506     1   107.5800459 329.699200
   7506   7504   7507     1   108.7700466 392.459200
   7511   7514   7515     1   109.8000471 387.438400
   7511   7514   7516     1   109.8000471 387.438400
   7512   7511   7514     1   109.5600471 388.275200
   7512   7511   7539     1   109.7800468 425.094400
   7512   7511   7513     1   108.4600466 328.025600
   7513   7511   7514     1   109.5600471 388.275200
   7513   7511   7539     1   109.7800468 425.094400
   7514   7517   7518     1   109.5600471 388.275200
   7514   7517   7519     1   109.5600471 388.275200
   7515   7514   7517     1   109.8000471 387.438400
   7515   7514   7516     1   107.5800459 329.699200
   7516   7514   7517     1   109.8000471 387.438400
   7518   7517   7520     1   109.8800469 414.216000
   7518   7517   7519     1   108.4600466 328.025600
   7519   7517   7520     1   109.8800469 414.216000
   7520   7521   7522     1   109.8800469 414.216000
   7520   7521   7523     1   109.8800469 414.216000
   7520   7530   7531     1   109.8800469 414.216000
   7520   7530   7532     1   109.8800469 414.216000
   7521   7524   7525     1   109.8000471 387.438400
   7521   7524   7526     1   109.8000471 387.438400
   7522   7521   7524     1   109.5600471 388.275200
   7522   7521   7523     1   108.4600466 328.025600
   7523   7521   7524     1   109.5600471 388.275200
   7525   7524   7527     1   108.7700466 392.459200
   7525   7524   7526     1   107.5800459 329.699200
   7526   7524   7527     1   108.7700466 392.459200
   7530   7533   7534     1   109.8000471 387.438400
   7530   7533   7535     1   109.8000471 387.438400
   7531   7530   7533     1   109.5600471 388.275200
   7531   7530   7532     1   108.4600466 328.025600
   7532   7530   7533     1   109.5600471 388.275200
   7534   7533   7536     1   108.7700466 392.459200
   7534   7533   7535     1   107.5800459 329.699200
   7535   7533   7536     1   108.7700466 392.459200
   7540   7543   7544     1   109.8000471 387.438400
   7540   7543   7545     1   109.8000471 387.438400
   7541   7540   7543     1   109.5600471 388.275200
   7541   7540   7568     1   109.7800468 425.094400
   7541   7540   7542     1   108.4600466 328.025600
   7542   7540   7543     1   109.5600471 388.275200
   7542   7540   7568     1   109.7800468 425.094400
   7543   7546   7547     1   109.5600471 388.275200
   7543   7546   7548     1   109.5600471 388.275200
   7544   7543   7546     1   109.8000471 387.438400
   7544   7543   7545     1   107.5800459 329.699200
   7545   7543   7546     1   109.8000471 387.438400
   7547   7546   7549     1   109.8800469 414.216000
   7547   7546   7548     1   108.4600466 328.025600
   7548   7546   7549     1   109.8800469 414.216000
   7549   7550   7551     1   109.8800469 414.216000
   7549   7550   7552     1   109.8800469 414.216000
   7549   7559   7560     1   109.8800469 414.216000
   7549   7559   7561     1   109.8800469 414.216000
   7550   7553   7554     1   109.8000471 387.438400
   7550   7553   7555     1   109.8000471 387.438400
   7551   7550   7553     1   109.5600471 388.275200
   7551   7550   7552     1   108.4600466 328.025600
   7552   7550   7553     1   109.5600471 388.275200
   7554   7553   7556     1   108.7700466 392.459200
   7554   7553   7555     1   107.5800459 329.699200
   7555   7553   7556     1   108.7700466 392.459200
   7559   7562   7563     1   109.8000471 387.438400
   7559   7562   7564     1   109.8000471 387.438400
   7560   7559   7562     1   109.5600471 388.275200
   7560   7559   7561     1   108.4600466 328.025600
   7561   7559   7562     1   109.5600471 388.275200
   7563   7562   7565     1   108.7700466 392.459200
   7563   7562   7564     1   107.5800459 329.699200
   7564   7562   7565     1   108.7700466 392.459200
   7569   7572   7573     1   109.8000471 387.438400
   7569   7572   7574     1   109.8000471 387.438400
   7570   7569   7572     1   109.5600471 388.275200
   7570   7569   7597     1   109.7800468 425.094400
   7570   7569   7571     1   108.4600466 328.025600
   7571   7569   7572     1   109.5600471 388.275200
   7571   7569   7597     1   109.7800468 425.094400
   7572   7575   7576     1   109.5600471 388.275200
   7572   7575   7577     1   109.5600471 388.275200
   7573   7572   7575     1   109.8000471 387.438400
   7573   7572   7574     1   107.5800459 329.699200
   7574   7572   7575     1   109.8000471 387.438400
   7576   7575   7578     1   109.8800469 414.216000
   7576   7575   7577     1   108.4600466 328.025600
   7577   7575   7578     1   109.8800469 414.216000
   7578   7579   7580     1   109.8800469 414.216000
   7578   7579   7581     1   109.8800469 414.216000
   7578   7588   7589     1   109.8800469 414.216000
   7578   7588   7590     1   109.8800469 414.216000
   7579   7582   7583     1   109.8000471 387.438400
   7579   7582   7584     1   109.8000471 387.438400
   7580   7579   7582     1   109.5600471 388.275200
   7580   7579   7581     1   108.4600466 328.025600
   7581   7579   7582     1   109.5600471 388.275200
   7583   7582   7585     1   108.7700466 392.459200
   7583   7582   7584     1   107.5800459 329.699200
   7584   7582   7585     1   108.7700466 392.459200
   7588   7591   7592     1   109.8000471 387.438400
   7588   7591   7593     1   109.8000471 387.438400
   7589   7588   7591     1   109.5600471 388.275200
   7589   7588   7590     1   108.4600466 328.025600
   7590   7588   7591     1   109.5600471 388.275200
   7592   7591   7594     1   108.7700466 392.459200
   7592   7591   7593     1   107.5800459 329.699200
   7593   7591   7594     1   108.7700466 392.459200
   7598   7601   7602     1   109.8000471 387.438400
   7598   7601   7603     1   109.8000471 387.438400
   7599   7598   7601     1   109.5600471 388.275200
   7599   7598   7626     1   109.7800468 425.094400
   7599   7598   7600     1   108.4600466 328.025600
   7600   7598   7601     1   109.5600471 388.275200
   7600   7598   7626     1   109.7800468 425.094400
   7601   7604   7605     1   109.5600471 388.275200
   7601   7604   7606     1   109.5600471 388.275200
   7602   7601   7604     1   109.8000471 387.438400
   7602   7601   7603     1   107.5800459 329.699200
   7603   7601   7604     1   109.8000471 387.438400
   7605   7604   7607     1   109.8800469 414.216000
   7605   7604   7606     1   108.4600466 328.025600
   7606   7604   7607     1   109.8800469 414.216000
   7607   7608   7609     1   109.8800469 414.216000
   7607   7608   7610     1   109.8800469 414.216000
   7607   7617   7618     1   109.8800469 414.216000
   7607   7617   7619     1   109.8800469 414.216000
   7608   7611   7612     1   109.8000471 387.438400
   7608   7611   7613     1   109.8000471 387.438400
   7609   7608   7611     1   109.5600471 388.275200
   7609   7608   7610     1   108.4600466 328.025600
   7610   7608   7611     1   109.5600471 388.275200
   7612   7611   7614     1   108.7700466 392.459200
   7612   7611   7613     1   107.5800459 329.699200
   7613   7611   7614     1   108.7700466 392.459200
   7617   7620   7621     1   109.8000471 387.438400
   7617   7620   7622     1   109.8000471 387.438400
   7618   7617   7620     1   109.5600471 388.275200
   7618   7617   7619     1   108.4600466 328.025600
   7619   7617   7620     1   109.5600471 388.275200
   7621   7620   7623     1   108.7700466 392.459200
   7621   7620   7622     1   107.5800459 329.699200
   7622   7620   7623     1   108.7700466 392.459200
   7627   7630   7631     1   109.8000471 387.438400
   7627   7630   7632     1   109.8000471 387.438400
   7628   7627   7630     1   109.5600471 388.275200
   7628   7627   7655     1   109.7800468 425.094400
   7628   7627   7629     1   108.4600466 328.025600
   7629   7627   7630     1   109.5600471 388.275200
   7629   7627   7655     1   109.7800468 425.094400
   7630   7633   7634     1   109.5600471 388.275200
   7630   7633   7635     1   109.5600471 388.275200
   7631   7630   7633     1   109.8000471 387.438400
   7631   7630   7632     1   107.5800459 329.699200
   7632   7630   7633     1   109.8000471 387.438400
   7634   7633   7636     1   109.8800469 414.216000
   7634   7633   7635     1   108.4600466 328.025600
   7635   7633   7636     1   109.8800469 414.216000
   7636   7637   7638     1   109.8800469 414.216000
   7636   7637   7639     1   109.8800469 414.216000
   7636   7646   7647     1   109.8800469 414.216000
   7636   7646   7648     1   109.8800469 414.216000
   7637   7640   7641     1   109.8000471 387.438400
   7637   7640   7642     1   109.8000471 387.438400
   7638   7637   7640     1   109.5600471 388.275200
   7638   7637   7639     1   108.4600466 328.025600
   7639   7637   7640     1   109.5600471 388.275200
   7641   7640   7643     1   108.7700466 392.459200
   7641   7640   7642     1   107.5800459 329.699200
   7642   7640   7643     1   108.7700466 392.459200
   7646   7649   7650     1   109.8000471 387.438400
   7646   7649   7651     1   109.8000471 387.438400
   7647   7646   7649     1   109.5600471 388.275200
   7647   7646   7648     1   108.4600466 328.025600
   7648   7646   7649     1   109.5600471 388.275200
   7650   7649   7652     1   108.7700466 392.459200
   7650   7649   7651     1   107.5800459 329.699200
   7651   7649   7652     1   108.7700466 392.459200
   7656   7659   7660     1   109.8000471 387.438400
   7656   7659   7661     1   109.8000471 387.438400
   7657   7656   7659     1   109.5600471 388.275200
   7657   7656   7684     1   109.7800468 425.094400
   7657   7656   7658     1   108.4600466 328.025600
   7658   7656   7659     1   109.5600471 388.275200
   7658   7656   7684     1   109.7800468 425.094400
   7659   7662   7663     1   109.5600471 388.275200
   7659   7662   7664     1   109.5600471 388.275200
   7660   7659   7662     1   109.8000471 387.438400
   7660   7659   7661     1   107.5800459 329.699200
   7661   7659   7662     1   109.8000471 387.438400
   7663   7662   7665     1   109.8800469 414.216000
   7663   7662   7664     1   108.4600466 328.025600
   7664   7662   7665     1   109.8800469 414.216000
   7665   7666   7667     1   109.8800469 414.216000
   7665   7666   7668     1   109.8800469 414.216000
   7665   7675   7676     1   109.8800469 414.216000
   7665   7675   7677     1   109.8800469 414.216000
   7666   7669   7670     1   109.8000471 387.438400
   7666   7669   7671     1   109.8000471 387.438400
   7667   7666   7669     1   109.5600471 388.275200
   7667   7666   7668     1   108.4600466 328.025600
   7668   7666   7669     1   109.5600471 388.275200
   7670   7669   7672     1   108.7700466 392.459200
   7670   7669   7671     1   107.5800459 329.699200
   7671   7669   7672     1   108.7700466 392.459200
   7675   7678   7679     1   109.8000471 387.438400
   7675   7678   7680     1   109.8000471 387.438400
   7676   7675   7678     1   109.5600471 388.275200
   7676   7675   7677     1   108.4600466 328.025600
   7677   7675   7678     1   109.5600471 388.275200
   7679   7678   7681     1   108.7700466 392.459200
   7679   7678   7680     1   107.5800459 329.699200
   7680   7678   7681     1   108.7700466 392.459200
   7685   7688   7689     1   109.8000471 387.438400
   7685   7688   7690     1   109.8000471 387.438400
   7686   7685   7688     1   109.5600471 388.275200
   7686   7685   7713     1   109.7800468 425.094400
   7686   7685   7687     1   108.4600466 328.025600
   7687   7685   7688     1   109.5600471 388.275200
   7687   7685   7713     1   109.7800468 425.094400
   7688   7691   7692     1   109.5600471 388.275200
   7688   7691   7693     1   109.5600471 388.275200
   7689   7688   7691     1   109.8000471 387.438400
   7689   7688   7690     1   107.5800459 329.699200
   7690   7688   7691     1   109.8000471 387.438400
   7692   7691   7694     1   109.8800469 414.216000
   7692   7691   7693     1   108.4600466 328.025600
   7693   7691   7694     1   109.8800469 414.216000
   7694   7695   7696     1   109.8800469 414.216000
   7694   7695   7697     1   109.8800469 414.216000
   7694   7704   7705     1   109.8800469 414.216000
   7694   7704   7706     1   109.8800469 414.216000
   7695   7698   7699     1   109.8000471 387.438400
   7695   7698   7700     1   109.8000471 387.438400
   7696   7695   7698     1   109.5600471 388.275200
   7696   7695   7697     1   108.4600466 328.025600
   7697   7695   7698     1   109.5600471 388.275200
   7699   7698   7701     1   108.7700466 392.459200
   7699   7698   7700     1   107.5800459 329.699200
   7700   7698   7701     1   108.7700466 392.459200
   7704   7707   7708     1   109.8000471 387.438400
   7704   7707   7709     1   109.8000471 387.438400
   7705   7704   7707     1   109.5600471 388.275200
   7705   7704   7706     1   108.4600466 328.025600
   7706   7704   7707     1   109.5600471 388.275200
   7708   7707   7710     1   108.7700466 392.459200
   7708   7707   7709     1   107.5800459 329.699200
   7709   7707   7710     1   108.7700466 392.459200
   7714   7717   7718     1   109.8000471 387.438400
   7714   7717   7719     1   109.8000471 387.438400
   7715   7714   7717     1   109.5600471 388.275200
   7715   7714   7742     1   109.7800468 425.094400
   7715   7714   7716     1   108.4600466 328.025600
   7716   7714   7717     1   109.5600471 388.275200
   7716   7714   7742     1   109.7800468 425.094400
   7717   7720   7721     1   109.5600471 388.275200
   7717   7720   7722     1   109.5600471 388.275200
   7718   7717   7720     1   109.8000471 387.438400
   7718   7717   7719     1   107.5800459 329.699200
   7719   7717   7720     1   109.8000471 387.438400
   7721   7720   7723     1   109.8800469 414.216000
   7721   7720   7722     1   108.4600466 328.025600
   7722   7720   7723     1   109.8800469 414.216000
   7723   7724   7725     1   109.8800469 414.216000
   7723   7724   7726     1   109.8800469 414.216000
   7723   7733   7734     1   109.8800469 414.216000
   7723   7733   7735     1   109.8800469 414.216000
   7724   7727   7728     1   109.8000471 387.438400
   7724   7727   7729     1   109.8000471 387.438400
   7725   7724   7727     1   109.5600471 388.275200
   7725   7724   7726     1   108.4600466 328.025600
   7726   7724   7727     1   109.5600471 388.275200
   7728   7727   7730     1   108.7700466 392.459200
   7728   7727   7729     1   107.5800459 329.699200
   7729   7727   7730     1   108.7700466 392.459200
   7733   7736   7737     1   109.8000471 387.438400
   7733   7736   7738     1   109.8000471 387.438400
   7734   7733   7736     1   109.5600471 388.275200
   7734   7733   7735     1   108.4600466 328.025600
   7735   7733   7736     1   109.5600471 388.275200
   7737   7736   7739     1   108.7700466 392.459200
   7737   7736   7738     1   107.5800459 329.699200
   7738   7736   7739     1   108.7700466 392.459200
   7743   7746   7747     1   109.8000471 387.438400
   7743   7746   7748     1   109.8000471 387.438400
   7744   7743   7746     1   109.5600471 388.275200
   7744   7743   7771     1   109.7800468 425.094400
   7744   7743   7745     1   108.4600466 328.025600
   7745   7743   7746     1   109.5600471 388.275200
   7745   7743   7771     1   109.7800468 425.094400
   7746   7749   7750     1   109.5600471 388.275200
   7746   7749   7751     1   109.5600471 388.275200
   7747   7746   7749     1   109.8000471 387.438400
   7747   7746   7748     1   107.5800459 329.699200
   7748   7746   7749     1   109.8000471 387.438400
   7750   7749   7752     1   109.8800469 414.216000
   7750   7749   7751     1   108.4600466 328.025600
   7751   7749   7752     1   109.8800469 414.216000
   7752   7753   7754     1   109.8800469 414.216000
   7752   7753   7755     1   109.8800469 414.216000
   7752   7762   7763     1   109.8800469 414.216000
   7752   7762   7764     1   109.8800469 414.216000
   7753   7756   7757     1   109.8000471 387.438400
   7753   7756   7758     1   109.8000471 387.438400
   7754   7753   7756     1   109.5600471 388.275200
   7754   7753   7755     1   108.4600466 328.025600
   7755   7753   7756     1   109.5600471 388.275200
   7757   7756   7759     1   108.7700466 392.459200
   7757   7756   7758     1   107.5800459 329.699200
   7758   7756   7759     1   108.7700466 392.459200
   7762   7765   7766     1   109.8000471 387.438400
   7762   7765   7767     1   109.8000471 387.438400
   7763   7762   7765     1   109.5600471 388.275200
   7763   7762   7764     1   108.4600466 328.025600
   7764   7762   7765     1   109.5600471 388.275200
   7766   7765   7768     1   108.7700466 392.459200
   7766   7765   7767     1   107.5800459 329.699200
   7767   7765   7768     1   108.7700466 392.459200
   7772   7775   7776     1   109.8000471 387.438400
   7772   7775   7777     1   109.8000471 387.438400
   7773   7772   7775     1   109.5600471 388.275200
   7773   7772   7800     1   109.7800468 425.094400
   7773   7772   7774     1   108.4600466 328.025600
   7774   7772   7775     1   109.5600471 388.275200
   7774   7772   7800     1   109.7800468 425.094400
   7775   7778   7779     1   109.5600471 388.275200
   7775   7778   7780     1   109.5600471 388.275200
   7776   7775   7778     1   109.8000471 387.438400
   7776   7775   7777     1   107.5800459 329.699200
   7777   7775   7778     1   109.8000471 387.438400
   7779   7778   7781     1   109.8800469 414.216000
   7779   7778   7780     1   108.4600466 328.025600
   7780   7778   7781     1   109.8800469 414.216000
   7781   7782   7783     1   109.8800469 414.216000
   7781   7782   7784     1   109.8800469 414.216000
   7781   7791   7792     1   109.8800469 414.216000
   7781   7791   7793     1   109.8800469 414.216000
   7782   7785   7786     1   109.8000471 387.438400
   7782   7785   7787     1   109.8000471 387.438400
   7783   7782   7785     1   109.5600471 388.275200
   7783   7782   7784     1   108.4600466 328.025600
   7784   7782   7785     1   109.5600471 388.275200
   7786   7785   7788     1   108.7700466 392.459200
   7786   7785   7787     1   107.5800459 329.699200
   7787   7785   7788     1   108.7700466 392.459200
   7791   7794   7795     1   109.8000471 387.438400
   7791   7794   7796     1   109.8000471 387.438400
   7792   7791   7794     1   109.5600471 388.275200
   7792   7791   7793     1   108.4600466 328.025600
   7793   7791   7794     1   109.5600471 388.275200
   7795   7794   7797     1   108.7700466 392.459200
   7795   7794   7796     1   107.5800459 329.699200
   7796   7794   7797     1   108.7700466 392.459200
   7801   7804   7805     1   109.8000471 387.438400
   7801   7804   7806     1   109.8000471 387.438400
   7802   7801   7804     1   109.5600471 388.275200
   7802   7801   7829     1   109.7800468 425.094400
   7802   7801   7803     1   108.4600466 328.025600
   7803   7801   7804     1   109.5600471 388.275200
   7803   7801   7829     1   109.7800468 425.094400
   7804   7807   7808     1   109.5600471 388.275200
   7804   7807   7809     1   109.5600471 388.275200
   7805   7804   7807     1   109.8000471 387.438400
   7805   7804   7806     1   107.5800459 329.699200
   7806   7804   7807     1   109.8000471 387.438400
   7808   7807   7810     1   109.8800469 414.216000
   7808   7807   7809     1   108.4600466 328.025600
   7809   7807   7810     1   109.8800469 414.216000
   7810   7811   7812     1   109.8800469 414.216000
   7810   7811   7813     1   109.8800469 414.216000
   7810   7820   7821     1   109.8800469 414.216000
   7810   7820   7822     1   109.8800469 414.216000
   7811   7814   7815     1   109.8000471 387.438400
   7811   7814   7816     1   109.8000471 387.438400
   7812   7811   7814     1   109.5600471 388.275200
   7812   7811   7813     1   108.4600466 328.025600
   7813   7811   7814     1   109.5600471 388.275200
   7815   7814   7817     1   108.7700466 392.459200
   7815   7814   7816     1   107.5800459 329.699200
   7816   7814   7817     1   108.7700466 392.459200
   7820   7823   7824     1   109.8000471 387.438400
   7820   7823   7825     1   109.8000471 387.438400
   7821   7820   7823     1   109.5600471 388.275200
   7821   7820   7822     1   108.4600466 328.025600
   7822   7820   7823     1   109.5600471 388.275200
   7824   7823   7826     1   108.7700466 392.459200
   7824   7823   7825     1   107.5800459 329.699200
   7825   7823   7826     1   108.7700466 392.459200
   7830   7833   7834     1   109.8000471 387.438400
   7830   7833   7835     1   109.8000471 387.438400
   7831   7830   7833     1   109.5600471 388.275200
   7831   7830   7858     1   109.7800468 425.094400
   7831   7830   7832     1   108.4600466 328.025600
   7832   7830   7833     1   109.5600471 388.275200
   7832   7830   7858     1   109.7800468 425.094400
   7833   7836   7837     1   109.5600471 388.275200
   7833   7836   7838     1   109.5600471 388.275200
   7834   7833   7836     1   109.8000471 387.438400
   7834   7833   7835     1   107.5800459 329.699200
   7835   7833   7836     1   109.8000471 387.438400
   7837   7836   7839     1   109.8800469 414.216000
   7837   7836   7838     1   108.4600466 328.025600
   7838   7836   7839     1   109.8800469 414.216000
   7839   7840   7841     1   109.8800469 414.216000
   7839   7840   7842     1   109.8800469 414.216000
   7839   7849   7850     1   109.8800469 414.216000
   7839   7849   7851     1   109.8800469 414.216000
   7840   7843   7844     1   109.8000471 387.438400
   7840   7843   7845     1   109.8000471 387.438400
   7841   7840   7843     1   109.5600471 388.275200
   7841   7840   7842     1   108.4600466 328.025600
   7842   7840   7843     1   109.5600471 388.275200
   7844   7843   7846     1   108.7700466 392.459200
   7844   7843   7845     1   107.5800459 329.699200
   7845   7843   7846     1   108.7700466 392.459200
   7849   7852   7853     1   109.8000471 387.438400
   7849   7852   7854     1   109.8000471 387.438400
   7850   7849   7852     1   109.5600471 388.275200
   7850   7849   7851     1   108.4600466 328.025600
   7851   7849   7852     1   109.5600471 388.275200
   7853   7852   7855     1   108.7700466 392.459200
   7853   7852   7854     1   107.5800459 329.699200
   7854   7852   7855     1   108.7700466 392.459200
   7859   7862   7863     1   109.8000471 387.438400
   7859   7862   7864     1   109.8000471 387.438400
   7860   7859   7862     1   109.5600471 388.275200
   7860   7859   7887     1   109.7800468 425.094400
   7860   7859   7861     1   108.4600466 328.025600
   7861   7859   7862     1   109.5600471 388.275200
   7861   7859   7887     1   109.7800468 425.094400
   7862   7865   7866     1   109.5600471 388.275200
   7862   7865   7867     1   109.5600471 388.275200
   7863   7862   7865     1   109.8000471 387.438400
   7863   7862   7864     1   107.5800459 329.699200
   7864   7862   7865     1   109.8000471 387.438400
   7866   7865   7868     1   109.8800469 414.216000
   7866   7865   7867     1   108.4600466 328.025600
   7867   7865   7868     1   109.8800469 414.216000
   7868   7869   7870     1   109.8800469 414.216000
   7868   7869   7871     1   109.8800469 414.216000
   7868   7878   7879     1   109.8800469 414.216000
   7868   7878   7880     1   109.8800469 414.216000
   7869   7872   7873     1   109.8000471 387.438400
   7869   7872   7874     1   109.8000471 387.438400
   7870   7869   7872     1   109.5600471 388.275200
   7870   7869   7871     1   108.4600466 328.025600
   7871   7869   7872     1   109.5600471 388.275200
   7873   7872   7875     1   108.7700466 392.459200
   7873   7872   7874     1   107.5800459 329.699200
   7874   7872   7875     1   108.7700466 392.459200
   7878   7881   7882     1   109.8000471 387.438400
   7878   7881   7883     1   109.8000471 387.438400
   7879   7878   7881     1   109.5600471 388.275200
   7879   7878   7880     1   108.4600466 328.025600
   7880   7878   7881     1   109.5600471 388.275200
   7882   7881   7884     1   108.7700466 392.459200
   7882   7881   7883     1   107.5800459 329.699200
   7883   7881   7884     1   108.7700466 392.459200
   7888   7891   7892     1   109.8000471 387.438400
   7888   7891   7893     1   109.8000471 387.438400
   7889   7888   7891     1   109.5600471 388.275200
   7889   7888   7916     1   109.7800468 425.094400
   7889   7888   7890     1   108.4600466 328.025600
   7890   7888   7891     1   109.5600471 388.275200
   7890   7888   7916     1   109.7800468 425.094400
   7891   7894   7895     1   109.5600471 388.275200
   7891   7894   7896     1   109.5600471 388.275200
   7892   7891   7894     1   109.8000471 387.438400
   7892   7891   7893     1   107.5800459 329.699200
   7893   7891   7894     1   109.8000471 387.438400
   7895   7894   7897     1   109.8800469 414.216000
   7895   7894   7896     1   108.4600466 328.025600
   7896   7894   7897     1   109.8800469 414.216000
   7897   7898   7899     1   109.8800469 414.216000
   7897   7898   7900     1   109.8800469 414.216000
   7897   7907   7908     1   109.8800469 414.216000
   7897   7907   7909     1   109.8800469 414.216000
   7898   7901   7902     1   109.8000471 387.438400
   7898   7901   7903     1   109.8000471 387.438400
   7899   7898   7901     1   109.5600471 388.275200
   7899   7898   7900     1   108.4600466 328.025600
   7900   7898   7901     1   109.5600471 388.275200
   7902   7901   7904     1   108.7700466 392.459200
   7902   7901   7903     1   107.5800459 329.699200
   7903   7901   7904     1   108.7700466 392.459200
   7907   7910   7911     1   109.8000471 387.438400
   7907   7910   7912     1   109.8000471 387.438400
   7908   7907   7910     1   109.5600471 388.275200
   7908   7907   7909     1   108.4600466 328.025600
   7909   7907   7910     1   109.5600471 388.275200
   7911   7910   7913     1   108.7700466 392.459200
   7911   7910   7912     1   107.5800459 329.699200
   7912   7910   7913     1   108.7700466 392.459200
   7917   7920   7921     1   109.8000471 387.438400
   7917   7920   7922     1   109.8000471 387.438400
   7918   7917   7920     1   109.5600471 388.275200
   7918   7917   7945     1   109.7800468 425.094400
   7918   7917   7919     1   108.4600466 328.025600
   7919   7917   7920     1   109.5600471 388.275200
   7919   7917   7945     1   109.7800468 425.094400
   7920   7923   7924     1   109.5600471 388.275200
   7920   7923   7925     1   109.5600471 388.275200
   7921   7920   7923     1   109.8000471 387.438400
   7921   7920   7922     1   107.5800459 329.699200
   7922   7920   7923     1   109.8000471 387.438400
   7924   7923   7926     1   109.8800469 414.216000
   7924   7923   7925     1   108.4600466 328.025600
   7925   7923   7926     1   109.8800469 414.216000
   7926   7927   7928     1   109.8800469 414.216000
   7926   7927   7929     1   109.8800469 414.216000
   7926   7936   7937     1   109.8800469 414.216000
   7926   7936   7938     1   109.8800469 414.216000
   7927   7930   7931     1   109.8000471 387.438400
   7927   7930   7932     1   109.8000471 387.438400
   7928   7927   7930     1   109.5600471 388.275200
   7928   7927   7929     1   108.4600466 328.025600
   7929   7927   7930     1   109.5600471 388.275200
   7931   7930   7933     1   108.7700466 392.459200
   7931   7930   7932     1   107.5800459 329.699200
   7932   7930   7933     1   108.7700466 392.459200
   7936   7939   7940     1   109.8000471 387.438400
   7936   7939   7941     1   109.8000471 387.438400
   7937   7936   7939     1   109.5600471 388.275200
   7937   7936   7938     1   108.4600466 328.025600
   7938   7936   7939     1   109.5600471 388.275200
   7940   7939   7942     1   108.7700466 392.459200
   7940   7939   7941     1   107.5800459 329.699200
   7941   7939   7942     1   108.7700466 392.459200
   7946   7949   7950     1   109.8000471 387.438400
   7946   7949   7951     1   109.8000471 387.438400
   7947   7946   7949     1   109.5600471 388.275200
   7947   7946   7974     1   109.7800468 425.094400
   7947   7946   7948     1   108.4600466 328.025600
   7948   7946   7949     1   109.5600471 388.275200
   7948   7946   7974     1   109.7800468 425.094400
   7949   7952   7953     1   109.5600471 388.275200
   7949   7952   7954     1   109.5600471 388.275200
   7950   7949   7952     1   109.8000471 387.438400
   7950   7949   7951     1   107.5800459 329.699200
   7951   7949   7952     1   109.8000471 387.438400
   7953   7952   7955     1   109.8800469 414.216000
   7953   7952   7954     1   108.4600466 328.025600
   7954   7952   7955     1   109.8800469 414.216000
   7955   7956   7957     1   109.8800469 414.216000
   7955   7956   7958     1   109.8800469 414.216000
   7955   7965   7966     1   109.8800469 414.216000
   7955   7965   7967     1   109.8800469 414.216000
   7956   7959   7960     1   109.8000471 387.438400
   7956   7959   7961     1   109.8000471 387.438400
   7957   7956   7959     1   109.5600471 388.275200
   7957   7956   7958     1   108.4600466 328.025600
   7958   7956   7959     1   109.5600471 388.275200
   7960   7959   7962     1   108.7700466 392.459200
   7960   7959   7961     1   107.5800459 329.699200
   7961   7959   7962     1   108.7700466 392.459200
   7965   7968   7969     1   109.8000471 387.438400
   7965   7968   7970     1   109.8000471 387.438400
   7966   7965   7968     1   109.5600471 388.275200
   7966   7965   7967     1   108.4600466 328.025600
   7967   7965   7968     1   109.5600471 388.275200
   7969   7968   7971     1   108.7700466 392.459200
   7969   7968   7970     1   107.5800459 329.699200
   7970   7968   7971     1   108.7700466 392.459200
   7975   7978   7979     1   109.8000471 387.438400
   7975   7978   7980     1   109.8000471 387.438400
   7976   7975   7978     1   109.5600471 388.275200
   7976   7975   8003     1   109.7800468 425.094400
   7976   7975   7977     1   108.4600466 328.025600
   7977   7975   7978     1   109.5600471 388.275200
   7977   7975   8003     1   109.7800468 425.094400
   7978   7981   7982     1   109.5600471 388.275200
   7978   7981   7983     1   109.5600471 388.275200
   7979   7978   7981     1   109.8000471 387.438400
   7979   7978   7980     1   107.5800459 329.699200
   7980   7978   7981     1   109.8000471 387.438400
   7982   7981   7984     1   109.8800469 414.216000
   7982   7981   7983     1   108.4600466 328.025600
   7983   7981   7984     1   109.8800469 414.216000
   7984   7985   7986     1   109.8800469 414.216000
   7984   7985   7987     1   109.8800469 414.216000
   7984   7994   7995     1   109.8800469 414.216000
   7984   7994   7996     1   109.8800469 414.216000
   7985   7988   7989     1   109.8000471 387.438400
   7985   7988   7990     1   109.8000471 387.438400
   7986   7985   7988     1   109.5600471 388.275200
   7986   7985   7987     1   108.4600466 328.025600
   7987   7985   7988     1   109.5600471 388.275200
   7989   7988   7991     1   108.7700466 392.459200
   7989   7988   7990     1   107.5800459 329.699200
   7990   7988   7991     1   108.7700466 392.459200
   7994   7997   7998     1   109.8000471 387.438400
   7994   7997   7999     1   109.8000471 387.438400
   7995   7994   7997     1   109.5600471 388.275200
   7995   7994   7996     1   108.4600466 328.025600
   7996   7994   7997     1   109.5600471 388.275200
   7998   7997   8000     1   108.7700466 392.459200
   7998   7997   7999     1   107.5800459 329.699200
   7999   7997   8000     1   108.7700466 392.459200
   8004   8007   8008     1   109.8000471 387.438400
   8004   8007   8009     1   109.8000471 387.438400
   8005   8004   8007     1   109.5600471 388.275200
   8005   8004   8032     1   109.7800468 425.094400
   8005   8004   8006     1   108.4600466 328.025600
   8006   8004   8007     1   109.5600471 388.275200
   8006   8004   8032     1   109.7800468 425.094400
   8007   8010   8011     1   109.5600471 388.275200
   8007   8010   8012     1   109.5600471 388.275200
   8008   8007   8010     1   109.8000471 387.438400
   8008   8007   8009     1   107.5800459 329.699200
   8009   8007   8010     1   109.8000471 387.438400
   8011   8010   8013     1   109.8800469 414.216000
   8011   8010   8012     1   108.4600466 328.025600
   8012   8010   8013     1   109.8800469 414.216000
   8013   8014   8015     1   109.8800469 414.216000
   8013   8014   8016     1   109.8800469 414.216000
   8013   8023   8024     1   109.8800469 414.216000
   8013   8023   8025     1   109.8800469 414.216000
   8014   8017   8018     1   109.8000471 387.438400
   8014   8017   8019     1   109.8000471 387.438400
   8015   8014   8017     1   109.5600471 388.275200
   8015   8014   8016     1   108.4600466 328.025600
   8016   8014   8017     1   109.5600471 388.275200
   8018   8017   8020     1   108.7700466 392.459200
   8018   8017   8019     1   107.5800459 329.699200
   8019   8017   8020     1   108.7700466 392.459200
   8023   8026   8027     1   109.8000471 387.438400
   8023   8026   8028     1   109.8000471 387.438400
   8024   8023   8026     1   109.5600471 388.275200
   8024   8023   8025     1   108.4600466 328.025600
   8025   8023   8026     1   109.5600471 388.275200
   8027   8026   8029     1   108.7700466 392.459200
   8027   8026   8028     1   107.5800459 329.699200
   8028   8026   8029     1   108.7700466 392.459200
   8033   8036   8037     1   109.8000471 387.438400
   8033   8036   8038     1   109.8000471 387.438400
   8034   8033   8036     1   109.5600471 388.275200
   8034   8033   8061     1   109.7800468 425.094400
   8034   8033   8035     1   108.4600466 328.025600
   8035   8033   8036     1   109.5600471 388.275200
   8035   8033   8061     1   109.7800468 425.094400
   8036   8039   8040     1   109.5600471 388.275200
   8036   8039   8041     1   109.5600471 388.275200
   8037   8036   8039     1   109.8000471 387.438400
   8037   8036   8038     1   107.5800459 329.699200
   8038   8036   8039     1   109.8000471 387.438400
   8040   8039   8042     1   109.8800469 414.216000
   8040   8039   8041     1   108.4600466 328.025600
   8041   8039   8042     1   109.8800469 414.216000
   8042   8043   8044     1   109.8800469 414.216000
   8042   8043   8045     1   109.8800469 414.216000
   8042   8052   8053     1   109.8800469 414.216000
   8042   8052   8054     1   109.8800469 414.216000
   8043   8046   8047     1   109.8000471 387.438400
   8043   8046   8048     1   109.8000471 387.438400
   8044   8043   8046     1   109.5600471 388.275200
   8044   8043   8045     1   108.4600466 328.025600
   8045   8043   8046     1   109.5600471 388.275200
   8047   8046   8049     1   108.7700466 392.459200
   8047   8046   8048     1   107.5800459 329.699200
   8048   8046   8049     1   108.7700466 392.459200
   8052   8055   8056     1   109.8000471 387.438400
   8052   8055   8057     1   109.8000471 387.438400
   8053   8052   8055     1   109.5600471 388.275200
   8053   8052   8054     1   108.4600466 328.025600
   8054   8052   8055     1   109.5600471 388.275200
   8056   8055   8058     1   108.7700466 392.459200
   8056   8055   8057     1   107.5800459 329.699200
   8057   8055   8058     1   108.7700466 392.459200
   8062   8065   8066     1   109.8000471 387.438400
   8062   8065   8067     1   109.8000471 387.438400
   8063   8062   8065     1   109.5600471 388.275200
   8063   8062   8090     1   109.7800468 425.094400
   8063   8062   8064     1   108.4600466 328.025600
   8064   8062   8065     1   109.5600471 388.275200
   8064   8062   8090     1   109.7800468 425.094400
   8065   8068   8069     1   109.5600471 388.275200
   8065   8068   8070     1   109.5600471 388.275200
   8066   8065   8068     1   109.8000471 387.438400
   8066   8065   8067     1   107.5800459 329.699200
   8067   8065   8068     1   109.8000471 387.438400
   8069   8068   8071     1   109.8800469 414.216000
   8069   8068   8070     1   108.4600466 328.025600
   8070   8068   8071     1   109.8800469 414.216000
   8071   8072   8073     1   109.8800469 414.216000
   8071   8072   8074     1   109.8800469 414.216000
   8071   8081   8082     1   109.8800469 414.216000
   8071   8081   8083     1   109.8800469 414.216000
   8072   8075   8076     1   109.8000471 387.438400
   8072   8075   8077     1   109.8000471 387.438400
   8073   8072   8075     1   109.5600471 388.275200
   8073   8072   8074     1   108.4600466 328.025600
   8074   8072   8075     1   109.5600471 388.275200
   8076   8075   8078     1   108.7700466 392.459200
   8076   8075   8077     1   107.5800459 329.699200
   8077   8075   8078     1   108.7700466 392.459200
   8081   8084   8085     1   109.8000471 387.438400
   8081   8084   8086     1   109.8000471 387.438400
   8082   8081   8084     1   109.5600471 388.275200
   8082   8081   8083     1   108.4600466 328.025600
   8083   8081   8084     1   109.5600471 388.275200
   8085   8084   8087     1   108.7700466 392.459200
   8085   8084   8086     1   107.5800459 329.699200
   8086   8084   8087     1   108.7700466 392.459200
   8091   8094   8095     1   109.8000471 387.438400
   8091   8094   8096     1   109.8000471 387.438400
   8092   8091   8094     1   109.5600471 388.275200
   8092   8091   8119     1   109.7800468 425.094400
   8092   8091   8093     1   108.4600466 328.025600
   8093   8091   8094     1   109.5600471 388.275200
   8093   8091   8119     1   109.7800468 425.094400
   8094   8097   8098     1   109.5600471 388.275200
   8094   8097   8099     1   109.5600471 388.275200
   8095   8094   8097     1   109.8000471 387.438400
   8095   8094   8096     1   107.5800459 329.699200
   8096   8094   8097     1   109.8000471 387.438400
   8098   8097   8100     1   109.8800469 414.216000
   8098   8097   8099     1   108.4600466 328.025600
   8099   8097   8100     1   109.8800469 414.216000
   8100   8101   8102     1   109.8800469 414.216000
   8100   8101   8103     1   109.8800469 414.216000
   8100   8110   8111     1   109.8800469 414.216000
   8100   8110   8112     1   109.8800469 414.216000
   8101   8104   8105     1   109.8000471 387.438400
   8101   8104   8106     1   109.8000471 387.438400
   8102   8101   8104     1   109.5600471 388.275200
   8102   8101   8103     1   108.4600466 328.025600
   8103   8101   8104     1   109.5600471 388.275200
   8105   8104   8107     1   108.7700466 392.459200
   8105   8104   8106     1   107.5800459 329.699200
   8106   8104   8107     1   108.7700466 392.459200
   8110   8113   8114     1   109.8000471 387.438400
   8110   8113   8115     1   109.8000471 387.438400
   8111   8110   8113     1   109.5600471 388.275200
   8111   8110   8112     1   108.4600466 328.025600
   8112   8110   8113     1   109.5600471 388.275200
   8114   8113   8116     1   108.7700466 392.459200
   8114   8113   8115     1   107.5800459 329.699200
   8115   8113   8116     1   108.7700466 392.459200
   8120   8123   8124     1   109.8000471 387.438400
   8120   8123   8125     1   109.8000471 387.438400
   8121   8120   8123     1   109.5600471 388.275200
   8121   8120   8148     1   109.7800468 425.094400
   8121   8120   8122     1   108.4600466 328.025600
   8122   8120   8123     1   109.5600471 388.275200
   8122   8120   8148     1   109.7800468 425.094400
   8123   8126   8127     1   109.5600471 388.275200
   8123   8126   8128     1   109.5600471 388.275200
   8124   8123   8126     1   109.8000471 387.438400
   8124   8123   8125     1   107.5800459 329.699200
   8125   8123   8126     1   109.8000471 387.438400
   8127   8126   8129     1   109.8800469 414.216000
   8127   8126   8128     1   108.4600466 328.025600
   8128   8126   8129     1   109.8800469 414.216000
   8129   8130   8131     1   109.8800469 414.216000
   8129   8130   8132     1   109.8800469 414.216000
   8129   8139   8140     1   109.8800469 414.216000
   8129   8139   8141     1   109.8800469 414.216000
   8130   8133   8134     1   109.8000471 387.438400
   8130   8133   8135     1   109.8000471 387.438400
   8131   8130   8133     1   109.5600471 388.275200
   8131   8130   8132     1   108.4600466 328.025600
   8132   8130   8133     1   109.5600471 388.275200
   8134   8133   8136     1   108.7700466 392.459200
   8134   8133   8135     1   107.5800459 329.699200
   8135   8133   8136     1   108.7700466 392.459200
   8139   8142   8143     1   109.8000471 387.438400
   8139   8142   8144     1   109.8000471 387.438400
   8140   8139   8142     1   109.5600471 388.275200
   8140   8139   8141     1   108.4600466 328.025600
   8141   8139   8142     1   109.5600471 388.275200
   8143   8142   8145     1   108.7700466 392.459200
   8143   8142   8144     1   107.5800459 329.699200
   8144   8142   8145     1   108.7700466 392.459200
   8149   8152   8153     1   109.8000471 387.438400
   8149   8152   8154     1   109.8000471 387.438400
   8150   8149   8152     1   109.5600471 388.275200
   8150   8149   8177     1   109.7800468 425.094400
   8150   8149   8151     1   108.4600466 328.025600
   8151   8149   8152     1   109.5600471 388.275200
   8151   8149   8177     1   109.7800468 425.094400
   8152   8155   8156     1   109.5600471 388.275200
   8152   8155   8157     1   109.5600471 388.275200
   8153   8152   8155     1   109.8000471 387.438400
   8153   8152   8154     1   107.5800459 329.699200
   8154   8152   8155     1   109.8000471 387.438400
   8156   8155   8158     1   109.8800469 414.216000
   8156   8155   8157     1   108.4600466 328.025600
   8157   8155   8158     1   109.8800469 414.216000
   8158   8159   8160     1   109.8800469 414.216000
   8158   8159   8161     1   109.8800469 414.216000
   8158   8168   8169     1   109.8800469 414.216000
   8158   8168   8170     1   109.8800469 414.216000
   8159   8162   8163     1   109.8000471 387.438400
   8159   8162   8164     1   109.8000471 387.438400
   8160   8159   8162     1   109.5600471 388.275200
   8160   8159   8161     1   108.4600466 328.025600
   8161   8159   8162     1   109.5600471 388.275200
   8163   8162   8165     1   108.7700466 392.459200
   8163   8162   8164     1   107.5800459 329.699200
   8164   8162   8165     1   108.7700466 392.459200
   8168   8171   8172     1   109.8000471 387.438400
   8168   8171   8173     1   109.8000471 387.438400
   8169   8168   8171     1   109.5600471 388.275200
   8169   8168   8170     1   108.4600466 328.025600
   8170   8168   8171     1   109.5600471 388.275200
   8172   8171   8174     1   108.7700466 392.459200
   8172   8171   8173     1   107.5800459 329.699200
   8173   8171   8174     1   108.7700466 392.459200
   8178   8181   8182     1   109.8000471 387.438400
   8178   8181   8183     1   109.8000471 387.438400
   8179   8178   8181     1   109.5600471 388.275200
   8179   8178   8206     1   109.7800468 425.094400
   8179   8178   8180     1   108.4600466 328.025600
   8180   8178   8181     1   109.5600471 388.275200
   8180   8178   8206     1   109.7800468 425.094400
   8181   8184   8185     1   109.5600471 388.275200
   8181   8184   8186     1   109.5600471 388.275200
   8182   8181   8184     1   109.8000471 387.438400
   8182   8181   8183     1   107.5800459 329.699200
   8183   8181   8184     1   109.8000471 387.438400
   8185   8184   8187     1   109.8800469 414.216000
   8185   8184   8186     1   108.4600466 328.025600
   8186   8184   8187     1   109.8800469 414.216000
   8187   8188   8189     1   109.8800469 414.216000
   8187   8188   8190     1   109.8800469 414.216000
   8187   8197   8198     1   109.8800469 414.216000
   8187   8197   8199     1   109.8800469 414.216000
   8188   8191   8192     1   109.8000471 387.438400
   8188   8191   8193     1   109.8000471 387.438400
   8189   8188   8191     1   109.5600471 388.275200
   8189   8188   8190     1   108.4600466 328.025600
   8190   8188   8191     1   109.5600471 388.275200
   8192   8191   8194     1   108.7700466 392.459200
   8192   8191   8193     1   107.5800459 329.699200
   8193   8191   8194     1   108.7700466 392.459200
   8197   8200   8201     1   109.8000471 387.438400
   8197   8200   8202     1   109.8000471 387.438400
   8198   8197   8200     1   109.5600471 388.275200
   8198   8197   8199     1   108.4600466 328.025600
   8199   8197   8200     1   109.5600471 388.275200
   8201   8200   8203     1   108.7700466 392.459200
   8201   8200   8202     1   107.5800459 329.699200
   8202   8200   8203     1   108.7700466 392.459200
   8207   8210   8211     1   109.8000471 387.438400
   8207   8210   8212     1   109.8000471 387.438400
   8208   8207   8210     1   109.5600471 388.275200
   8208   8207   8235     1   109.7800468 425.094400
   8208   8207   8209     1   108.4600466 328.025600
   8209   8207   8210     1   109.5600471 388.275200
   8209   8207   8235     1   109.7800468 425.094400
   8210   8213   8214     1   109.5600471 388.275200
   8210   8213   8215     1   109.5600471 388.275200
   8211   8210   8213     1   109.8000471 387.438400
   8211   8210   8212     1   107.5800459 329.699200
   8212   8210   8213     1   109.8000471 387.438400
   8214   8213   8216     1   109.8800469 414.216000
   8214   8213   8215     1   108.4600466 328.025600
   8215   8213   8216     1   109.8800469 414.216000
   8216   8217   8218     1   109.8800469 414.216000
   8216   8217   8219     1   109.8800469 414.216000
   8216   8226   8227     1   109.8800469 414.216000
   8216   8226   8228     1   109.8800469 414.216000
   8217   8220   8221     1   109.8000471 387.438400
   8217   8220   8222     1   109.8000471 387.438400
   8218   8217   8220     1   109.5600471 388.275200
   8218   8217   8219     1   108.4600466 328.025600
   8219   8217   8220     1   109.5600471 388.275200
   8221   8220   8223     1   108.7700466 392.459200
   8221   8220   8222     1   107.5800459 329.699200
   8222   8220   8223     1   108.7700466 392.459200
   8226   8229   8230     1   109.8000471 387.438400
   8226   8229   8231     1   109.8000471 387.438400
   8227   8226   8229     1   109.5600471 388.275200
   8227   8226   8228     1   108.4600466 328.025600
   8228   8226   8229     1   109.5600471 388.275200
   8230   8229   8232     1   108.7700466 392.459200
   8230   8229   8231     1   107.5800459 329.699200
   8231   8229   8232     1   108.7700466 392.459200
   8236   8239   8240     1   109.8000471 387.438400
   8236   8239   8241     1   109.8000471 387.438400
   8237   8236   8239     1   109.5600471 388.275200
   8237   8236   8264     1   109.7800468 425.094400
   8237   8236   8238     1   108.4600466 328.025600
   8238   8236   8239     1   109.5600471 388.275200
   8238   8236   8264     1   109.7800468 425.094400
   8239   8242   8243     1   109.5600471 388.275200
   8239   8242   8244     1   109.5600471 388.275200
   8240   8239   8242     1   109.8000471 387.438400
   8240   8239   8241     1   107.5800459 329.699200
   8241   8239   8242     1   109.8000471 387.438400
   8243   8242   8245     1   109.8800469 414.216000
   8243   8242   8244     1   108.4600466 328.025600
   8244   8242   8245     1   109.8800469 414.216000
   8245   8246   8247     1   109.8800469 414.216000
   8245   8246   8248     1   109.8800469 414.216000
   8245   8255   8256     1   109.8800469 414.216000
   8245   8255   8257     1   109.8800469 414.216000
   8246   8249   8250     1   109.8000471 387.438400
   8246   8249   8251     1   109.8000471 387.438400
   8247   8246   8249     1   109.5600471 388.275200
   8247   8246   8248     1   108.4600466 328.025600
   8248   8246   8249     1   109.5600471 388.275200
   8250   8249   8252     1   108.7700466 392.459200
   8250   8249   8251     1   107.5800459 329.699200
   8251   8249   8252     1   108.7700466 392.459200
   8255   8258   8259     1   109.8000471 387.438400
   8255   8258   8260     1   109.8000471 387.438400
   8256   8255   8258     1   109.5600471 388.275200
   8256   8255   8257     1   108.4600466 328.025600
   8257   8255   8258     1   109.5600471 388.275200
   8259   8258   8261     1   108.7700466 392.459200
   8259   8258   8260     1   107.5800459 329.699200
   8260   8258   8261     1   108.7700466 392.459200
   8265   8268   8269     1   109.8000471 387.438400
   8265   8268   8270     1   109.8000471 387.438400
   8266   8265   8268     1   109.5600471 388.275200
   8266   8265   8293     1   109.7800468 425.094400
   8266   8265   8267     1   108.4600466 328.025600
   8267   8265   8268     1   109.5600471 388.275200
   8267   8265   8293     1   109.7800468 425.094400
   8268   8271   8272     1   109.5600471 388.275200
   8268   8271   8273     1   109.5600471 388.275200
   8269   8268   8271     1   109.8000471 387.438400
   8269   8268   8270     1   107.5800459 329.699200
   8270   8268   8271     1   109.8000471 387.438400
   8272   8271   8274     1   109.8800469 414.216000
   8272   8271   8273     1   108.4600466 328.025600
   8273   8271   8274     1   109.8800469 414.216000
   8274   8275   8276     1   109.8800469 414.216000
   8274   8275   8277     1   109.8800469 414.216000
   8274   8284   8285     1   109.8800469 414.216000
   8274   8284   8286     1   109.8800469 414.216000
   8275   8278   8279     1   109.8000471 387.438400
   8275   8278   8280     1   109.8000471 387.438400
   8276   8275   8278     1   109.5600471 388.275200
   8276   8275   8277     1   108.4600466 328.025600
   8277   8275   8278     1   109.5600471 388.275200
   8279   8278   8281     1   108.7700466 392.459200
   8279   8278   8280     1   107.5800459 329.699200
   8280   8278   8281     1   108.7700466 392.459200
   8284   8287   8288     1   109.8000471 387.438400
   8284   8287   8289     1   109.8000471 387.438400
   8285   8284   8287     1   109.5600471 388.275200
   8285   8284   8286     1   108.4600466 328.025600
   8286   8284   8287     1   109.5600471 388.275200
   8288   8287   8290     1   108.7700466 392.459200
   8288   8287   8289     1   107.5800459 329.699200
   8289   8287   8290     1   108.7700466 392.459200
   8294   8297   8298     1   109.8000471 387.438400
   8294   8297   8299     1   109.8000471 387.438400
   8295   8294   8297     1   109.5600471 388.275200
   8295   8294   8322     1   109.7800468 425.094400
   8295   8294   8296     1   108.4600466 328.025600
   8296   8294   8297     1   109.5600471 388.275200
   8296   8294   8322     1   109.7800468 425.094400
   8297   8300   8301     1   109.5600471 388.275200
   8297   8300   8302     1   109.5600471 388.275200
   8298   8297   8300     1   109.8000471 387.438400
   8298   8297   8299     1   107.5800459 329.699200
   8299   8297   8300     1   109.8000471 387.438400
   8301   8300   8303     1   109.8800469 414.216000
   8301   8300   8302     1   108.4600466 328.025600
   8302   8300   8303     1   109.8800469 414.216000
   8303   8304   8305     1   109.8800469 414.216000
   8303   8304   8306     1   109.8800469 414.216000
   8303   8313   8314     1   109.8800469 414.216000
   8303   8313   8315     1   109.8800469 414.216000
   8304   8307   8308     1   109.8000471 387.438400
   8304   8307   8309     1   109.8000471 387.438400
   8305   8304   8307     1   109.5600471 388.275200
   8305   8304   8306     1   108.4600466 328.025600
   8306   8304   8307     1   109.5600471 388.275200
   8308   8307   8310     1   108.7700466 392.459200
   8308   8307   8309     1   107.5800459 329.699200
   8309   8307   8310     1   108.7700466 392.459200
   8313   8316   8317     1   109.8000471 387.438400
   8313   8316   8318     1   109.8000471 387.438400
   8314   8313   8316     1   109.5600471 388.275200
   8314   8313   8315     1   108.4600466 328.025600
   8315   8313   8316     1   109.5600471 388.275200
   8317   8316   8319     1   108.7700466 392.459200
   8317   8316   8318     1   107.5800459 329.699200
   8318   8316   8319     1   108.7700466 392.459200
   8323   8326   8327     1   109.8000471 387.438400
   8323   8326   8328     1   109.8000471 387.438400
   8324   8323   8326     1   109.5600471 388.275200
   8324   8323   8351     1   109.7800468 425.094400
   8324   8323   8325     1   108.4600466 328.025600
   8325   8323   8326     1   109.5600471 388.275200
   8325   8323   8351     1   109.7800468 425.094400
   8326   8329   8330     1   109.5600471 388.275200
   8326   8329   8331     1   109.5600471 388.275200
   8327   8326   8329     1   109.8000471 387.438400
   8327   8326   8328     1   107.5800459 329.699200
   8328   8326   8329     1   109.8000471 387.438400
   8330   8329   8332     1   109.8800469 414.216000
   8330   8329   8331     1   108.4600466 328.025600
   8331   8329   8332     1   109.8800469 414.216000
   8332   8333   8334     1   109.8800469 414.216000
   8332   8333   8335     1   109.8800469 414.216000
   8332   8342   8343     1   109.8800469 414.216000
   8332   8342   8344     1   109.8800469 414.216000
   8333   8336   8337     1   109.8000471 387.438400
   8333   8336   8338     1   109.8000471 387.438400
   8334   8333   8336     1   109.5600471 388.275200
   8334   8333   8335     1   108.4600466 328.025600
   8335   8333   8336     1   109.5600471 388.275200
   8337   8336   8339     1   108.7700466 392.459200
   8337   8336   8338     1   107.5800459 329.699200
   8338   8336   8339     1   108.7700466 392.459200
   8342   8345   8346     1   109.8000471 387.438400
   8342   8345   8347     1   109.8000471 387.438400
   8343   8342   8345     1   109.5600471 388.275200
   8343   8342   8344     1   108.4600466 328.025600
   8344   8342   8345     1   109.5600471 388.275200
   8346   8345   8348     1   108.7700466 392.459200
   8346   8345   8347     1   107.5800459 329.699200
   8347   8345   8348     1   108.7700466 392.459200
   8352   8355   8356     1   109.8000471 387.438400
   8352   8355   8357     1   109.8000471 387.438400
   8353   8352   8355     1   109.5600471 388.275200
   8353   8352   8380     1   109.7800468 425.094400
   8353   8352   8354     1   108.4600466 328.025600
   8354   8352   8355     1   109.5600471 388.275200
   8354   8352   8380     1   109.7800468 425.094400
   8355   8358   8359     1   109.5600471 388.275200
   8355   8358   8360     1   109.5600471 388.275200
   8356   8355   8358     1   109.8000471 387.438400
   8356   8355   8357     1   107.5800459 329.699200
   8357   8355   8358     1   109.8000471 387.438400
   8359   8358   8361     1   109.8800469 414.216000
   8359   8358   8360     1   108.4600466 328.025600
   8360   8358   8361     1   109.8800469 414.216000
   8361   8362   8363     1   109.8800469 414.216000
   8361   8362   8364     1   109.8800469 414.216000
   8361   8371   8372     1   109.8800469 414.216000
   8361   8371   8373     1   109.8800469 414.216000
   8362   8365   8366     1   109.8000471 387.438400
   8362   8365   8367     1   109.8000471 387.438400
   8363   8362   8365     1   109.5600471 388.275200
   8363   8362   8364     1   108.4600466 328.025600
   8364   8362   8365     1   109.5600471 388.275200
   8366   8365   8368     1   108.7700466 392.459200
   8366   8365   8367     1   107.5800459 329.699200
   8367   8365   8368     1   108.7700466 392.459200
   8371   8374   8375     1   109.8000471 387.438400
   8371   8374   8376     1   109.8000471 387.438400
   8372   8371   8374     1   109.5600471 388.275200
   8372   8371   8373     1   108.4600466 328.025600
   8373   8371   8374     1   109.5600471 388.275200
   8375   8374   8377     1   108.7700466 392.459200
   8375   8374   8376     1   107.5800459 329.699200
   8376   8374   8377     1   108.7700466 392.459200
   8381   8384   8385     1   109.8000471 387.438400
   8381   8384   8386     1   109.8000471 387.438400
   8382   8381   8384     1   109.5600471 388.275200
   8382   8381   8409     1   109.7800468 425.094400
   8382   8381   8383     1   108.4600466 328.025600
   8383   8381   8384     1   109.5600471 388.275200
   8383   8381   8409     1   109.7800468 425.094400
   8384   8387   8388     1   109.5600471 388.275200
   8384   8387   8389     1   109.5600471 388.275200
   8385   8384   8387     1   109.8000471 387.438400
   8385   8384   8386     1   107.5800459 329.699200
   8386   8384   8387     1   109.8000471 387.438400
   8388   8387   8390     1   109.8800469 414.216000
   8388   8387   8389     1   108.4600466 328.025600
   8389   8387   8390     1   109.8800469 414.216000
   8390   8391   8392     1   109.8800469 414.216000
   8390   8391   8393     1   109.8800469 414.216000
   8390   8400   8401     1   109.8800469 414.216000
   8390   8400   8402     1   109.8800469 414.216000
   8391   8394   8395     1   109.8000471 387.438400
   8391   8394   8396     1   109.8000471 387.438400
   8392   8391   8394     1   109.5600471 388.275200
   8392   8391   8393     1   108.4600466 328.025600
   8393   8391   8394     1   109.5600471 388.275200
   8395   8394   8397     1   108.7700466 392.459200
   8395   8394   8396     1   107.5800459 329.699200
   8396   8394   8397     1   108.7700466 392.459200
   8400   8403   8404     1   109.8000471 387.438400
   8400   8403   8405     1   109.8000471 387.438400
   8401   8400   8403     1   109.5600471 388.275200
   8401   8400   8402     1   108.4600466 328.025600
   8402   8400   8403     1   109.5600471 388.275200
   8404   8403   8406     1   108.7700466 392.459200
   8404   8403   8405     1   107.5800459 329.699200
   8405   8403   8406     1   108.7700466 392.459200
   8410   8413   8414     1   109.8000471 387.438400
   8410   8413   8415     1   109.8000471 387.438400
   8411   8410   8413     1   109.5600471 388.275200
   8411   8410   8438     1   109.7800468 425.094400
   8411   8410   8412     1   108.4600466 328.025600
   8412   8410   8413     1   109.5600471 388.275200
   8412   8410   8438     1   109.7800468 425.094400
   8413   8416   8417     1   109.5600471 388.275200
   8413   8416   8418     1   109.5600471 388.275200
   8414   8413   8416     1   109.8000471 387.438400
   8414   8413   8415     1   107.5800459 329.699200
   8415   8413   8416     1   109.8000471 387.438400
   8417   8416   8419     1   109.8800469 414.216000
   8417   8416   8418     1   108.4600466 328.025600
   8418   8416   8419     1   109.8800469 414.216000
   8419   8420   8421     1   109.8800469 414.216000
   8419   8420   8422     1   109.8800469 414.216000
   8419   8429   8430     1   109.8800469 414.216000
   8419   8429   8431     1   109.8800469 414.216000
   8420   8423   8424     1   109.8000471 387.438400
   8420   8423   8425     1   109.8000471 387.438400
   8421   8420   8423     1   109.5600471 388.275200
   8421   8420   8422     1   108.4600466 328.025600
   8422   8420   8423     1   109.5600471 388.275200
   8424   8423   8426     1   108.7700466 392.459200
   8424   8423   8425     1   107.5800459 329.699200
   8425   8423   8426     1   108.7700466 392.459200
   8429   8432   8433     1   109.8000471 387.438400
   8429   8432   8434     1   109.8000471 387.438400
   8430   8429   8432     1   109.5600471 388.275200
   8430   8429   8431     1   108.4600466 328.025600
   8431   8429   8432     1   109.5600471 388.275200
   8433   8432   8435     1   108.7700466 392.459200
   8433   8432   8434     1   107.5800459 329.699200
   8434   8432   8435     1   108.7700466 392.459200
   8439   8442   8443     1   109.8000471 387.438400
   8439   8442   8444     1   109.8000471 387.438400
   8440   8439   8442     1   109.5600471 388.275200
   8440   8439   8467     1   109.7800468 425.094400
   8440   8439   8441     1   108.4600466 328.025600
   8441   8439   8442     1   109.5600471 388.275200
   8441   8439   8467     1   109.7800468 425.094400
   8442   8445   8446     1   109.5600471 388.275200
   8442   8445   8447     1   109.5600471 388.275200
   8443   8442   8445     1   109.8000471 387.438400
   8443   8442   8444     1   107.5800459 329.699200
   8444   8442   8445     1   109.8000471 387.438400
   8446   8445   8448     1   109.8800469 414.216000
   8446   8445   8447     1   108.4600466 328.025600
   8447   8445   8448     1   109.8800469 414.216000
   8448   8449   8450     1   109.8800469 414.216000
   8448   8449   8451     1   109.8800469 414.216000
   8448   8458   8459     1   109.8800469 414.216000
   8448   8458   8460     1   109.8800469 414.216000
   8449   8452   8453     1   109.8000471 387.438400
   8449   8452   8454     1   109.8000471 387.438400
   8450   8449   8452     1   109.5600471 388.275200
   8450   8449   8451     1   108.4600466 328.025600
   8451   8449   8452     1   109.5600471 388.275200
   8453   8452   8455     1   108.7700466 392.459200
   8453   8452   8454     1   107.5800459 329.699200
   8454   8452   8455     1   108.7700466 392.459200
   8458   8461   8462     1   109.8000471 387.438400
   8458   8461   8463     1   109.8000471 387.438400
   8459   8458   8461     1   109.5600471 388.275200
   8459   8458   8460     1   108.4600466 328.025600
   8460   8458   8461     1   109.5600471 388.275200
   8462   8461   8464     1   108.7700466 392.459200
   8462   8461   8463     1   107.5800459 329.699200
   8463   8461   8464     1   108.7700466 392.459200
   8468   8471   8472     1   109.8000471 387.438400
   8468   8471   8473     1   109.8000471 387.438400
   8469   8468   8471     1   109.5600471 388.275200
   8469   8468   8496     1   109.7800468 425.094400
   8469   8468   8470     1   108.4600466 328.025600
   8470   8468   8471     1   109.5600471 388.275200
   8470   8468   8496     1   109.7800468 425.094400
   8471   8474   8475     1   109.5600471 388.275200
   8471   8474   8476     1   109.5600471 388.275200
   8472   8471   8474     1   109.8000471 387.438400
   8472   8471   8473     1   107.5800459 329.699200
   8473   8471   8474     1   109.8000471 387.438400
   8475   8474   8477     1   109.8800469 414.216000
   8475   8474   8476     1   108.4600466 328.025600
   8476   8474   8477     1   109.8800469 414.216000
   8477   8478   8479     1   109.8800469 414.216000
   8477   8478   8480     1   109.8800469 414.216000
   8477   8487   8488     1   109.8800469 414.216000
   8477   8487   8489     1   109.8800469 414.216000
   8478   8481   8482     1   109.8000471 387.438400
   8478   8481   8483     1   109.8000471 387.438400
   8479   8478   8481     1   109.5600471 388.275200
   8479   8478   8480     1   108.4600466 328.025600
   8480   8478   8481     1   109.5600471 388.275200
   8482   8481   8484     1   108.7700466 392.459200
   8482   8481   8483     1   107.5800459 329.699200
   8483   8481   8484     1   108.7700466 392.459200
   8487   8490   8491     1   109.8000471 387.438400
   8487   8490   8492     1   109.8000471 387.438400
   8488   8487   8490     1   109.5600471 388.275200
   8488   8487   8489     1   108.4600466 328.025600
   8489   8487   8490     1   109.5600471 388.275200
   8491   8490   8493     1   108.7700466 392.459200
   8491   8490   8492     1   107.5800459 329.699200
   8492   8490   8493     1   108.7700466 392.459200
   8497   8500   8501     1   109.8000471 387.438400
   8497   8500   8502     1   109.8000471 387.438400
   8498   8497   8500     1   109.5600471 388.275200
   8498   8497   8525     1   109.7800468 425.094400
   8498   8497   8499     1   108.4600466 328.025600
   8499   8497   8500     1   109.5600471 388.275200
   8499   8497   8525     1   109.7800468 425.094400
   8500   8503   8504     1   109.5600471 388.275200
   8500   8503   8505     1   109.5600471 388.275200
   8501   8500   8503     1   109.8000471 387.438400
   8501   8500   8502     1   107.5800459 329.699200
   8502   8500   8503     1   109.8000471 387.438400
   8504   8503   8506     1   109.8800469 414.216000
   8504   8503   8505     1   108.4600466 328.025600
   8505   8503   8506     1   109.8800469 414.216000
   8506   8507   8508     1   109.8800469 414.216000
   8506   8507   8509     1   109.8800469 414.216000
   8506   8516   8517     1   109.8800469 414.216000
   8506   8516   8518     1   109.8800469 414.216000
   8507   8510   8511     1   109.8000471 387.438400
   8507   8510   8512     1   109.8000471 387.438400
   8508   8507   8510     1   109.5600471 388.275200
   8508   8507   8509     1   108.4600466 328.025600
   8509   8507   8510     1   109.5600471 388.275200
   8511   8510   8513     1   108.7700466 392.459200
   8511   8510   8512     1   107.5800459 329.699200
   8512   8510   8513     1   108.7700466 392.459200
   8516   8519   8520     1   109.8000471 387.438400
   8516   8519   8521     1   109.8000471 387.438400
   8517   8516   8519     1   109.5600471 388.275200
   8517   8516   8518     1   108.4600466 328.025600
   8518   8516   8519     1   109.5600471 388.275200
   8520   8519   8522     1   108.7700466 392.459200
   8520   8519   8521     1   107.5800459 329.699200
   8521   8519   8522     1   108.7700466 392.459200
   8526   8529   8530     1   109.8000471 387.438400
   8526   8529   8531     1   109.8000471 387.438400
   8527   8526   8529     1   109.5600471 388.275200
   8527   8526   8554     1   109.7800468 425.094400
   8527   8526   8528     1   108.4600466 328.025600
   8528   8526   8529     1   109.5600471 388.275200
   8528   8526   8554     1   109.7800468 425.094400
   8529   8532   8533     1   109.5600471 388.275200
   8529   8532   8534     1   109.5600471 388.275200
   8530   8529   8532     1   109.8000471 387.438400
   8530   8529   8531     1   107.5800459 329.699200
   8531   8529   8532     1   109.8000471 387.438400
   8533   8532   8535     1   109.8800469 414.216000
   8533   8532   8534     1   108.4600466 328.025600
   8534   8532   8535     1   109.8800469 414.216000
   8535   8536   8537     1   109.8800469 414.216000
   8535   8536   8538     1   109.8800469 414.216000
   8535   8545   8546     1   109.8800469 414.216000
   8535   8545   8547     1   109.8800469 414.216000
   8536   8539   8540     1   109.8000471 387.438400
   8536   8539   8541     1   109.8000471 387.438400
   8537   8536   8539     1   109.5600471 388.275200
   8537   8536   8538     1   108.4600466 328.025600
   8538   8536   8539     1   109.5600471 388.275200
   8540   8539   8542     1   108.7700466 392.459200
   8540   8539   8541     1   107.5800459 329.699200
   8541   8539   8542     1   108.7700466 392.459200
   8545   8548   8549     1   109.8000471 387.438400
   8545   8548   8550     1   109.8000471 387.438400
   8546   8545   8548     1   109.5600471 388.275200
   8546   8545   8547     1   108.4600466 328.025600
   8547   8545   8548     1   109.5600471 388.275200
   8549   8548   8551     1   108.7700466 392.459200
   8549   8548   8550     1   107.5800459 329.699200
   8550   8548   8551     1   108.7700466 392.459200
   8555   8558   8559     1   109.8000471 387.438400
   8555   8558   8560     1   109.8000471 387.438400
   8556   8555   8558     1   109.5600471 388.275200
   8556   8555   8583     1   109.7800468 425.094400
   8556   8555   8557     1   108.4600466 328.025600
   8557   8555   8558     1   109.5600471 388.275200
   8557   8555   8583     1   109.7800468 425.094400
   8558   8561   8562     1   109.5600471 388.275200
   8558   8561   8563     1   109.5600471 388.275200
   8559   8558   8561     1   109.8000471 387.438400
   8559   8558   8560     1   107.5800459 329.699200
   8560   8558   8561     1   109.8000471 387.438400
   8562   8561   8564     1   109.8800469 414.216000
   8562   8561   8563     1   108.4600466 328.025600
   8563   8561   8564     1   109.8800469 414.216000
   8564   8565   8566     1   109.8800469 414.216000
   8564   8565   8567     1   109.8800469 414.216000
   8564   8574   8575     1   109.8800469 414.216000
   8564   8574   8576     1   109.8800469 414.216000
   8565   8568   8569     1   109.8000471 387.438400
   8565   8568   8570     1   109.8000471 387.438400
   8566   8565   8568     1   109.5600471 388.275200
   8566   8565   8567     1   108.4600466 328.025600
   8567   8565   8568     1   109.5600471 388.275200
   8569   8568   8571     1   108.7700466 392.459200
   8569   8568   8570     1   107.5800459 329.699200
   8570   8568   8571     1   108.7700466 392.459200
   8574   8577   8578     1   109.8000471 387.438400
   8574   8577   8579     1   109.8000471 387.438400
   8575   8574   8577     1   109.5600471 388.275200
   8575   8574   8576     1   108.4600466 328.025600
   8576   8574   8577     1   109.5600471 388.275200
   8578   8577   8580     1   108.7700466 392.459200
   8578   8577   8579     1   107.5800459 329.699200
   8579   8577   8580     1   108.7700466 392.459200
   8584   8587   8588     1   109.8000471 387.438400
   8584   8587   8589     1   109.8000471 387.438400
   8585   8584   8587     1   109.5600471 388.275200
   8585   8584   8612     1   109.7800468 425.094400
   8585   8584   8586     1   108.4600466 328.025600
   8586   8584   8587     1   109.5600471 388.275200
   8586   8584   8612     1   109.7800468 425.094400
   8587   8590   8591     1   109.5600471 388.275200
   8587   8590   8592     1   109.5600471 388.275200
   8588   8587   8590     1   109.8000471 387.438400
   8588   8587   8589     1   107.5800459 329.699200
   8589   8587   8590     1   109.8000471 387.438400
   8591   8590   8593     1   109.8800469 414.216000
   8591   8590   8592     1   108.4600466 328.025600
   8592   8590   8593     1   109.8800469 414.216000
   8593   8594   8595     1   109.8800469 414.216000
   8593   8594   8596     1   109.8800469 414.216000
   8593   8603   8604     1   109.8800469 414.216000
   8593   8603   8605     1   109.8800469 414.216000
   8594   8597   8598     1   109.8000471 387.438400
   8594   8597   8599     1   109.8000471 387.438400
   8595   8594   8597     1   109.5600471 388.275200
   8595   8594   8596     1   108.4600466 328.025600
   8596   8594   8597     1   109.5600471 388.275200
   8598   8597   8600     1   108.7700466 392.459200
   8598   8597   8599     1   107.5800459 329.699200
   8599   8597   8600     1   108.7700466 392.459200
   8603   8606   8607     1   109.8000471 387.438400
   8603   8606   8608     1   109.8000471 387.438400
   8604   8603   8606     1   109.5600471 388.275200
   8604   8603   8605     1   108.4600466 328.025600
   8605   8603   8606     1   109.5600471 388.275200
   8607   8606   8609     1   108.7700466 392.459200
   8607   8606   8608     1   107.5800459 329.699200
   8608   8606   8609     1   108.7700466 392.459200
   8613   8616   8617     1   109.8000471 387.438400
   8613   8616   8618     1   109.8000471 387.438400
   8614   8613   8616     1   109.5600471 388.275200
   8614   8613   8641     1   109.7800468 425.094400
   8614   8613   8615     1   108.4600466 328.025600
   8615   8613   8616     1   109.5600471 388.275200
   8615   8613   8641     1   109.7800468 425.094400
   8616   8619   8620     1   109.5600471 388.275200
   8616   8619   8621     1   109.5600471 388.275200
   8617   8616   8619     1   109.8000471 387.438400
   8617   8616   8618     1   107.5800459 329.699200
   8618   8616   8619     1   109.8000471 387.438400
   8620   8619   8622     1   109.8800469 414.216000
   8620   8619   8621     1   108.4600466 328.025600
   8621   8619   8622     1   109.8800469 414.216000
   8622   8623   8624     1   109.8800469 414.216000
   8622   8623   8625     1   109.8800469 414.216000
   8622   8632   8633     1   109.8800469 414.216000
   8622   8632   8634     1   109.8800469 414.216000
   8623   8626   8627     1   109.8000471 387.438400
   8623   8626   8628     1   109.8000471 387.438400
   8624   8623   8626     1   109.5600471 388.275200
   8624   8623   8625     1   108.4600466 328.025600
   8625   8623   8626     1   109.5600471 388.275200
   8627   8626   8629     1   108.7700466 392.459200
   8627   8626   8628     1   107.5800459 329.699200
   8628   8626   8629     1   108.7700466 392.459200
   8632   8635   8636     1   109.8000471 387.438400
   8632   8635   8637     1   109.8000471 387.438400
   8633   8632   8635     1   109.5600471 388.275200
   8633   8632   8634     1   108.4600466 328.025600
   8634   8632   8635     1   109.5600471 388.275200
   8636   8635   8638     1   108.7700466 392.459200
   8636   8635   8637     1   107.5800459 329.699200
   8637   8635   8638     1   108.7700466 392.459200
   8642   8645   8646     1   109.8000471 387.438400
   8642   8645   8647     1   109.8000471 387.438400
   8643   8642   8645     1   109.5600471 388.275200
   8643   8642   8670     1   109.7800468 425.094400
   8643   8642   8644     1   108.4600466 328.025600
   8644   8642   8645     1   109.5600471 388.275200
   8644   8642   8670     1   109.7800468 425.094400
   8645   8648   8649     1   109.5600471 388.275200
   8645   8648   8650     1   109.5600471 388.275200
   8646   8645   8648     1   109.8000471 387.438400
   8646   8645   8647     1   107.5800459 329.699200
   8647   8645   8648     1   109.8000471 387.438400
   8649   8648   8651     1   109.8800469 414.216000
   8649   8648   8650     1   108.4600466 328.025600
   8650   8648   8651     1   109.8800469 414.216000
   8651   8652   8653     1   109.8800469 414.216000
   8651   8652   8654     1   109.8800469 414.216000
   8651   8661   8662     1   109.8800469 414.216000
   8651   8661   8663     1   109.8800469 414.216000
   8652   8655   8656     1   109.8000471 387.438400
   8652   8655   8657     1   109.8000471 387.438400
   8653   8652   8655     1   109.5600471 388.275200
   8653   8652   8654     1   108.4600466 328.025600
   8654   8652   8655     1   109.5600471 388.275200
   8656   8655   8658     1   108.7700466 392.459200
   8656   8655   8657     1   107.5800459 329.699200
   8657   8655   8658     1   108.7700466 392.459200
   8661   8664   8665     1   109.8000471 387.438400
   8661   8664   8666     1   109.8000471 387.438400
   8662   8661   8664     1   109.5600471 388.275200
   8662   8661   8663     1   108.4600466 328.025600
   8663   8661   8664     1   109.5600471 388.275200
   8665   8664   8667     1   108.7700466 392.459200
   8665   8664   8666     1   107.5800459 329.699200
   8666   8664   8667     1   108.7700466 392.459200
   8671   8674   8675     1   109.8000471 387.438400
   8671   8674   8676     1   109.8000471 387.438400
   8672   8671   8674     1   109.5600471 388.275200
   8672   8671   8699     1   109.7800468 425.094400
   8672   8671   8673     1   108.4600466 328.025600
   8673   8671   8674     1   109.5600471 388.275200
   8673   8671   8699     1   109.7800468 425.094400
   8674   8677   8678     1   109.5600471 388.275200
   8674   8677   8679     1   109.5600471 388.275200
   8675   8674   8677     1   109.8000471 387.438400
   8675   8674   8676     1   107.5800459 329.699200
   8676   8674   8677     1   109.8000471 387.438400
   8678   8677   8680     1   109.8800469 414.216000
   8678   8677   8679     1   108.4600466 328.025600
   8679   8677   8680     1   109.8800469 414.216000
   8680   8681   8682     1   109.8800469 414.216000
   8680   8681   8683     1   109.8800469 414.216000
   8680   8690   8691     1   109.8800469 414.216000
   8680   8690   8692     1   109.8800469 414.216000
   8681   8684   8685     1   109.8000471 387.438400
   8681   8684   8686     1   109.8000471 387.438400
   8682   8681   8684     1   109.5600471 388.275200
   8682   8681   8683     1   108.4600466 328.025600
   8683   8681   8684     1   109.5600471 388.275200
   8685   8684   8687     1   108.7700466 392.459200
   8685   8684   8686     1   107.5800459 329.699200
   8686   8684   8687     1   108.7700466 392.459200
   8690   8693   8694     1   109.8000471 387.438400
   8690   8693   8695     1   109.8000471 387.438400
   8691   8690   8693     1   109.5600471 388.275200
   8691   8690   8692     1   108.4600466 328.025600
   8692   8690   8693     1   109.5600471 388.275200
   8694   8693   8696     1   108.7700466 392.459200
   8694   8693   8695     1   107.5800459 329.699200
   8695   8693   8696     1   108.7700466 392.459200
   8700   8703   8704     1   109.8000471 387.438400
   8700   8703   8705     1   109.8000471 387.438400
   8701   8700   8703     1   109.5600471 388.275200
   8701   8700   8728     1   109.7800468 425.094400
   8701   8700   8702     1   108.4600466 328.025600
   8702   8700   8703     1   109.5600471 388.275200
   8702   8700   8728     1   109.7800468 425.094400
   8703   8706   8707     1   109.5600471 388.275200
   8703   8706   8708     1   109.5600471 388.275200
   8704   8703   8706     1   109.8000471 387.438400
   8704   8703   8705     1   107.5800459 329.699200
   8705   8703   8706     1   109.8000471 387.438400
   8707   8706   8709     1   109.8800469 414.216000
   8707   8706   8708     1   108.4600466 328.025600
   8708   8706   8709     1   109.8800469 414.216000
   8709   8710   8711     1   109.8800469 414.216000
   8709   8710   8712     1   109.8800469 414.216000
   8709   8719   8720     1   109.8800469 414.216000
   8709   8719   8721     1   109.8800469 414.216000
   8710   8713   8714     1   109.8000471 387.438400
   8710   8713   8715     1   109.8000471 387.438400
   8711   8710   8713     1   109.5600471 388.275200
   8711   8710   8712     1   108.4600466 328.025600
   8712   8710   8713     1   109.5600471 388.275200
   8714   8713   8716     1   108.7700466 392.459200
   8714   8713   8715     1   107.5800459 329.699200
   8715   8713   8716     1   108.7700466 392.459200
   8719   8722   8723     1   109.8000471 387.438400
   8719   8722   8724     1   109.8000471 387.438400
   8720   8719   8722     1   109.5600471 388.275200
   8720   8719   8721     1   108.4600466 328.025600
   8721   8719   8722     1   109.5600471 388.275200
   8723   8722   8725     1   108.7700466 392.459200
   8723   8722   8724     1   107.5800459 329.699200
   8724   8722   8725     1   108.7700466 392.459200
   8729   8732   8733     1   109.8000471 387.438400
   8729   8732   8734     1   109.8000471 387.438400
   8730   8729   8732     1   109.5600471 388.275200
   8730   8729   8757     1   109.7800468 425.094400
   8730   8729   8731     1   108.4600466 328.025600
   8731   8729   8732     1   109.5600471 388.275200
   8731   8729   8757     1   109.7800468 425.094400
   8732   8735   8736     1   109.5600471 388.275200
   8732   8735   8737     1   109.5600471 388.275200
   8733   8732   8735     1   109.8000471 387.438400
   8733   8732   8734     1   107.5800459 329.699200
   8734   8732   8735     1   109.8000471 387.438400
   8736   8735   8738     1   109.8800469 414.216000
   8736   8735   8737     1   108.4600466 328.025600
   8737   8735   8738     1   109.8800469 414.216000
   8738   8739   8740     1   109.8800469 414.216000
   8738   8739   8741     1   109.8800469 414.216000
   8738   8748   8749     1   109.8800469 414.216000
   8738   8748   8750     1   109.8800469 414.216000
   8739   8742   8743     1   109.8000471 387.438400
   8739   8742   8744     1   109.8000471 387.438400
   8740   8739   8742     1   109.5600471 388.275200
   8740   8739   8741     1   108.4600466 328.025600
   8741   8739   8742     1   109.5600471 388.275200
   8743   8742   8745     1   108.7700466 392.459200
   8743   8742   8744     1   107.5800459 329.699200
   8744   8742   8745     1   108.7700466 392.459200
   8748   8751   8752     1   109.8000471 387.438400
   8748   8751   8753     1   109.8000471 387.438400
   8749   8748   8751     1   109.5600471 388.275200
   8749   8748   8750     1   108.4600466 328.025600
   8750   8748   8751     1   109.5600471 388.275200
   8752   8751   8754     1   108.7700466 392.459200
   8752   8751   8753     1   107.5800459 329.699200
   8753   8751   8754     1   108.7700466 392.459200
   8758   8761   8762     1   109.8000471 387.438400
   8758   8761   8763     1   109.8000471 387.438400
   8759   8758   8761     1   109.5600471 388.275200
   8759   8758   8786     1   109.7800468 425.094400
   8759   8758   8760     1   108.4600466 328.025600
   8760   8758   8761     1   109.5600471 388.275200
   8760   8758   8786     1   109.7800468 425.094400
   8761   8764   8765     1   109.5600471 388.275200
   8761   8764   8766     1   109.5600471 388.275200
   8762   8761   8764     1   109.8000471 387.438400
   8762   8761   8763     1   107.5800459 329.699200
   8763   8761   8764     1   109.8000471 387.438400
   8765   8764   8767     1   109.8800469 414.216000
   8765   8764   8766     1   108.4600466 328.025600
   8766   8764   8767     1   109.8800469 414.216000
   8767   8768   8769     1   109.8800469 414.216000
   8767   8768   8770     1   109.8800469 414.216000
   8767   8777   8778     1   109.8800469 414.216000
   8767   8777   8779     1   109.8800469 414.216000
   8768   8771   8772     1   109.8000471 387.438400
   8768   8771   8773     1   109.8000471 387.438400
   8769   8768   8771     1   109.5600471 388.275200
   8769   8768   8770     1   108.4600466 328.025600
   8770   8768   8771     1   109.5600471 388.275200
   8772   8771   8774     1   108.7700466 392.459200
   8772   8771   8773     1   107.5800459 329.699200
   8773   8771   8774     1   108.7700466 392.459200
   8777   8780   8781     1   109.8000471 387.438400
   8777   8780   8782     1   109.8000471 387.438400
   8778   8777   8780     1   109.5600471 388.275200
   8778   8777   8779     1   108.4600466 328.025600
   8779   8777   8780     1   109.5600471 388.275200
   8781   8780   8783     1   108.7700466 392.459200
   8781   8780   8782     1   107.5800459 329.699200
   8782   8780   8783     1   108.7700466 392.459200
   8787   8790   8791     1   109.8000471 387.438400
   8787   8790   8792     1   109.8000471 387.438400
   8788   8787   8790     1   109.5600471 388.275200
   8788   8787   8815     1   109.7800468 425.094400
   8788   8787   8789     1   108.4600466 328.025600
   8789   8787   8790     1   109.5600471 388.275200
   8789   8787   8815     1   109.7800468 425.094400
   8790   8793   8794     1   109.5600471 388.275200
   8790   8793   8795     1   109.5600471 388.275200
   8791   8790   8793     1   109.8000471 387.438400
   8791   8790   8792     1   107.5800459 329.699200
   8792   8790   8793     1   109.8000471 387.438400
   8794   8793   8796     1   109.8800469 414.216000
   8794   8793   8795     1   108.4600466 328.025600
   8795   8793   8796     1   109.8800469 414.216000
   8796   8797   8798     1   109.8800469 414.216000
   8796   8797   8799     1   109.8800469 414.216000
   8796   8806   8807     1   109.8800469 414.216000
   8796   8806   8808     1   109.8800469 414.216000
   8797   8800   8801     1   109.8000471 387.438400
   8797   8800   8802     1   109.8000471 387.438400
   8798   8797   8800     1   109.5600471 388.275200
   8798   8797   8799     1   108.4600466 328.025600
   8799   8797   8800     1   109.5600471 388.275200
   8801   8800   8803     1   108.7700466 392.459200
   8801   8800   8802     1   107.5800459 329.699200
   8802   8800   8803     1   108.7700466 392.459200
   8806   8809   8810     1   109.8000471 387.438400
   8806   8809   8811     1   109.8000471 387.438400
   8807   8806   8809     1   109.5600471 388.275200
   8807   8806   8808     1   108.4600466 328.025600
   8808   8806   8809     1   109.5600471 388.275200
   8810   8809   8812     1   108.7700466 392.459200
   8810   8809   8811     1   107.5800459 329.699200
   8811   8809   8812     1   108.7700466 392.459200
   8816   8819   8820     1   109.8000471 387.438400
   8816   8819   8821     1   109.8000471 387.438400
   8817   8816   8819     1   109.5600471 388.275200
   8817   8816   8844     1   109.7800468 425.094400
   8817   8816   8818     1   108.4600466 328.025600
   8818   8816   8819     1   109.5600471 388.275200
   8818   8816   8844     1   109.7800468 425.094400
   8819   8822   8823     1   109.5600471 388.275200
   8819   8822   8824     1   109.5600471 388.275200
   8820   8819   8822     1   109.8000471 387.438400
   8820   8819   8821     1   107.5800459 329.699200
   8821   8819   8822     1   109.8000471 387.438400
   8823   8822   8825     1   109.8800469 414.216000
   8823   8822   8824     1   108.4600466 328.025600
   8824   8822   8825     1   109.8800469 414.216000
   8825   8826   8827     1   109.8800469 414.216000
   8825   8826   8828     1   109.8800469 414.216000
   8825   8835   8836     1   109.8800469 414.216000
   8825   8835   8837     1   109.8800469 414.216000
   8826   8829   8830     1   109.8000471 387.438400
   8826   8829   8831     1   109.8000471 387.438400
   8827   8826   8829     1   109.5600471 388.275200
   8827   8826   8828     1   108.4600466 328.025600
   8828   8826   8829     1   109.5600471 388.275200
   8830   8829   8832     1   108.7700466 392.459200
   8830   8829   8831     1   107.5800459 329.699200
   8831   8829   8832     1   108.7700466 392.459200
   8835   8838   8839     1   109.8000471 387.438400
   8835   8838   8840     1   109.8000471 387.438400
   8836   8835   8838     1   109.5600471 388.275200
   8836   8835   8837     1   108.4600466 328.025600
   8837   8835   8838     1   109.5600471 388.275200
   8839   8838   8841     1   108.7700466 392.459200
   8839   8838   8840     1   107.5800459 329.699200
   8840   8838   8841     1   108.7700466 392.459200
   8845   8848   8849     1   109.8000471 387.438400
   8845   8848   8850     1   109.8000471 387.438400
   8846   8845   8848     1   109.5600471 388.275200
   8846   8845   8873     1   109.7800468 425.094400
   8846   8845   8847     1   108.4600466 328.025600
   8847   8845   8848     1   109.5600471 388.275200
   8847   8845   8873     1   109.7800468 425.094400
   8848   8851   8852     1   109.5600471 388.275200
   8848   8851   8853     1   109.5600471 388.275200
   8849   8848   8851     1   109.8000471 387.438400
   8849   8848   8850     1   107.5800459 329.699200
   8850   8848   8851     1   109.8000471 387.438400
   8852   8851   8854     1   109.8800469 414.216000
   8852   8851   8853     1   108.4600466 328.025600
   8853   8851   8854     1   109.8800469 414.216000
   8854   8855   8856     1   109.8800469 414.216000
   8854   8855   8857     1   109.8800469 414.216000
   8854   8864   8865     1   109.8800469 414.216000
   8854   8864   8866     1   109.8800469 414.216000
   8855   8858   8859     1   109.8000471 387.438400
   8855   8858   8860     1   109.8000471 387.438400
   8856   8855   8858     1   109.5600471 388.275200
   8856   8855   8857     1   108.4600466 328.025600
   8857   8855   8858     1   109.5600471 388.275200
   8859   8858   8861     1   108.7700466 392.459200
   8859   8858   8860     1   107.5800459 329.699200
   8860   8858   8861     1   108.7700466 392.459200
   8864   8867   8868     1   109.8000471 387.438400
   8864   8867   8869     1   109.8000471 387.438400
   8865   8864   8867     1   109.5600471 388.275200
   8865   8864   8866     1   108.4600466 328.025600
   8866   8864   8867     1   109.5600471 388.275200
   8868   8867   8870     1   108.7700466 392.459200
   8868   8867   8869     1   107.5800459 329.699200
   8869   8867   8870     1   108.7700466 392.459200
   8874   8877   8878     1   109.8000471 387.438400
   8874   8877   8879     1   109.8000471 387.438400
   8875   8874   8877     1   109.5600471 388.275200
   8875   8874   8902     1   109.7800468 425.094400
   8875   8874   8876     1   108.4600466 328.025600
   8876   8874   8877     1   109.5600471 388.275200
   8876   8874   8902     1   109.7800468 425.094400
   8877   8880   8881     1   109.5600471 388.275200
   8877   8880   8882     1   109.5600471 388.275200
   8878   8877   8880     1   109.8000471 387.438400
   8878   8877   8879     1   107.5800459 329.699200
   8879   8877   8880     1   109.8000471 387.438400
   8881   8880   8883     1   109.8800469 414.216000
   8881   8880   8882     1   108.4600466 328.025600
   8882   8880   8883     1   109.8800469 414.216000
   8883   8884   8885     1   109.8800469 414.216000
   8883   8884   8886     1   109.8800469 414.216000
   8883   8893   8894     1   109.8800469 414.216000
   8883   8893   8895     1   109.8800469 414.216000
   8884   8887   8888     1   109.8000471 387.438400
   8884   8887   8889     1   109.8000471 387.438400
   8885   8884   8887     1   109.5600471 388.275200
   8885   8884   8886     1   108.4600466 328.025600
   8886   8884   8887     1   109.5600471 388.275200
   8888   8887   8890     1   108.7700466 392.459200
   8888   8887   8889     1   107.5800459 329.699200
   8889   8887   8890     1   108.7700466 392.459200
   8893   8896   8897     1   109.8000471 387.438400
   8893   8896   8898     1   109.8000471 387.438400
   8894   8893   8896     1   109.5600471 388.275200
   8894   8893   8895     1   108.4600466 328.025600
   8895   8893   8896     1   109.5600471 388.275200
   8897   8896   8899     1   108.7700466 392.459200
   8897   8896   8898     1   107.5800459 329.699200
   8898   8896   8899     1   108.7700466 392.459200
   8903   8906   8907     1   109.8000471 387.438400
   8903   8906   8908     1   109.8000471 387.438400
   8904   8903   8906     1   109.5600471 388.275200
   8904   8903   8931     1   109.7800468 425.094400
   8904   8903   8905     1   108.4600466 328.025600
   8905   8903   8906     1   109.5600471 388.275200
   8905   8903   8931     1   109.7800468 425.094400
   8906   8909   8910     1   109.5600471 388.275200
   8906   8909   8911     1   109.5600471 388.275200
   8907   8906   8909     1   109.8000471 387.438400
   8907   8906   8908     1   107.5800459 329.699200
   8908   8906   8909     1   109.8000471 387.438400
   8910   8909   8912     1   109.8800469 414.216000
   8910   8909   8911     1   108.4600466 328.025600
   8911   8909   8912     1   109.8800469 414.216000
   8912   8913   8914     1   109.8800469 414.216000
   8912   8913   8915     1   109.8800469 414.216000
   8912   8922   8923     1   109.8800469 414.216000
   8912   8922   8924     1   109.8800469 414.216000
   8913   8916   8917     1   109.8000471 387.438400
   8913   8916   8918     1   109.8000471 387.438400
   8914   8913   8916     1   109.5600471 388.275200
   8914   8913   8915     1   108.4600466 328.025600
   8915   8913   8916     1   109.5600471 388.275200
   8917   8916   8919     1   108.7700466 392.459200
   8917   8916   8918     1   107.5800459 329.699200
   8918   8916   8919     1   108.7700466 392.459200
   8922   8925   8926     1   109.8000471 387.438400
   8922   8925   8927     1   109.8000471 387.438400
   8923   8922   8925     1   109.5600471 388.275200
   8923   8922   8924     1   108.4600466 328.025600
   8924   8922   8925     1   109.5600471 388.275200
   8926   8925   8928     1   108.7700466 392.459200
   8926   8925   8927     1   107.5800459 329.699200
   8927   8925   8928     1   108.7700466 392.459200
   8932   8935   8936     1   109.8000471 387.438400
   8932   8935   8937     1   109.8000471 387.438400
   8933   8932   8935     1   109.5600471 388.275200
   8933   8932   8960     1   109.7800468 425.094400
   8933   8932   8934     1   108.4600466 328.025600
   8934   8932   8935     1   109.5600471 388.275200
   8934   8932   8960     1   109.7800468 425.094400
   8935   8938   8939     1   109.5600471 388.275200
   8935   8938   8940     1   109.5600471 388.275200
   8936   8935   8938     1   109.8000471 387.438400
   8936   8935   8937     1   107.5800459 329.699200
   8937   8935   8938     1   109.8000471 387.438400
   8939   8938   8941     1   109.8800469 414.216000
   8939   8938   8940     1   108.4600466 328.025600
   8940   8938   8941     1   109.8800469 414.216000
   8941   8942   8943     1   109.8800469 414.216000
   8941   8942   8944     1   109.8800469 414.216000
   8941   8951   8952     1   109.8800469 414.216000
   8941   8951   8953     1   109.8800469 414.216000
   8942   8945   8946     1   109.8000471 387.438400
   8942   8945   8947     1   109.8000471 387.438400
   8943   8942   8945     1   109.5600471 388.275200
   8943   8942   8944     1   108.4600466 328.025600
   8944   8942   8945     1   109.5600471 388.275200
   8946   8945   8948     1   108.7700466 392.459200
   8946   8945   8947     1   107.5800459 329.699200
   8947   8945   8948     1   108.7700466 392.459200
   8951   8954   8955     1   109.8000471 387.438400
   8951   8954   8956     1   109.8000471 387.438400
   8952   8951   8954     1   109.5600471 388.275200
   8952   8951   8953     1   108.4600466 328.025600
   8953   8951   8954     1   109.5600471 388.275200
   8955   8954   8957     1   108.7700466 392.459200
   8955   8954   8956     1   107.5800459 329.699200
   8956   8954   8957     1   108.7700466 392.459200
   8961   8964   8965     1   109.8000471 387.438400
   8961   8964   8966     1   109.8000471 387.438400
   8962   8961   8964     1   109.5600471 388.275200
   8962   8961   8989     1   109.7800468 425.094400
   8962   8961   8963     1   108.4600466 328.025600
   8963   8961   8964     1   109.5600471 388.275200
   8963   8961   8989     1   109.7800468 425.094400
   8964   8967   8968     1   109.5600471 388.275200
   8964   8967   8969     1   109.5600471 388.275200
   8965   8964   8967     1   109.8000471 387.438400
   8965   8964   8966     1   107.5800459 329.699200
   8966   8964   8967     1   109.8000471 387.438400
   8968   8967   8970     1   109.8800469 414.216000
   8968   8967   8969     1   108.4600466 328.025600
   8969   8967   8970     1   109.8800469 414.216000
   8970   8971   8972     1   109.8800469 414.216000
   8970   8971   8973     1   109.8800469 414.216000
   8970   8980   8981     1   109.8800469 414.216000
   8970   8980   8982     1   109.8800469 414.216000
   8971   8974   8975     1   109.8000471 387.438400
   8971   8974   8976     1   109.8000471 387.438400
   8972   8971   8974     1   109.5600471 388.275200
   8972   8971   8973     1   108.4600466 328.025600
   8973   8971   8974     1   109.5600471 388.275200
   8975   8974   8977     1   108.7700466 392.459200
   8975   8974   8976     1   107.5800459 329.699200
   8976   8974   8977     1   108.7700466 392.459200
   8980   8983   8984     1   109.8000471 387.438400
   8980   8983   8985     1   109.8000471 387.438400
   8981   8980   8983     1   109.5600471 388.275200
   8981   8980   8982     1   108.4600466 328.025600
   8982   8980   8983     1   109.5600471 388.275200
   8984   8983   8986     1   108.7700466 392.459200
   8984   8983   8985     1   107.5800459 329.699200
   8985   8983   8986     1   108.7700466 392.459200
   8990   8993   8994     1   109.8000471 387.438400
   8990   8993   8995     1   109.8000471 387.438400
   8991   8990   8993     1   109.5600471 388.275200
   8991   8990   9018     1   109.7800468 425.094400
   8991   8990   8992     1   108.4600466 328.025600
   8992   8990   8993     1   109.5600471 388.275200
   8992   8990   9018     1   109.7800468 425.094400
   8993   8996   8997     1   109.5600471 388.275200
   8993   8996   8998     1   109.5600471 388.275200
   8994   8993   8996     1   109.8000471 387.438400
   8994   8993   8995     1   107.5800459 329.699200
   8995   8993   8996     1   109.8000471 387.438400
   8997   8996   8999     1   109.8800469 414.216000
   8997   8996   8998     1   108.4600466 328.025600
   8998   8996   8999     1   109.8800469 414.216000
   8999   9000   9001     1   109.8800469 414.216000
   8999   9000   9002     1   109.8800469 414.216000
   8999   9009   9010     1   109.8800469 414.216000
   8999   9009   9011     1   109.8800469 414.216000
   9000   9003   9004     1   109.8000471 387.438400
   9000   9003   9005     1   109.8000471 387.438400
   9001   9000   9003     1   109.5600471 388.275200
   9001   9000   9002     1   108.4600466 328.025600
   9002   9000   9003     1   109.5600471 388.275200
   9004   9003   9006     1   108.7700466 392.459200
   9004   9003   9005     1   107.5800459 329.699200
   9005   9003   9006     1   108.7700466 392.459200
   9009   9012   9013     1   109.8000471 387.438400
   9009   9012   9014     1   109.8000471 387.438400
   9010   9009   9012     1   109.5600471 388.275200
   9010   9009   9011     1   108.4600466 328.025600
   9011   9009   9012     1   109.5600471 388.275200
   9013   9012   9015     1   108.7700466 392.459200
   9013   9012   9014     1   107.5800459 329.699200
   9014   9012   9015     1   108.7700466 392.459200
   9019   9022   9023     1   109.8000471 387.438400
   9019   9022   9024     1   109.8000471 387.438400
   9020   9019   9022     1   109.5600471 388.275200
   9020   9019   9047     1   109.7800468 425.094400
   9020   9019   9021     1   108.4600466 328.025600
   9021   9019   9022     1   109.5600471 388.275200
   9021   9019   9047     1   109.7800468 425.094400
   9022   9025   9026     1   109.5600471 388.275200
   9022   9025   9027     1   109.5600471 388.275200
   9023   9022   9025     1   109.8000471 387.438400
   9023   9022   9024     1   107.5800459 329.699200
   9024   9022   9025     1   109.8000471 387.438400
   9026   9025   9028     1   109.8800469 414.216000
   9026   9025   9027     1   108.4600466 328.025600
   9027   9025   9028     1   109.8800469 414.216000
   9028   9029   9030     1   109.8800469 414.216000
   9028   9029   9031     1   109.8800469 414.216000
   9028   9038   9039     1   109.8800469 414.216000
   9028   9038   9040     1   109.8800469 414.216000
   9029   9032   9033     1   109.8000471 387.438400
   9029   9032   9034     1   109.8000471 387.438400
   9030   9029   9032     1   109.5600471 388.275200
   9030   9029   9031     1   108.4600466 328.025600
   9031   9029   9032     1   109.5600471 388.275200
   9033   9032   9035     1   108.7700466 392.459200
   9033   9032   9034     1   107.5800459 329.699200
   9034   9032   9035     1   108.7700466 392.459200
   9038   9041   9042     1   109.8000471 387.438400
   9038   9041   9043     1   109.8000471 387.438400
   9039   9038   9041     1   109.5600471 388.275200
   9039   9038   9040     1   108.4600466 328.025600
   9040   9038   9041     1   109.5600471 388.275200
   9042   9041   9044     1   108.7700466 392.459200
   9042   9041   9043     1   107.5800459 329.699200
   9043   9041   9044     1   108.7700466 392.459200
   9048   9051   9052     1   109.8000471 387.438400
   9048   9051   9053     1   109.8000471 387.438400
   9049   9048   9051     1   109.5600471 388.275200
   9049   9048   9076     1   109.7800468 425.094400
   9049   9048   9050     1   108.4600466 328.025600
   9050   9048   9051     1   109.5600471 388.275200
   9050   9048   9076     1   109.7800468 425.094400
   9051   9054   9055     1   109.5600471 388.275200
   9051   9054   9056     1   109.5600471 388.275200
   9052   9051   9054     1   109.8000471 387.438400
   9052   9051   9053     1   107.5800459 329.699200
   9053   9051   9054     1   109.8000471 387.438400
   9055   9054   9057     1   109.8800469 414.216000
   9055   9054   9056     1   108.4600466 328.025600
   9056   9054   9057     1   109.8800469 414.216000
   9057   9058   9059     1   109.8800469 414.216000
   9057   9058   9060     1   109.8800469 414.216000
   9057   9067   9068     1   109.8800469 414.216000
   9057   9067   9069     1   109.8800469 414.216000
   9058   9061   9062     1   109.8000471 387.438400
   9058   9061   9063     1   109.8000471 387.438400
   9059   9058   9061     1   109.5600471 388.275200
   9059   9058   9060     1   108.4600466 328.025600
   9060   9058   9061     1   109.5600471 388.275200
   9062   9061   9064     1   108.7700466 392.459200
   9062   9061   9063     1   107.5800459 329.699200
   9063   9061   9064     1   108.7700466 392.459200
   9067   9070   9071     1   109.8000471 387.438400
   9067   9070   9072     1   109.8000471 387.438400
   9068   9067   9070     1   109.5600471 388.275200
   9068   9067   9069     1   108.4600466 328.025600
   9069   9067   9070     1   109.5600471 388.275200
   9071   9070   9073     1   108.7700466 392.459200
   9071   9070   9072     1   107.5800459 329.699200
   9072   9070   9073     1   108.7700466 392.459200
   9077   9080   9081     1   109.8000471 387.438400
   9077   9080   9082     1   109.8000471 387.438400
   9078   9077   9080     1   109.5600471 388.275200
   9078   9077   9105     1   109.7800468 425.094400
   9078   9077   9079     1   108.4600466 328.025600
   9079   9077   9080     1   109.5600471 388.275200
   9079   9077   9105     1   109.7800468 425.094400
   9080   9083   9084     1   109.5600471 388.275200
   9080   9083   9085     1   109.5600471 388.275200
   9081   9080   9083     1   109.8000471 387.438400
   9081   9080   9082     1   107.5800459 329.699200
   9082   9080   9083     1   109.8000471 387.438400
   9084   9083   9086     1   109.8800469 414.216000
   9084   9083   9085     1   108.4600466 328.025600
   9085   9083   9086     1   109.8800469 414.216000
   9086   9087   9088     1   109.8800469 414.216000
   9086   9087   9089     1   109.8800469 414.216000
   9086   9096   9097     1   109.8800469 414.216000
   9086   9096   9098     1   109.8800469 414.216000
   9087   9090   9091     1   109.8000471 387.438400
   9087   9090   9092     1   109.8000471 387.438400
   9088   9087   9090     1   109.5600471 388.275200
   9088   9087   9089     1   108.4600466 328.025600
   9089   9087   9090     1   109.5600471 388.275200
   9091   9090   9093     1   108.7700466 392.459200
   9091   9090   9092     1   107.5800459 329.699200
   9092   9090   9093     1   108.7700466 392.459200
   9096   9099   9100     1   109.8000471 387.438400
   9096   9099   9101     1   109.8000471 387.438400
   9097   9096   9099     1   109.5600471 388.275200
   9097   9096   9098     1   108.4600466 328.025600
   9098   9096   9099     1   109.5600471 388.275200
   9100   9099   9102     1   108.7700466 392.459200
   9100   9099   9101     1   107.5800459 329.699200
   9101   9099   9102     1   108.7700466 392.459200
   9106   9109   9110     1   109.8000471 387.438400
   9106   9109   9111     1   109.8000471 387.438400
   9107   9106   9109     1   109.5600471 388.275200
   9107   9106   9134     1   109.7800468 425.094400
   9107   9106   9108     1   108.4600466 328.025600
   9108   9106   9109     1   109.5600471 388.275200
   9108   9106   9134     1   109.7800468 425.094400
   9109   9112   9113     1   109.5600471 388.275200
   9109   9112   9114     1   109.5600471 388.275200
   9110   9109   9112     1   109.8000471 387.438400
   9110   9109   9111     1   107.5800459 329.699200
   9111   9109   9112     1   109.8000471 387.438400
   9113   9112   9115     1   109.8800469 414.216000
   9113   9112   9114     1   108.4600466 328.025600
   9114   9112   9115     1   109.8800469 414.216000
   9115   9116   9117     1   109.8800469 414.216000
   9115   9116   9118     1   109.8800469 414.216000
   9115   9125   9126     1   109.8800469 414.216000
   9115   9125   9127     1   109.8800469 414.216000
   9116   9119   9120     1   109.8000471 387.438400
   9116   9119   9121     1   109.8000471 387.438400
   9117   9116   9119     1   109.5600471 388.275200
   9117   9116   9118     1   108.4600466 328.025600
   9118   9116   9119     1   109.5600471 388.275200
   9120   9119   9122     1   108.7700466 392.459200
   9120   9119   9121     1   107.5800459 329.699200
   9121   9119   9122     1   108.7700466 392.459200
   9125   9128   9129     1   109.8000471 387.438400
   9125   9128   9130     1   109.8000471 387.438400
   9126   9125   9128     1   109.5600471 388.275200
   9126   9125   9127     1   108.4600466 328.025600
   9127   9125   9128     1   109.5600471 388.275200
   9129   9128   9131     1   108.7700466 392.459200
   9129   9128   9130     1   107.5800459 329.699200
   9130   9128   9131     1   108.7700466 392.459200
   9135   9138   9139     1   109.8000471 387.438400
   9135   9138   9140     1   109.8000471 387.438400
   9136   9135   9138     1   109.5600471 388.275200
   9136   9135   9163     1   109.7800468 425.094400
   9136   9135   9137     1   108.4600466 328.025600
   9137   9135   9138     1   109.5600471 388.275200
   9137   9135   9163     1   109.7800468 425.094400
   9138   9141   9142     1   109.5600471 388.275200
   9138   9141   9143     1   109.5600471 388.275200
   9139   9138   9141     1   109.8000471 387.438400
   9139   9138   9140     1   107.5800459 329.699200
   9140   9138   9141     1   109.8000471 387.438400
   9142   9141   9144     1   109.8800469 414.216000
   9142   9141   9143     1   108.4600466 328.025600
   9143   9141   9144     1   109.8800469 414.216000
   9144   9145   9146     1   109.8800469 414.216000
   9144   9145   9147     1   109.8800469 414.216000
   9144   9154   9155     1   109.8800469 414.216000
   9144   9154   9156     1   109.8800469 414.216000
   9145   9148   9149     1   109.8000471 387.438400
   9145   9148   9150     1   109.8000471 387.438400
   9146   9145   9148     1   109.5600471 388.275200
   9146   9145   9147     1   108.4600466 328.025600
   9147   9145   9148     1   109.5600471 388.275200
   9149   9148   9151     1   108.7700466 392.459200
   9149   9148   9150     1   107.5800459 329.699200
   9150   9148   9151     1   108.7700466 392.459200
   9154   9157   9158     1   109.8000471 387.438400
   9154   9157   9159     1   109.8000471 387.438400
   9155   9154   9157     1   109.5600471 388.275200
   9155   9154   9156     1   108.4600466 328.025600
   9156   9154   9157     1   109.5600471 388.275200
   9158   9157   9160     1   108.7700466 392.459200
   9158   9157   9159     1   107.5800459 329.699200
   9159   9157   9160     1   108.7700466 392.459200
   9164   9167   9168     1   109.8000471 387.438400
   9164   9167   9169     1   109.8000471 387.438400
   9165   9164   9167     1   109.5600471 388.275200
   9165   9164   9192     1   109.7800468 425.094400
   9165   9164   9166     1   108.4600466 328.025600
   9166   9164   9167     1   109.5600471 388.275200
   9166   9164   9192     1   109.7800468 425.094400
   9167   9170   9171     1   109.5600471 388.275200
   9167   9170   9172     1   109.5600471 388.275200
   9168   9167   9170     1   109.8000471 387.438400
   9168   9167   9169     1   107.5800459 329.699200
   9169   9167   9170     1   109.8000471 387.438400
   9171   9170   9173     1   109.8800469 414.216000
   9171   9170   9172     1   108.4600466 328.025600
   9172   9170   9173     1   109.8800469 414.216000
   9173   9174   9175     1   109.8800469 414.216000
   9173   9174   9176     1   109.8800469 414.216000
   9173   9183   9184     1   109.8800469 414.216000
   9173   9183   9185     1   109.8800469 414.216000
   9174   9177   9178     1   109.8000471 387.438400
   9174   9177   9179     1   109.8000471 387.438400
   9175   9174   9177     1   109.5600471 388.275200
   9175   9174   9176     1   108.4600466 328.025600
   9176   9174   9177     1   109.5600471 388.275200
   9178   9177   9180     1   108.7700466 392.459200
   9178   9177   9179     1   107.5800459 329.699200
   9179   9177   9180     1   108.7700466 392.459200
   9183   9186   9187     1   109.8000471 387.438400
   9183   9186   9188     1   109.8000471 387.438400
   9184   9183   9186     1   109.5600471 388.275200
   9184   9183   9185     1   108.4600466 328.025600
   9185   9183   9186     1   109.5600471 388.275200
   9187   9186   9189     1   108.7700466 392.459200
   9187   9186   9188     1   107.5800459 329.699200
   9188   9186   9189     1   108.7700466 392.459200
   9193   9196   9197     1   109.8000471 387.438400
   9193   9196   9198     1   109.8000471 387.438400
   9194   9193   9196     1   109.5600471 388.275200
   9194   9193   9221     1   109.7800468 425.094400
   9194   9193   9195     1   108.4600466 328.025600
   9195   9193   9196     1   109.5600471 388.275200
   9195   9193   9221     1   109.7800468 425.094400
   9196   9199   9200     1   109.5600471 388.275200
   9196   9199   9201     1   109.5600471 388.275200
   9197   9196   9199     1   109.8000471 387.438400
   9197   9196   9198     1   107.5800459 329.699200
   9198   9196   9199     1   109.8000471 387.438400
   9200   9199   9202     1   109.8800469 414.216000
   9200   9199   9201     1   108.4600466 328.025600
   9201   9199   9202     1   109.8800469 414.216000
   9202   9203   9204     1   109.8800469 414.216000
   9202   9203   9205     1   109.8800469 414.216000
   9202   9212   9213     1   109.8800469 414.216000
   9202   9212   9214     1   109.8800469 414.216000
   9203   9206   9207     1   109.8000471 387.438400
   9203   9206   9208     1   109.8000471 387.438400
   9204   9203   9206     1   109.5600471 388.275200
   9204   9203   9205     1   108.4600466 328.025600
   9205   9203   9206     1   109.5600471 388.275200
   9207   9206   9209     1   108.7700466 392.459200
   9207   9206   9208     1   107.5800459 329.699200
   9208   9206   9209     1   108.7700466 392.459200
   9212   9215   9216     1   109.8000471 387.438400
   9212   9215   9217     1   109.8000471 387.438400
   9213   9212   9215     1   109.5600471 388.275200
   9213   9212   9214     1   108.4600466 328.025600
   9214   9212   9215     1   109.5600471 388.275200
   9216   9215   9218     1   108.7700466 392.459200
   9216   9215   9217     1   107.5800459 329.699200
   9217   9215   9218     1   108.7700466 392.459200
   9222   9225   9226     1   109.8000471 387.438400
   9222   9225   9227     1   109.8000471 387.438400
   9223   9222   9225     1   109.5600471 388.275200
   9223   9222   9250     1   109.7800468 425.094400
   9223   9222   9224     1   108.4600466 328.025600
   9224   9222   9225     1   109.5600471 388.275200
   9224   9222   9250     1   109.7800468 425.094400
   9225   9228   9229     1   109.5600471 388.275200
   9225   9228   9230     1   109.5600471 388.275200
   9226   9225   9228     1   109.8000471 387.438400
   9226   9225   9227     1   107.5800459 329.699200
   9227   9225   9228     1   109.8000471 387.438400
   9229   9228   9231     1   109.8800469 414.216000
   9229   9228   9230     1   108.4600466 328.025600
   9230   9228   9231     1   109.8800469 414.216000
   9231   9232   9233     1   109.8800469 414.216000
   9231   9232   9234     1   109.8800469 414.216000
   9231   9241   9242     1   109.8800469 414.216000
   9231   9241   9243     1   109.8800469 414.216000
   9232   9235   9236     1   109.8000471 387.438400
   9232   9235   9237     1   109.8000471 387.438400
   9233   9232   9235     1   109.5600471 388.275200
   9233   9232   9234     1   108.4600466 328.025600
   9234   9232   9235     1   109.5600471 388.275200
   9236   9235   9238     1   108.7700466 392.459200
   9236   9235   9237     1   107.5800459 329.699200
   9237   9235   9238     1   108.7700466 392.459200
   9241   9244   9245     1   109.8000471 387.438400
   9241   9244   9246     1   109.8000471 387.438400
   9242   9241   9244     1   109.5600471 388.275200
   9242   9241   9243     1   108.4600466 328.025600
   9243   9241   9244     1   109.5600471 388.275200
   9245   9244   9247     1   108.7700466 392.459200
   9245   9244   9246     1   107.5800459 329.699200
   9246   9244   9247     1   108.7700466 392.459200
   9251   9254   9255     1   109.8000471 387.438400
   9251   9254   9256     1   109.8000471 387.438400
   9252   9251   9254     1   109.5600471 388.275200
   9252   9251   9279     1   109.7800468 425.094400
   9252   9251   9253     1   108.4600466 328.025600
   9253   9251   9254     1   109.5600471 388.275200
   9253   9251   9279     1   109.7800468 425.094400
   9254   9257   9258     1   109.5600471 388.275200
   9254   9257   9259     1   109.5600471 388.275200
   9255   9254   9257     1   109.8000471 387.438400
   9255   9254   9256     1   107.5800459 329.699200
   9256   9254   9257     1   109.8000471 387.438400
   9258   9257   9260     1   109.8800469 414.216000
   9258   9257   9259     1   108.4600466 328.025600
   9259   9257   9260     1   109.8800469 414.216000
   9260   9261   9262     1   109.8800469 414.216000
   9260   9261   9263     1   109.8800469 414.216000
   9260   9270   9271     1   109.8800469 414.216000
   9260   9270   9272     1   109.8800469 414.216000
   9261   9264   9265     1   109.8000471 387.438400
   9261   9264   9266     1   109.8000471 387.438400
   9262   9261   9264     1   109.5600471 388.275200
   9262   9261   9263     1   108.4600466 328.025600
   9263   9261   9264     1   109.5600471 388.275200
   9265   9264   9267     1   108.7700466 392.459200
   9265   9264   9266     1   107.5800459 329.699200
   9266   9264   9267     1   108.7700466 392.459200
   9270   9273   9274     1   109.8000471 387.438400
   9270   9273   9275     1   109.8000471 387.438400
   9271   9270   9273     1   109.5600471 388.275200
   9271   9270   9272     1   108.4600466 328.025600
   9272   9270   9273     1   109.5600471 388.275200
   9274   9273   9276     1   108.7700466 392.459200
   9274   9273   9275     1   107.5800459 329.699200
   9275   9273   9276     1   108.7700466 392.459200
   9280   9283   9284     1   109.8000471 387.438400
   9280   9283   9285     1   109.8000471 387.438400
   9281   9280   9283     1   109.5600471 388.275200
   9281   9280   9308     1   109.7800468 425.094400
   9281   9280   9282     1   108.4600466 328.025600
   9282   9280   9283     1   109.5600471 388.275200
   9282   9280   9308     1   109.7800468 425.094400
   9283   9286   9287     1   109.5600471 388.275200
   9283   9286   9288     1   109.5600471 388.275200
   9284   9283   9286     1   109.8000471 387.438400
   9284   9283   9285     1   107.5800459 329.699200
   9285   9283   9286     1   109.8000471 387.438400
   9287   9286   9289     1   109.8800469 414.216000
   9287   9286   9288     1   108.4600466 328.025600
   9288   9286   9289     1   109.8800469 414.216000
   9289   9290   9291     1   109.8800469 414.216000
   9289   9290   9292     1   109.8800469 414.216000
   9289   9299   9300     1   109.8800469 414.216000
   9289   9299   9301     1   109.8800469 414.216000
   9290   9293   9294     1   109.8000471 387.438400
   9290   9293   9295     1   109.8000471 387.438400
   9291   9290   9293     1   109.5600471 388.275200
   9291   9290   9292     1   108.4600466 328.025600
   9292   9290   9293     1   109.5600471 388.275200
   9294   9293   9296     1   108.7700466 392.459200
   9294   9293   9295     1   107.5800459 329.699200
   9295   9293   9296     1   108.7700466 392.459200
   9299   9302   9303     1   109.8000471 387.438400
   9299   9302   9304     1   109.8000471 387.438400
   9300   9299   9302     1   109.5600471 388.275200
   9300   9299   9301     1   108.4600466 328.025600
   9301   9299   9302     1   109.5600471 388.275200
   9303   9302   9305     1   108.7700466 392.459200
   9303   9302   9304     1   107.5800459 329.699200
   9304   9302   9305     1   108.7700466 392.459200
   9309   9312   9313     1   109.8000471 387.438400
   9309   9312   9314     1   109.8000471 387.438400
   9310   9309   9312     1   109.5600471 388.275200
   9310   9309   9337     1   109.7800468 425.094400
   9310   9309   9311     1   108.4600466 328.025600
   9311   9309   9312     1   109.5600471 388.275200
   9311   9309   9337     1   109.7800468 425.094400
   9312   9315   9316     1   109.5600471 388.275200
   9312   9315   9317     1   109.5600471 388.275200
   9313   9312   9315     1   109.8000471 387.438400
   9313   9312   9314     1   107.5800459 329.699200
   9314   9312   9315     1   109.8000471 387.438400
   9316   9315   9318     1   109.8800469 414.216000
   9316   9315   9317     1   108.4600466 328.025600
   9317   9315   9318     1   109.8800469 414.216000
   9318   9319   9320     1   109.8800469 414.216000
   9318   9319   9321     1   109.8800469 414.216000
   9318   9328   9329     1   109.8800469 414.216000
   9318   9328   9330     1   109.8800469 414.216000
   9319   9322   9323     1   109.8000471 387.438400
   9319   9322   9324     1   109.8000471 387.438400
   9320   9319   9322     1   109.5600471 388.275200
   9320   9319   9321     1   108.4600466 328.025600
   9321   9319   9322     1   109.5600471 388.275200
   9323   9322   9325     1   108.7700466 392.459200
   9323   9322   9324     1   107.5800459 329.699200
   9324   9322   9325     1   108.7700466 392.459200
   9328   9331   9332     1   109.8000471 387.438400
   9328   9331   9333     1   109.8000471 387.438400
   9329   9328   9331     1   109.5600471 388.275200
   9329   9328   9330     1   108.4600466 328.025600
   9330   9328   9331     1   109.5600471 388.275200
   9332   9331   9334     1   108.7700466 392.459200
   9332   9331   9333     1   107.5800459 329.699200
   9333   9331   9334     1   108.7700466 392.459200
   9338   9341   9342     1   109.8000471 387.438400
   9338   9341   9343     1   109.8000471 387.438400
   9339   9338   9341     1   109.5600471 388.275200
   9339   9338   9366     1   109.7800468 425.094400
   9339   9338   9340     1   108.4600466 328.025600
   9340   9338   9341     1   109.5600471 388.275200
   9340   9338   9366     1   109.7800468 425.094400
   9341   9344   9345     1   109.5600471 388.275200
   9341   9344   9346     1   109.5600471 388.275200
   9342   9341   9344     1   109.8000471 387.438400
   9342   9341   9343     1   107.5800459 329.699200
   9343   9341   9344     1   109.8000471 387.438400
   9345   9344   9347     1   109.8800469 414.216000
   9345   9344   9346     1   108.4600466 328.025600
   9346   9344   9347     1   109.8800469 414.216000
   9347   9348   9349     1   109.8800469 414.216000
   9347   9348   9350     1   109.8800469 414.216000
   9347   9357   9358     1   109.8800469 414.216000
   9347   9357   9359     1   109.8800469 414.216000
   9348   9351   9352     1   109.8000471 387.438400
   9348   9351   9353     1   109.8000471 387.438400
   9349   9348   9351     1   109.5600471 388.275200
   9349   9348   9350     1   108.4600466 328.025600
   9350   9348   9351     1   109.5600471 388.275200
   9352   9351   9354     1   108.7700466 392.459200
   9352   9351   9353     1   107.5800459 329.699200
   9353   9351   9354     1   108.7700466 392.459200
   9357   9360   9361     1   109.8000471 387.438400
   9357   9360   9362     1   109.8000471 387.438400
   9358   9357   9360     1   109.5600471 388.275200
   9358   9357   9359     1   108.4600466 328.025600
   9359   9357   9360     1   109.5600471 388.275200
   9361   9360   9363     1   108.7700466 392.459200
   9361   9360   9362     1   107.5800459 329.699200
   9362   9360   9363     1   108.7700466 392.459200
   9367   9370   9371     1   109.8000471 387.438400
   9367   9370   9372     1   109.8000471 387.438400
   9368   9367   9370     1   109.5600471 388.275200
   9368   9367   9395     1   109.7800468 425.094400
   9368   9367   9369     1   108.4600466 328.025600
   9369   9367   9370     1   109.5600471 388.275200
   9369   9367   9395     1   109.7800468 425.094400
   9370   9373   9374     1   109.5600471 388.275200
   9370   9373   9375     1   109.5600471 388.275200
   9371   9370   9373     1   109.8000471 387.438400
   9371   9370   9372     1   107.5800459 329.699200
   9372   9370   9373     1   109.8000471 387.438400
   9374   9373   9376     1   109.8800469 414.216000
   9374   9373   9375     1   108.4600466 328.025600
   9375   9373   9376     1   109.8800469 414.216000
   9376   9377   9378     1   109.8800469 414.216000
   9376   9377   9379     1   109.8800469 414.216000
   9376   9386   9387     1   109.8800469 414.216000
   9376   9386   9388     1   109.8800469 414.216000
   9377   9380   9381     1   109.8000471 387.438400
   9377   9380   9382     1   109.8000471 387.438400
   9378   9377   9380     1   109.5600471 388.275200
   9378   9377   9379     1   108.4600466 328.025600
   9379   9377   9380     1   109.5600471 388.275200
   9381   9380   9383     1   108.7700466 392.459200
   9381   9380   9382     1   107.5800459 329.699200
   9382   9380   9383     1   108.7700466 392.459200
   9386   9389   9390     1   109.8000471 387.438400
   9386   9389   9391     1   109.8000471 387.438400
   9387   9386   9389     1   109.5600471 388.275200
   9387   9386   9388     1   108.4600466 328.025600
   9388   9386   9389     1   109.5600471 388.275200
   9390   9389   9392     1   108.7700466 392.459200
   9390   9389   9391     1   107.5800459 329.699200
   9391   9389   9392     1   108.7700466 392.459200
   9396   9399   9400     1   109.8000471 387.438400
   9396   9399   9401     1   109.8000471 387.438400
   9397   9396   9399     1   109.5600471 388.275200
   9397   9396   9424     1   109.7800468 425.094400
   9397   9396   9398     1   108.4600466 328.025600
   9398   9396   9399     1   109.5600471 388.275200
   9398   9396   9424     1   109.7800468 425.094400
   9399   9402   9403     1   109.5600471 388.275200
   9399   9402   9404     1   109.5600471 388.275200
   9400   9399   9402     1   109.8000471 387.438400
   9400   9399   9401     1   107.5800459 329.699200
   9401   9399   9402     1   109.8000471 387.438400
   9403   9402   9405     1   109.8800469 414.216000
   9403   9402   9404     1   108.4600466 328.025600
   9404   9402   9405     1   109.8800469 414.216000
   9405   9406   9407     1   109.8800469 414.216000
   9405   9406   9408     1   109.8800469 414.216000
   9405   9415   9416     1   109.8800469 414.216000
   9405   9415   9417     1   109.8800469 414.216000
   9406   9409   9410     1   109.8000471 387.438400
   9406   9409   9411     1   109.8000471 387.438400
   9407   9406   9409     1   109.5600471 388.275200
   9407   9406   9408     1   108.4600466 328.025600
   9408   9406   9409     1   109.5600471 388.275200
   9410   9409   9412     1   108.7700466 392.459200
   9410   9409   9411     1   107.5800459 329.699200
   9411   9409   9412     1   108.7700466 392.459200
   9415   9418   9419     1   109.8000471 387.438400
   9415   9418   9420     1   109.8000471 387.438400
   9416   9415   9418     1   109.5600471 388.275200
   9416   9415   9417     1   108.4600466 328.025600
   9417   9415   9418     1   109.5600471 388.275200
   9419   9418   9421     1   108.7700466 392.459200
   9419   9418   9420     1   107.5800459 329.699200
   9420   9418   9421     1   108.7700466 392.459200
   9425   9428   9429     1   109.8000471 387.438400
   9425   9428   9430     1   109.8000471 387.438400
   9426   9425   9428     1   109.5600471 388.275200
   9426   9425   9453     1   109.7800468 425.094400
   9426   9425   9427     1   108.4600466 328.025600
   9427   9425   9428     1   109.5600471 388.275200
   9427   9425   9453     1   109.7800468 425.094400
   9428   9431   9432     1   109.5600471 388.275200
   9428   9431   9433     1   109.5600471 388.275200
   9429   9428   9431     1   109.8000471 387.438400
   9429   9428   9430     1   107.5800459 329.699200
   9430   9428   9431     1   109.8000471 387.438400
   9432   9431   9434     1   109.8800469 414.216000
   9432   9431   9433     1   108.4600466 328.025600
   9433   9431   9434     1   109.8800469 414.216000
   9434   9435   9436     1   109.8800469 414.216000
   9434   9435   9437     1   109.8800469 414.216000
   9434   9444   9445     1   109.8800469 414.216000
   9434   9444   9446     1   109.8800469 414.216000
   9435   9438   9439     1   109.8000471 387.438400
   9435   9438   9440     1   109.8000471 387.438400
   9436   9435   9438     1   109.5600471 388.275200
   9436   9435   9437     1   108.4600466 328.025600
   9437   9435   9438     1   109.5600471 388.275200
   9439   9438   9441     1   108.7700466 392.459200
   9439   9438   9440     1   107.5800459 329.699200
   9440   9438   9441     1   108.7700466 392.459200
   9444   9447   9448     1   109.8000471 387.438400
   9444   9447   9449     1   109.8000471 387.438400
   9445   9444   9447     1   109.5600471 388.275200
   9445   9444   9446     1   108.4600466 328.025600
   9446   9444   9447     1   109.5600471 388.275200
   9448   9447   9450     1   108.7700466 392.459200
   9448   9447   9449     1   107.5800459 329.699200
   9449   9447   9450     1   108.7700466 392.459200
   9454   9457   9458     1   109.8000471 387.438400
   9454   9457   9459     1   109.8000471 387.438400
   9455   9454   9457     1   109.5600471 388.275200
   9455   9454   9482     1   109.7800468 425.094400
   9455   9454   9456     1   108.4600466 328.025600
   9456   9454   9457     1   109.5600471 388.275200
   9456   9454   9482     1   109.7800468 425.094400
   9457   9460   9461     1   109.5600471 388.275200
   9457   9460   9462     1   109.5600471 388.275200
   9458   9457   9460     1   109.8000471 387.438400
   9458   9457   9459     1   107.5800459 329.699200
   9459   9457   9460     1   109.8000471 387.438400
   9461   9460   9463     1   109.8800469 414.216000
   9461   9460   9462     1   108.4600466 328.025600
   9462   9460   9463     1   109.8800469 414.216000
   9463   9464   9465     1   109.8800469 414.216000
   9463   9464   9466     1   109.8800469 414.216000
   9463   9473   9474     1   109.8800469 414.216000
   9463   9473   9475     1   109.8800469 414.216000
   9464   9467   9468     1   109.8000471 387.438400
   9464   9467   9469     1   109.8000471 387.438400
   9465   9464   9467     1   109.5600471 388.275200
   9465   9464   9466     1   108.4600466 328.025600
   9466   9464   9467     1   109.5600471 388.275200
   9468   9467   9470     1   108.7700466 392.459200
   9468   9467   9469     1   107.5800459 329.699200
   9469   9467   9470     1   108.7700466 392.459200
   9473   9476   9477     1   109.8000471 387.438400
   9473   9476   9478     1   109.8000471 387.438400
   9474   9473   9476     1   109.5600471 388.275200
   9474   9473   9475     1   108.4600466 328.025600
   9475   9473   9476     1   109.5600471 388.275200
   9477   9476   9479     1   108.7700466 392.459200
   9477   9476   9478     1   107.5800459 329.699200
   9478   9476   9479     1   108.7700466 392.459200
   9483   9486   9487     1   109.8000471 387.438400
   9483   9486   9488     1   109.8000471 387.438400
   9484   9483   9486     1   109.5600471 388.275200
   9484   9483   9511     1   109.7800468 425.094400
   9484   9483   9485     1   108.4600466 328.025600
   9485   9483   9486     1   109.5600471 388.275200
   9485   9483   9511     1   109.7800468 425.094400
   9486   9489   9490     1   109.5600471 388.275200
   9486   9489   9491     1   109.5600471 388.275200
   9487   9486   9489     1   109.8000471 387.438400
   9487   9486   9488     1   107.5800459 329.699200
   9488   9486   9489     1   109.8000471 387.438400
   9490   9489   9492     1   109.8800469 414.216000
   9490   9489   9491     1   108.4600466 328.025600
   9491   9489   9492     1   109.8800469 414.216000
   9492   9493   9494     1   109.8800469 414.216000
   9492   9493   9495     1   109.8800469 414.216000
   9492   9502   9503     1   109.8800469 414.216000
   9492   9502   9504     1   109.8800469 414.216000
   9493   9496   9497     1   109.8000471 387.438400
   9493   9496   9498     1   109.8000471 387.438400
   9494   9493   9496     1   109.5600471 388.275200
   9494   9493   9495     1   108.4600466 328.025600
   9495   9493   9496     1   109.5600471 388.275200
   9497   9496   9499     1   108.7700466 392.459200
   9497   9496   9498     1   107.5800459 329.699200
   9498   9496   9499     1   108.7700466 392.459200
   9502   9505   9506     1   109.8000471 387.438400
   9502   9505   9507     1   109.8000471 387.438400
   9503   9502   9505     1   109.5600471 388.275200
   9503   9502   9504     1   108.4600466 328.025600
   9504   9502   9505     1   109.5600471 388.275200
   9506   9505   9508     1   108.7700466 392.459200
   9506   9505   9507     1   107.5800459 329.699200
   9507   9505   9508     1   108.7700466 392.459200
   9512   9515   9516     1   109.8000471 387.438400
   9512   9515   9517     1   109.8000471 387.438400
   9513   9512   9515     1   109.5600471 388.275200
   9513   9512   9540     1   109.7800468 425.094400
   9513   9512   9514     1   108.4600466 328.025600
   9514   9512   9515     1   109.5600471 388.275200
   9514   9512   9540     1   109.7800468 425.094400
   9515   9518   9519     1   109.5600471 388.275200
   9515   9518   9520     1   109.5600471 388.275200
   9516   9515   9518     1   109.8000471 387.438400
   9516   9515   9517     1   107.5800459 329.699200
   9517   9515   9518     1   109.8000471 387.438400
   9519   9518   9521     1   109.8800469 414.216000
   9519   9518   9520     1   108.4600466 328.025600
   9520   9518   9521     1   109.8800469 414.216000
   9521   9522   9523     1   109.8800469 414.216000
   9521   9522   9524     1   109.8800469 414.216000
   9521   9531   9532     1   109.8800469 414.216000
   9521   9531   9533     1   109.8800469 414.216000
   9522   9525   9526     1   109.8000471 387.438400
   9522   9525   9527     1   109.8000471 387.438400
   9523   9522   9525     1   109.5600471 388.275200
   9523   9522   9524     1   108.4600466 328.025600
   9524   9522   9525     1   109.5600471 388.275200
   9526   9525   9528     1   108.7700466 392.459200
   9526   9525   9527     1   107.5800459 329.699200
   9527   9525   9528     1   108.7700466 392.459200
   9531   9534   9535     1   109.8000471 387.438400
   9531   9534   9536     1   109.8000471 387.438400
   9532   9531   9534     1   109.5600471 388.275200
   9532   9531   9533     1   108.4600466 328.025600
   9533   9531   9534     1   109.5600471 388.275200
   9535   9534   9537     1   108.7700466 392.459200
   9535   9534   9536     1   107.5800459 329.699200
   9536   9534   9537     1   108.7700466 392.459200
   9541   9544   9545     1   109.8000471 387.438400
   9541   9544   9546     1   109.8000471 387.438400
   9542   9541   9544     1   109.5600471 388.275200
   9542   9541   9569     1   109.7800468 425.094400
   9542   9541   9543     1   108.4600466 328.025600
   9543   9541   9544     1   109.5600471 388.275200
   9543   9541   9569     1   109.7800468 425.094400
   9544   9547   9548     1   109.5600471 388.275200
   9544   9547   9549     1   109.5600471 388.275200
   9545   9544   9547     1   109.8000471 387.438400
   9545   9544   9546     1   107.5800459 329.699200
   9546   9544   9547     1   109.8000471 387.438400
   9548   9547   9550     1   109.8800469 414.216000
   9548   9547   9549     1   108.4600466 328.025600
   9549   9547   9550     1   109.8800469 414.216000
   9550   9551   9552     1   109.8800469 414.216000
   9550   9551   9553     1   109.8800469 414.216000
   9550   9560   9561     1   109.8800469 414.216000
   9550   9560   9562     1   109.8800469 414.216000
   9551   9554   9555     1   109.8000471 387.438400
   9551   9554   9556     1   109.8000471 387.438400
   9552   9551   9554     1   109.5600471 388.275200
   9552   9551   9553     1   108.4600466 328.025600
   9553   9551   9554     1   109.5600471 388.275200
   9555   9554   9557     1   108.7700466 392.459200
   9555   9554   9556     1   107.5800459 329.699200
   9556   9554   9557     1   108.7700466 392.459200
   9560   9563   9564     1   109.8000471 387.438400
   9560   9563   9565     1   109.8000471 387.438400
   9561   9560   9563     1   109.5600471 388.275200
   9561   9560   9562     1   108.4600466 328.025600
   9562   9560   9563     1   109.5600471 388.275200
   9564   9563   9566     1   108.7700466 392.459200
   9564   9563   9565     1   107.5800459 329.699200
   9565   9563   9566     1   108.7700466 392.459200
   9570   9573   9574     1   109.8000471 387.438400
   9570   9573   9575     1   109.8000471 387.438400
   9571   9570   9573     1   109.5600471 388.275200
   9571   9570   9598     1   109.7800468 425.094400
   9571   9570   9572     1   108.4600466 328.025600
   9572   9570   9573     1   109.5600471 388.275200
   9572   9570   9598     1   109.7800468 425.094400
   9573   9576   9577     1   109.5600471 388.275200
   9573   9576   9578     1   109.5600471 388.275200
   9574   9573   9576     1   109.8000471 387.438400
   9574   9573   9575     1   107.5800459 329.699200
   9575   9573   9576     1   109.8000471 387.438400
   9577   9576   9579     1   109.8800469 414.216000
   9577   9576   9578     1   108.4600466 328.025600
   9578   9576   9579     1   109.8800469 414.216000
   9579   9580   9581     1   109.8800469 414.216000
   9579   9580   9582     1   109.8800469 414.216000
   9579   9589   9590     1   109.8800469 414.216000
   9579   9589   9591     1   109.8800469 414.216000
   9580   9583   9584     1   109.8000471 387.438400
   9580   9583   9585     1   109.8000471 387.438400
   9581   9580   9583     1   109.5600471 388.275200
   9581   9580   9582     1   108.4600466 328.025600
   9582   9580   9583     1   109.5600471 388.275200
   9584   9583   9586     1   108.7700466 392.459200
   9584   9583   9585     1   107.5800459 329.699200
   9585   9583   9586     1   108.7700466 392.459200
   9589   9592   9593     1   109.8000471 387.438400
   9589   9592   9594     1   109.8000471 387.438400
   9590   9589   9592     1   109.5600471 388.275200
   9590   9589   9591     1   108.4600466 328.025600
   9591   9589   9592     1   109.5600471 388.275200
   9593   9592   9595     1   108.7700466 392.459200
   9593   9592   9594     1   107.5800459 329.699200
   9594   9592   9595     1   108.7700466 392.459200
   9599   9602   9603     1   109.8000471 387.438400
   9599   9602   9604     1   109.8000471 387.438400
   9600   9599   9602     1   109.5600471 388.275200
   9600   9599   9627     1   109.7800468 425.094400
   9600   9599   9601     1   108.4600466 328.025600
   9601   9599   9602     1   109.5600471 388.275200
   9601   9599   9627     1   109.7800468 425.094400
   9602   9605   9606     1   109.5600471 388.275200
   9602   9605   9607     1   109.5600471 388.275200
   9603   9602   9605     1   109.8000471 387.438400
   9603   9602   9604     1   107.5800459 329.699200
   9604   9602   9605     1   109.8000471 387.438400
   9606   9605   9608     1   109.8800469 414.216000
   9606   9605   9607     1   108.4600466 328.025600
   9607   9605   9608     1   109.8800469 414.216000
   9608   9609   9610     1   109.8800469 414.216000
   9608   9609   9611     1   109.8800469 414.216000
   9608   9618   9619     1   109.8800469 414.216000
   9608   9618   9620     1   109.8800469 414.216000
   9609   9612   9613     1   109.8000471 387.438400
   9609   9612   9614     1   109.8000471 387.438400
   9610   9609   9612     1   109.5600471 388.275200
   9610   9609   9611     1   108.4600466 328.025600
   9611   9609   9612     1   109.5600471 388.275200
   9613   9612   9615     1   108.7700466 392.459200
   9613   9612   9614     1   107.5800459 329.699200
   9614   9612   9615     1   108.7700466 392.459200
   9618   9621   9622     1   109.8000471 387.438400
   9618   9621   9623     1   109.8000471 387.438400
   9619   9618   9621     1   109.5600471 388.275200
   9619   9618   9620     1   108.4600466 328.025600
   9620   9618   9621     1   109.5600471 388.275200
   9622   9621   9624     1   108.7700466 392.459200
   9622   9621   9623     1   107.5800459 329.699200
   9623   9621   9624     1   108.7700466 392.459200
   9628   9631   9632     1   109.8000471 387.438400
   9628   9631   9633     1   109.8000471 387.438400
   9629   9628   9631     1   109.5600471 388.275200
   9629   9628   9656     1   109.7800468 425.094400
   9629   9628   9630     1   108.4600466 328.025600
   9630   9628   9631     1   109.5600471 388.275200
   9630   9628   9656     1   109.7800468 425.094400
   9631   9634   9635     1   109.5600471 388.275200
   9631   9634   9636     1   109.5600471 388.275200
   9632   9631   9634     1   109.8000471 387.438400
   9632   9631   9633     1   107.5800459 329.699200
   9633   9631   9634     1   109.8000471 387.438400
   9635   9634   9637     1   109.8800469 414.216000
   9635   9634   9636     1   108.4600466 328.025600
   9636   9634   9637     1   109.8800469 414.216000
   9637   9638   9639     1   109.8800469 414.216000
   9637   9638   9640     1   109.8800469 414.216000
   9637   9647   9648     1   109.8800469 414.216000
   9637   9647   9649     1   109.8800469 414.216000
   9638   9641   9642     1   109.8000471 387.438400
   9638   9641   9643     1   109.8000471 387.438400
   9639   9638   9641     1   109.5600471 388.275200
   9639   9638   9640     1   108.4600466 328.025600
   9640   9638   9641     1   109.5600471 388.275200
   9642   9641   9644     1   108.7700466 392.459200
   9642   9641   9643     1   107.5800459 329.699200
   9643   9641   9644     1   108.7700466 392.459200
   9647   9650   9651     1   109.8000471 387.438400
   9647   9650   9652     1   109.8000471 387.438400
   9648   9647   9650     1   109.5600471 388.275200
   9648   9647   9649     1   108.4600466 328.025600
   9649   9647   9650     1   109.5600471 388.275200
   9651   9650   9653     1   108.7700466 392.459200
   9651   9650   9652     1   107.5800459 329.699200
   9652   9650   9653     1   108.7700466 392.459200
   9657   9660   9661     1   109.8000471 387.438400
   9657   9660   9662     1   109.8000471 387.438400
   9658   9657   9660     1   109.5600471 388.275200
   9658   9657   9685     1   109.7800468 425.094400
   9658   9657   9659     1   108.4600466 328.025600
   9659   9657   9660     1   109.5600471 388.275200
   9659   9657   9685     1   109.7800468 425.094400
   9660   9663   9664     1   109.5600471 388.275200
   9660   9663   9665     1   109.5600471 388.275200
   9661   9660   9663     1   109.8000471 387.438400
   9661   9660   9662     1   107.5800459 329.699200
   9662   9660   9663     1   109.8000471 387.438400
   9664   9663   9666     1   109.8800469 414.216000
   9664   9663   9665     1   108.4600466 328.025600
   9665   9663   9666     1   109.8800469 414.216000
   9666   9667   9668     1   109.8800469 414.216000
   9666   9667   9669     1   109.8800469 414.216000
   9666   9676   9677     1   109.8800469 414.216000
   9666   9676   9678     1   109.8800469 414.216000
   9667   9670   9671     1   109.8000471 387.438400
   9667   9670   9672     1   109.8000471 387.438400
   9668   9667   9670     1   109.5600471 388.275200
   9668   9667   9669     1   108.4600466 328.025600
   9669   9667   9670     1   109.5600471 388.275200
   9671   9670   9673     1   108.7700466 392.459200
   9671   9670   9672     1   107.5800459 329.699200
   9672   9670   9673     1   108.7700466 392.459200
   9676   9679   9680     1   109.8000471 387.438400
   9676   9679   9681     1   109.8000471 387.438400
   9677   9676   9679     1   109.5600471 388.275200
   9677   9676   9678     1   108.4600466 328.025600
   9678   9676   9679     1   109.5600471 388.275200
   9680   9679   9682     1   108.7700466 392.459200
   9680   9679   9681     1   107.5800459 329.699200
   9681   9679   9682     1   108.7700466 392.459200
   9686   9689   9690     1   109.8000471 387.438400
   9686   9689   9691     1   109.8000471 387.438400
   9687   9686   9689     1   109.5600471 388.275200
   9687   9686   9714     1   109.7800468 425.094400
   9687   9686   9688     1   108.4600466 328.025600
   9688   9686   9689     1   109.5600471 388.275200
   9688   9686   9714     1   109.7800468 425.094400
   9689   9692   9693     1   109.5600471 388.275200
   9689   9692   9694     1   109.5600471 388.275200
   9690   9689   9692     1   109.8000471 387.438400
   9690   9689   9691     1   107.5800459 329.699200
   9691   9689   9692     1   109.8000471 387.438400
   9693   9692   9695     1   109.8800469 414.216000
   9693   9692   9694     1   108.4600466 328.025600
   9694   9692   9695     1   109.8800469 414.216000
   9695   9696   9697     1   109.8800469 414.216000
   9695   9696   9698     1   109.8800469 414.216000
   9695   9705   9706     1   109.8800469 414.216000
   9695   9705   9707     1   109.8800469 414.216000
   9696   9699   9700     1   109.8000471 387.438400
   9696   9699   9701     1   109.8000471 387.438400
   9697   9696   9699     1   109.5600471 388.275200
   9697   9696   9698     1   108.4600466 328.025600
   9698   9696   9699     1   109.5600471 388.275200
   9700   9699   9702     1   108.7700466 392.459200
   9700   9699   9701     1   107.5800459 329.699200
   9701   9699   9702     1   108.7700466 392.459200
   9705   9708   9709     1   109.8000471 387.438400
   9705   9708   9710     1   109.8000471 387.438400
   9706   9705   9708     1   109.5600471 388.275200
   9706   9705   9707     1   108.4600466 328.025600
   9707   9705   9708     1   109.5600471 388.275200
   9709   9708   9711     1   108.7700466 392.459200
   9709   9708   9710     1   107.5800459 329.699200
   9710   9708   9711     1   108.7700466 392.459200
   9715   9718   9719     1   109.8000471 387.438400
   9715   9718   9720     1   109.8000471 387.438400
   9716   9715   9718     1   109.5600471 388.275200
   9716   9715   9743     1   109.7800468 425.094400
   9716   9715   9717     1   108.4600466 328.025600
   9717   9715   9718     1   109.5600471 388.275200
   9717   9715   9743     1   109.7800468 425.094400
   9718   9721   9722     1   109.5600471 388.275200
   9718   9721   9723     1   109.5600471 388.275200
   9719   9718   9721     1   109.8000471 387.438400
   9719   9718   9720     1   107.5800459 329.699200
   9720   9718   9721     1   109.8000471 387.438400
   9722   9721   9724     1   109.8800469 414.216000
   9722   9721   9723     1   108.4600466 328.025600
   9723   9721   9724     1   109.8800469 414.216000
   9724   9725   9726     1   109.8800469 414.216000
   9724   9725   9727     1   109.8800469 414.216000
   9724   9734   9735     1   109.8800469 414.216000
   9724   9734   9736     1   109.8800469 414.216000
   9725   9728   9729     1   109.8000471 387.438400
   9725   9728   9730     1   109.8000471 387.438400
   9726   9725   9728     1   109.5600471 388.275200
   9726   9725   9727     1   108.4600466 328.025600
   9727   9725   9728     1   109.5600471 388.275200
   9729   9728   9731     1   108.7700466 392.459200
   9729   9728   9730     1   107.5800459 329.699200
   9730   9728   9731     1   108.7700466 392.459200
   9734   9737   9738     1   109.8000471 387.438400
   9734   9737   9739     1   109.8000471 387.438400
   9735   9734   9737     1   109.5600471 388.275200
   9735   9734   9736     1   108.4600466 328.025600
   9736   9734   9737     1   109.5600471 388.275200
   9738   9737   9740     1   108.7700466 392.459200
   9738   9737   9739     1   107.5800459 329.699200
   9739   9737   9740     1   108.7700466 392.459200
   9744   9747   9748     1   109.8000471 387.438400
   9744   9747   9749     1   109.8000471 387.438400
   9745   9744   9747     1   109.5600471 388.275200
   9745   9744   9772     1   109.7800468 425.094400
   9745   9744   9746     1   108.4600466 328.025600
   9746   9744   9747     1   109.5600471 388.275200
   9746   9744   9772     1   109.7800468 425.094400
   9747   9750   9751     1   109.5600471 388.275200
   9747   9750   9752     1   109.5600471 388.275200
   9748   9747   9750     1   109.8000471 387.438400
   9748   9747   9749     1   107.5800459 329.699200
   9749   9747   9750     1   109.8000471 387.438400
   9751   9750   9753     1   109.8800469 414.216000
   9751   9750   9752     1   108.4600466 328.025600
   9752   9750   9753     1   109.8800469 414.216000
   9753   9754   9755     1   109.8800469 414.216000
   9753   9754   9756     1   109.8800469 414.216000
   9753   9763   9764     1   109.8800469 414.216000
   9753   9763   9765     1   109.8800469 414.216000
   9754   9757   9758     1   109.8000471 387.438400
   9754   9757   9759     1   109.8000471 387.438400
   9755   9754   9757     1   109.5600471 388.275200
   9755   9754   9756     1   108.4600466 328.025600
   9756   9754   9757     1   109.5600471 388.275200
   9758   9757   9760     1   108.7700466 392.459200
   9758   9757   9759     1   107.5800459 329.699200
   9759   9757   9760     1   108.7700466 392.459200
   9763   9766   9767     1   109.8000471 387.438400
   9763   9766   9768     1   109.8000471 387.438400
   9764   9763   9766     1   109.5600471 388.275200
   9764   9763   9765     1   108.4600466 328.025600
   9765   9763   9766     1   109.5600471 388.275200
   9767   9766   9769     1   108.7700466 392.459200
   9767   9766   9768     1   107.5800459 329.699200
   9768   9766   9769     1   108.7700466 392.459200
   9773   9776   9777     1   109.8000471 387.438400
   9773   9776   9778     1   109.8000471 387.438400
   9774   9773   9776     1   109.5600471 388.275200
   9774   9773   9801     1   109.7800468 425.094400
   9774   9773   9775     1   108.4600466 328.025600
   9775   9773   9776     1   109.5600471 388.275200
   9775   9773   9801     1   109.7800468 425.094400
   9776   9779   9780     1   109.5600471 388.275200
   9776   9779   9781     1   109.5600471 388.275200
   9777   9776   9779     1   109.8000471 387.438400
   9777   9776   9778     1   107.5800459 329.699200
   9778   9776   9779     1   109.8000471 387.438400
   9780   9779   9782     1   109.8800469 414.216000
   9780   9779   9781     1   108.4600466 328.025600
   9781   9779   9782     1   109.8800469 414.216000
   9782   9783   9784     1   109.8800469 414.216000
   9782   9783   9785     1   109.8800469 414.216000
   9782   9792   9793     1   109.8800469 414.216000
   9782   9792   9794     1   109.8800469 414.216000
   9783   9786   9787     1   109.8000471 387.438400
   9783   9786   9788     1   109.8000471 387.438400
   9784   9783   9786     1   109.5600471 388.275200
   9784   9783   9785     1   108.4600466 328.025600
   9785   9783   9786     1   109.5600471 388.275200
   9787   9786   9789     1   108.7700466 392.459200
   9787   9786   9788     1   107.5800459 329.699200
   9788   9786   9789     1   108.7700466 392.459200
   9792   9795   9796     1   109.8000471 387.438400
   9792   9795   9797     1   109.8000471 387.438400
   9793   9792   9795     1   109.5600471 388.275200
   9793   9792   9794     1   108.4600466 328.025600
   9794   9792   9795     1   109.5600471 388.275200
   9796   9795   9798     1   108.7700466 392.459200
   9796   9795   9797     1   107.5800459 329.699200
   9797   9795   9798     1   108.7700466 392.459200
   9802   9805   9806     1   109.8000471 387.438400
   9802   9805   9807     1   109.8000471 387.438400
   9803   9802   9805     1   109.5600471 388.275200
   9803   9802   9830     1   109.7800468 425.094400
   9803   9802   9804     1   108.4600466 328.025600
   9804   9802   9805     1   109.5600471 388.275200
   9804   9802   9830     1   109.7800468 425.094400
   9805   9808   9809     1   109.5600471 388.275200
   9805   9808   9810     1   109.5600471 388.275200
   9806   9805   9808     1   109.8000471 387.438400
   9806   9805   9807     1   107.5800459 329.699200
   9807   9805   9808     1   109.8000471 387.438400
   9809   9808   9811     1   109.8800469 414.216000
   9809   9808   9810     1   108.4600466 328.025600
   9810   9808   9811     1   109.8800469 414.216000
   9811   9812   9813     1   109.8800469 414.216000
   9811   9812   9814     1   109.8800469 414.216000
   9811   9821   9822     1   109.8800469 414.216000
   9811   9821   9823     1   109.8800469 414.216000
   9812   9815   9816     1   109.8000471 387.438400
   9812   9815   9817     1   109.8000471 387.438400
   9813   9812   9815     1   109.5600471 388.275200
   9813   9812   9814     1   108.4600466 328.025600
   9814   9812   9815     1   109.5600471 388.275200
   9816   9815   9818     1   108.7700466 392.459200
   9816   9815   9817     1   107.5800459 329.699200
   9817   9815   9818     1   108.7700466 392.459200
   9821   9824   9825     1   109.8000471 387.438400
   9821   9824   9826     1   109.8000471 387.438400
   9822   9821   9824     1   109.5600471 388.275200
   9822   9821   9823     1   108.4600466 328.025600
   9823   9821   9824     1   109.5600471 388.275200
   9825   9824   9827     1   108.7700466 392.459200
   9825   9824   9826     1   107.5800459 329.699200
   9826   9824   9827     1   108.7700466 392.459200
   9831   9834   9835     1   109.8000471 387.438400
   9831   9834   9836     1   109.8000471 387.438400
   9832   9831   9834     1   109.5600471 388.275200
   9832   9831   9859     1   109.7800468 425.094400
   9832   9831   9833     1   108.4600466 328.025600
   9833   9831   9834     1   109.5600471 388.275200
   9833   9831   9859     1   109.7800468 425.094400
   9834   9837   9838     1   109.5600471 388.275200
   9834   9837   9839     1   109.5600471 388.275200
   9835   9834   9837     1   109.8000471 387.438400
   9835   9834   9836     1   107.5800459 329.699200
   9836   9834   9837     1   109.8000471 387.438400
   9838   9837   9840     1   109.8800469 414.216000
   9838   9837   9839     1   108.4600466 328.025600
   9839   9837   9840     1   109.8800469 414.216000
   9840   9841   9842     1   109.8800469 414.216000
   9840   9841   9843     1   109.8800469 414.216000
   9840   9850   9851     1   109.8800469 414.216000
   9840   9850   9852     1   109.8800469 414.216000
   9841   9844   9845     1   109.8000471 387.438400
   9841   9844   9846     1   109.8000471 387.438400
   9842   9841   9844     1   109.5600471 388.275200
   9842   9841   9843     1   108.4600466 328.025600
   9843   9841   9844     1   109.5600471 388.275200
   9845   9844   9847     1   108.7700466 392.459200
   9845   9844   9846     1   107.5800459 329.699200
   9846   9844   9847     1   108.7700466 392.459200
   9850   9853   9854     1   109.8000471 387.438400
   9850   9853   9855     1   109.8000471 387.438400
   9851   9850   9853     1   109.5600471 388.275200
   9851   9850   9852     1   108.4600466 328.025600
   9852   9850   9853     1   109.5600471 388.275200
   9854   9853   9856     1   108.7700466 392.459200
   9854   9853   9855     1   107.5800459 329.699200
   9855   9853   9856     1   108.7700466 392.459200
   9860   9863   9864     1   109.8000471 387.438400
   9860   9863   9865     1   109.8000471 387.438400
   9861   9860   9863     1   109.5600471 388.275200
   9861   9860   9888     1   109.7800468 425.094400
   9861   9860   9862     1   108.4600466 328.025600
   9862   9860   9863     1   109.5600471 388.275200
   9862   9860   9888     1   109.7800468 425.094400
   9863   9866   9867     1   109.5600471 388.275200
   9863   9866   9868     1   109.5600471 388.275200
   9864   9863   9866     1   109.8000471 387.438400
   9864   9863   9865     1   107.5800459 329.699200
   9865   9863   9866     1   109.8000471 387.438400
   9867   9866   9869     1   109.8800469 414.216000
   9867   9866   9868     1   108.4600466 328.025600
   9868   9866   9869     1   109.8800469 414.216000
   9869   9870   9871     1   109.8800469 414.216000
   9869   9870   9872     1   109.8800469 414.216000
   9869   9879   9880     1   109.8800469 414.216000
   9869   9879   9881     1   109.8800469 414.216000
   9870   9873   9874     1   109.8000471 387.438400
   9870   9873   9875     1   109.8000471 387.438400
   9871   9870   9873     1   109.5600471 388.275200
   9871   9870   9872     1   108.4600466 328.025600
   9872   9870   9873     1   109.5600471 388.275200
   9874   9873   9876     1   108.7700466 392.459200
   9874   9873   9875     1   107.5800459 329.699200
   9875   9873   9876     1   108.7700466 392.459200
   9879   9882   9883     1   109.8000471 387.438400
   9879   9882   9884     1   109.8000471 387.438400
   9880   9879   9882     1   109.5600471 388.275200
   9880   9879   9881     1   108.4600466 328.025600
   9881   9879   9882     1   109.5600471 388.275200
   9883   9882   9885     1   108.7700466 392.459200
   9883   9882   9884     1   107.5800459 329.699200
   9884   9882   9885     1   108.7700466 392.459200
   9889   9892   9893     1   109.8000471 387.438400
   9889   9892   9894     1   109.8000471 387.438400
   9890   9889   9892     1   109.5600471 388.275200
   9890   9889   9917     1   109.7800468 425.094400
   9890   9889   9891     1   108.4600466 328.025600
   9891   9889   9892     1   109.5600471 388.275200
   9891   9889   9917     1   109.7800468 425.094400
   9892   9895   9896     1   109.5600471 388.275200
   9892   9895   9897     1   109.5600471 388.275200
   9893   9892   9895     1   109.8000471 387.438400
   9893   9892   9894     1   107.5800459 329.699200
   9894   9892   9895     1   109.8000471 387.438400
   9896   9895   9898     1   109.8800469 414.216000
   9896   9895   9897     1   108.4600466 328.025600
   9897   9895   9898     1   109.8800469 414.216000
   9898   9899   9900     1   109.8800469 414.216000
   9898   9899   9901     1   109.8800469 414.216000
   9898   9908   9909     1   109.8800469 414.216000
   9898   9908   9910     1   109.8800469 414.216000
   9899   9902   9903     1   109.8000471 387.438400
   9899   9902   9904     1   109.8000471 387.438400
   9900   9899   9902     1   109.5600471 388.275200
   9900   9899   9901     1   108.4600466 328.025600
   9901   9899   9902     1   109.5600471 388.275200
   9903   9902   9905     1   108.7700466 392.459200
   9903   9902   9904     1   107.5800459 329.699200
   9904   9902   9905     1   108.7700466 392.459200
   9908   9911   9912     1   109.8000471 387.438400
   9908   9911   9913     1   109.8000471 387.438400
   9909   9908   9911     1   109.5600471 388.275200
   9909   9908   9910     1   108.4600466 328.025600
   9910   9908   9911     1   109.5600471 388.275200
   9912   9911   9914     1   108.7700466 392.459200
   9912   9911   9913     1   107.5800459 329.699200
   9913   9911   9914     1   108.7700466 392.459200
   9918   9921   9922     1   109.8000471 387.438400
   9918   9921   9923     1   109.8000471 387.438400
   9919   9918   9921     1   109.5600471 388.275200
   9919   9918   9946     1   109.7800468 425.094400
   9919   9918   9920     1   108.4600466 328.025600
   9920   9918   9921     1   109.5600471 388.275200
   9920   9918   9946     1   109.7800468 425.094400
   9921   9924   9925     1   109.5600471 388.275200
   9921   9924   9926     1   109.5600471 388.275200
   9922   9921   9924     1   109.8000471 387.438400
   9922   9921   9923     1   107.5800459 329.699200
   9923   9921   9924     1   109.8000471 387.438400
   9925   9924   9927     1   109.8800469 414.216000
   9925   9924   9926     1   108.4600466 328.025600
   9926   9924   9927     1   109.8800469 414.216000
   9927   9928   9929     1   109.8800469 414.216000
   9927   9928   9930     1   109.8800469 414.216000
   9927   9937   9938     1   109.8800469 414.216000
   9927   9937   9939     1   109.8800469 414.216000
   9928   9931   9932     1   109.8000471 387.438400
   9928   9931   9933     1   109.8000471 387.438400
   9929   9928   9931     1   109.5600471 388.275200
   9929   9928   9930     1   108.4600466 328.025600
   9930   9928   9931     1   109.5600471 388.275200
   9932   9931   9934     1   108.7700466 392.459200
   9932   9931   9933     1   107.5800459 329.699200
   9933   9931   9934     1   108.7700466 392.459200
   9937   9940   9941     1   109.8000471 387.438400
   9937   9940   9942     1   109.8000471 387.438400
   9938   9937   9940     1   109.5600471 388.275200
   9938   9937   9939     1   108.4600466 328.025600
   9939   9937   9940     1   109.5600471 388.275200
   9941   9940   9943     1   108.7700466 392.459200
   9941   9940   9942     1   107.5800459 329.699200
   9942   9940   9943     1   108.7700466 392.459200
   9947   9950   9951     1   109.8000471 387.438400
   9947   9950   9952     1   109.8000471 387.438400
   9948   9947   9950     1   109.5600471 388.275200
   9948   9947   9975     1   109.7800468 425.094400
   9948   9947   9949     1   108.4600466 328.025600
   9949   9947   9950     1   109.5600471 388.275200
   9949   9947   9975     1   109.7800468 425.094400
   9950   9953   9954     1   109.5600471 388.275200
   9950   9953   9955     1   109.5600471 388.275200
   9951   9950   9953     1   109.8000471 387.438400
   9951   9950   9952     1   107.5800459 329.699200
   9952   9950   9953     1   109.8000471 387.438400
   9954   9953   9956     1   109.8800469 414.216000
   9954   9953   9955     1   108.4600466 328.025600
   9955   9953   9956     1   109.8800469 414.216000
   9956   9957   9958     1   109.8800469 414.216000
   9956   9957   9959     1   109.8800469 414.216000
   9956   9966   9967     1   109.8800469 414.216000
   9956   9966   9968     1   109.8800469 414.216000
   9957   9960   9961     1   109.8000471 387.438400
   9957   9960   9962     1   109.8000471 387.438400
   9958   9957   9960     1   109.5600471 388.275200
   9958   9957   9959     1   108.4600466 328.025600
   9959   9957   9960     1   109.5600471 388.275200
   9961   9960   9963     1   108.7700466 392.459200
   9961   9960   9962     1   107.5800459 329.699200
   9962   9960   9963     1   108.7700466 392.459200
   9966   9969   9970     1   109.8000471 387.438400
   9966   9969   9971     1   109.8000471 387.438400
   9967   9966   9969     1   109.5600471 388.275200
   9967   9966   9968     1   108.4600466 328.025600
   9968   9966   9969     1   109.5600471 388.275200
   9970   9969   9972     1   108.7700466 392.459200
   9970   9969   9971     1   107.5800459 329.699200
   9971   9969   9972     1   108.7700466 392.459200
   9976   9979   9980     1   109.8000471 387.438400
   9976   9979   9981     1   109.8000471 387.438400
   9977   9976   9979     1   109.5600471 388.275200
   9977   9976  10004     1   109.7800468 425.094400
   9977   9976   9978     1   108.4600466 328.025600
   9978   9976   9979     1   109.5600471 388.275200
   9978   9976  10004     1   109.7800468 425.094400
   9979   9982   9983     1   109.5600471 388.275200
   9979   9982   9984     1   109.5600471 388.275200
   9980   9979   9982     1   109.8000471 387.438400
   9980   9979   9981     1   107.5800459 329.699200
   9981   9979   9982     1   109.8000471 387.438400
   9983   9982   9985     1   109.8800469 414.216000
   9983   9982   9984     1   108.4600466 328.025600
   9984   9982   9985     1   109.8800469 414.216000
   9985   9986   9987     1   109.8800469 414.216000
   9985   9986   9988     1   109.8800469 414.216000
   9985   9995   9996     1   109.8800469 414.216000
   9985   9995   9997     1   109.8800469 414.216000
   9986   9989   9990     1   109.8000471 387.438400
   9986   9989   9991     1   109.8000471 387.438400
   9987   9986   9989     1   109.5600471 388.275200
   9987   9986   9988     1   108.4600466 328.025600
   9988   9986   9989     1   109.5600471 388.275200
   9990   9989   9992     1   108.7700466 392.459200
   9990   9989   9991     1   107.5800459 329.699200
   9991   9989   9992     1   108.7700466 392.459200
   9995   9998   9999     1   109.8000471 387.438400
   9995   9998  10000     1   109.8000471 387.438400
   9996   9995   9998     1   109.5600471 388.275200
   9996   9995   9997     1   108.4600466 328.025600
   9997   9995   9998     1   109.5600471 388.275200
   9999   9998  10001     1   108.7700466 392.459200
   9999   9998  10000     1   107.5800459 329.699200
  10000   9998  10001     1   108.7700466 392.459200
  10005  10008  10009     1   109.8000471 387.438400
  10005  10008  10010     1   109.8000471 387.438400
  10006  10005  10008     1   109.5600471 388.275200
  10006  10005  10033     1   109.7800468 425.094400
  10006  10005  10007     1   108.4600466 328.025600
  10007  10005  10008     1   109.5600471 388.275200
  10007  10005  10033     1   109.7800468 425.094400
  10008  10011  10012     1   109.5600471 388.275200
  10008  10011  10013     1   109.5600471 388.275200
  10009  10008  10011     1   109.8000471 387.438400
  10009  10008  10010     1   107.5800459 329.699200
  10010  10008  10011     1   109.8000471 387.438400
  10012  10011  10014     1   109.8800469 414.216000
  10012  10011  10013     1   108.4600466 328.025600
  10013  10011  10014     1   109.8800469 414.216000
  10014  10015  10016     1   109.8800469 414.216000
  10014  10015  10017     1   109.8800469 414.216000
  10014  10024  10025     1   109.8800469 414.216000
  10014  10024  10026     1   109.8800469 414.216000
  10015  10018  10019     1   109.8000471 387.438400
  10015  10018  10020     1   109.8000471 387.438400
  10016  10015  10018     1   109.5600471 388.275200
  10016  10015  10017     1   108.4600466 328.025600
  10017  10015  10018     1   109.5600471 388.275200
  10019  10018  10021     1   108.7700466 392.459200
  10019  10018  10020     1   107.5800459 329.699200
  10020  10018  10021     1   108.7700466 392.459200
  10024  10027  10028     1   109.8000471 387.438400
  10024  10027  10029     1   109.8000471 387.438400
  10025  10024  10027     1   109.5600471 388.275200
  10025  10024  10026     1   108.4600466 328.025600
  10026  10024  10027     1   109.5600471 388.275200
  10028  10027  10030     1   108.7700466 392.459200
  10028  10027  10029     1   107.5800459 329.699200
  10029  10027  10030     1   108.7700466 392.459200
  10034  10037  10038     1   109.8000471 387.438400
  10034  10037  10039     1   109.8000471 387.438400
  10035  10034  10037     1   109.5600471 388.275200
  10035  10034  10062     1   109.7800468 425.094400
  10035  10034  10036     1   108.4600466 328.025600
  10036  10034  10037     1   109.5600471 388.275200
  10036  10034  10062     1   109.7800468 425.094400
  10037  10040  10041     1   109.5600471 388.275200
  10037  10040  10042     1   109.5600471 388.275200
  10038  10037  10040     1   109.8000471 387.438400
  10038  10037  10039     1   107.5800459 329.699200
  10039  10037  10040     1   109.8000471 387.438400
  10041  10040  10043     1   109.8800469 414.216000
  10041  10040  10042     1   108.4600466 328.025600
  10042  10040  10043     1   109.8800469 414.216000
  10043  10044  10045     1   109.8800469 414.216000
  10043  10044  10046     1   109.8800469 414.216000
  10043  10053  10054     1   109.8800469 414.216000
  10043  10053  10055     1   109.8800469 414.216000
  10044  10047  10048     1   109.8000471 387.438400
  10044  10047  10049     1   109.8000471 387.438400
  10045  10044  10047     1   109.5600471 388.275200
  10045  10044  10046     1   108.4600466 328.025600
  10046  10044  10047     1   109.5600471 388.275200
  10048  10047  10050     1   108.7700466 392.459200
  10048  10047  10049     1   107.5800459 329.699200
  10049  10047  10050     1   108.7700466 392.459200
  10053  10056  10057     1   109.8000471 387.438400
  10053  10056  10058     1   109.8000471 387.438400
  10054  10053  10056     1   109.5600471 388.275200
  10054  10053  10055     1   108.4600466 328.025600
  10055  10053  10056     1   109.5600471 388.275200
  10057  10056  10059     1   108.7700466 392.459200
  10057  10056  10058     1   107.5800459 329.699200
  10058  10056  10059     1   108.7700466 392.459200
  10063  10066  10067     1   109.8000471 387.438400
  10063  10066  10068     1   109.8000471 387.438400
  10064  10063  10066     1   109.5600471 388.275200
  10064  10063  10091     1   109.7800468 425.094400
  10064  10063  10065     1   108.4600466 328.025600
  10065  10063  10066     1   109.5600471 388.275200
  10065  10063  10091     1   109.7800468 425.094400
  10066  10069  10070     1   109.5600471 388.275200
  10066  10069  10071     1   109.5600471 388.275200
  10067  10066  10069     1   109.8000471 387.438400
  10067  10066  10068     1   107.5800459 329.699200
  10068  10066  10069     1   109.8000471 387.438400
  10070  10069  10072     1   109.8800469 414.216000
  10070  10069  10071     1   108.4600466 328.025600
  10071  10069  10072     1   109.8800469 414.216000
  10072  10073  10074     1   109.8800469 414.216000
  10072  10073  10075     1   109.8800469 414.216000
  10072  10082  10083     1   109.8800469 414.216000
  10072  10082  10084     1   109.8800469 414.216000
  10073  10076  10077     1   109.8000471 387.438400
  10073  10076  10078     1   109.8000471 387.438400
  10074  10073  10076     1   109.5600471 388.275200
  10074  10073  10075     1   108.4600466 328.025600
  10075  10073  10076     1   109.5600471 388.275200
  10077  10076  10079     1   108.7700466 392.459200
  10077  10076  10078     1   107.5800459 329.699200
  10078  10076  10079     1   108.7700466 392.459200
  10082  10085  10086     1   109.8000471 387.438400
  10082  10085  10087     1   109.8000471 387.438400
  10083  10082  10085     1   109.5600471 388.275200
  10083  10082  10084     1   108.4600466 328.025600
  10084  10082  10085     1   109.5600471 388.275200
  10086  10085  10088     1   108.7700466 392.459200
  10086  10085  10087     1   107.5800459 329.699200
  10087  10085  10088     1   108.7700466 392.459200
  10092  10095  10096     1   109.8000471 387.438400
  10092  10095  10097     1   109.8000471 387.438400
  10093  10092  10095     1   109.5600471 388.275200
  10093  10092  10120     1   109.7800468 425.094400
  10093  10092  10094     1   108.4600466 328.025600
  10094  10092  10095     1   109.5600471 388.275200
  10094  10092  10120     1   109.7800468 425.094400
  10095  10098  10099     1   109.5600471 388.275200
  10095  10098  10100     1   109.5600471 388.275200
  10096  10095  10098     1   109.8000471 387.438400
  10096  10095  10097     1   107.5800459 329.699200
  10097  10095  10098     1   109.8000471 387.438400
  10099  10098  10101     1   109.8800469 414.216000
  10099  10098  10100     1   108.4600466 328.025600
  10100  10098  10101     1   109.8800469 414.216000
  10101  10102  10103     1   109.8800469 414.216000
  10101  10102  10104     1   109.8800469 414.216000
  10101  10111  10112     1   109.8800469 414.216000
  10101  10111  10113     1   109.8800469 414.216000
  10102  10105  10106     1   109.8000471 387.438400
  10102  10105  10107     1   109.8000471 387.438400
  10103  10102  10105     1   109.5600471 388.275200
  10103  10102  10104     1   108.4600466 328.025600
  10104  10102  10105     1   109.5600471 388.275200
  10106  10105  10108     1   108.7700466 392.459200
  10106  10105  10107     1   107.5800459 329.699200
  10107  10105  10108     1   108.7700466 392.459200
  10111  10114  10115     1   109.8000471 387.438400
  10111  10114  10116     1   109.8000471 387.438400
  10112  10111  10114     1   109.5600471 388.275200
  10112  10111  10113     1   108.4600466 328.025600
  10113  10111  10114     1   109.5600471 388.275200
  10115  10114  10117     1   108.7700466 392.459200
  10115  10114  10116     1   107.5800459 329.699200
  10116  10114  10117     1   108.7700466 392.459200
  10121  10124  10125     1   109.8000471 387.438400
  10121  10124  10126     1   109.8000471 387.438400
  10122  10121  10124     1   109.5600471 388.275200
  10122  10121  10149     1   109.7800468 425.094400
  10122  10121  10123     1   108.4600466 328.025600
  10123  10121  10124     1   109.5600471 388.275200
  10123  10121  10149     1   109.7800468 425.094400
  10124  10127  10128     1   109.5600471 388.275200
  10124  10127  10129     1   109.5600471 388.275200
  10125  10124  10127     1   109.8000471 387.438400
  10125  10124  10126     1   107.5800459 329.699200
  10126  10124  10127     1   109.8000471 387.438400
  10128  10127  10130     1   109.8800469 414.216000
  10128  10127  10129     1   108.4600466 328.025600
  10129  10127  10130     1   109.8800469 414.216000
  10130  10131  10132     1   109.8800469 414.216000
  10130  10131  10133     1   109.8800469 414.216000
  10130  10140  10141     1   109.8800469 414.216000
  10130  10140  10142     1   109.8800469 414.216000
  10131  10134  10135     1   109.8000471 387.438400
  10131  10134  10136     1   109.8000471 387.438400
  10132  10131  10134     1   109.5600471 388.275200
  10132  10131  10133     1   108.4600466 328.025600
  10133  10131  10134     1   109.5600471 388.275200
  10135  10134  10137     1   108.7700466 392.459200
  10135  10134  10136     1   107.5800459 329.699200
  10136  10134  10137     1   108.7700466 392.459200
  10140  10143  10144     1   109.8000471 387.438400
  10140  10143  10145     1   109.8000471 387.438400
  10141  10140  10143     1   109.5600471 388.275200
  10141  10140  10142     1   108.4600466 328.025600
  10142  10140  10143     1   109.5600471 388.275200
  10144  10143  10146     1   108.7700466 392.459200
  10144  10143  10145     1   107.5800459 329.699200
  10145  10143  10146     1   108.7700466 392.459200
  10150  10153  10154     1   109.8000471 387.438400
  10150  10153  10155     1   109.8000471 387.438400
  10151  10150  10153     1   109.5600471 388.275200
  10151  10150  10178     1   109.7800468 425.094400
  10151  10150  10152     1   108.4600466 328.025600
  10152  10150  10153     1   109.5600471 388.275200
  10152  10150  10178     1   109.7800468 425.094400
  10153  10156  10157     1   109.5600471 388.275200
  10153  10156  10158     1   109.5600471 388.275200
  10154  10153  10156     1   109.8000471 387.438400
  10154  10153  10155     1   107.5800459 329.699200
  10155  10153  10156     1   109.8000471 387.438400
  10157  10156  10159     1   109.8800469 414.216000
  10157  10156  10158     1   108.4600466 328.025600
  10158  10156  10159     1   109.8800469 414.216000
  10159  10160  10161     1   109.8800469 414.216000
  10159  10160  10162     1   109.8800469 414.216000
  10159  10169  10170     1   109.8800469 414.216000
  10159  10169  10171     1   109.8800469 414.216000
  10160  10163  10164     1   109.8000471 387.438400
  10160  10163  10165     1   109.8000471 387.438400
  10161  10160  10163     1   109.5600471 388.275200
  10161  10160  10162     1   108.4600466 328.025600
  10162  10160  10163     1   109.5600471 388.275200
  10164  10163  10166     1   108.7700466 392.459200
  10164  10163  10165     1   107.5800459 329.699200
  10165  10163  10166     1   108.7700466 392.459200
  10169  10172  10173     1   109.8000471 387.438400
  10169  10172  10174     1   109.8000471 387.438400
  10170  10169  10172     1   109.5600471 388.275200
  10170  10169  10171     1   108.4600466 328.025600
  10171  10169  10172     1   109.5600471 388.275200
  10173  10172  10175     1   108.7700466 392.459200
  10173  10172  10174     1   107.5800459 329.699200
  10174  10172  10175     1   108.7700466 392.459200
  10179  10182  10183     1   109.8000471 387.438400
  10179  10182  10184     1   109.8000471 387.438400
  10180  10179  10182     1   109.5600471 388.275200
  10180  10179  10207     1   109.7800468 425.094400
  10180  10179  10181     1   108.4600466 328.025600
  10181  10179  10182     1   109.5600471 388.275200
  10181  10179  10207     1   109.7800468 425.094400
  10182  10185  10186     1   109.5600471 388.275200
  10182  10185  10187     1   109.5600471 388.275200
  10183  10182  10185     1   109.8000471 387.438400
  10183  10182  10184     1   107.5800459 329.699200
  10184  10182  10185     1   109.8000471 387.438400
  10186  10185  10188     1   109.8800469 414.216000
  10186  10185  10187     1   108.4600466 328.025600
  10187  10185  10188     1   109.8800469 414.216000
  10188  10189  10190     1   109.8800469 414.216000
  10188  10189  10191     1   109.8800469 414.216000
  10188  10198  10199     1   109.8800469 414.216000
  10188  10198  10200     1   109.8800469 414.216000
  10189  10192  10193     1   109.8000471 387.438400
  10189  10192  10194     1   109.8000471 387.438400
  10190  10189  10192     1   109.5600471 388.275200
  10190  10189  10191     1   108.4600466 328.025600
  10191  10189  10192     1   109.5600471 388.275200
  10193  10192  10195     1   108.7700466 392.459200
  10193  10192  10194     1   107.5800459 329.699200
  10194  10192  10195     1   108.7700466 392.459200
  10198  10201  10202     1   109.8000471 387.438400
  10198  10201  10203     1   109.8000471 387.438400
  10199  10198  10201     1   109.5600471 388.275200
  10199  10198  10200     1   108.4600466 328.025600
  10200  10198  10201     1   109.5600471 388.275200
  10202  10201  10204     1   108.7700466 392.459200
  10202  10201  10203     1   107.5800459 329.699200
  10203  10201  10204     1   108.7700466 392.459200
  10208  10211  10212     1   109.8000471 387.438400
  10208  10211  10213     1   109.8000471 387.438400
  10209  10208  10211     1   109.5600471 388.275200
  10209  10208  10236     1   109.7800468 425.094400
  10209  10208  10210     1   108.4600466 328.025600
  10210  10208  10211     1   109.5600471 388.275200
  10210  10208  10236     1   109.7800468 425.094400
  10211  10214  10215     1   109.5600471 388.275200
  10211  10214  10216     1   109.5600471 388.275200
  10212  10211  10214     1   109.8000471 387.438400
  10212  10211  10213     1   107.5800459 329.699200
  10213  10211  10214     1   109.8000471 387.438400
  10215  10214  10217     1   109.8800469 414.216000
  10215  10214  10216     1   108.4600466 328.025600
  10216  10214  10217     1   109.8800469 414.216000
  10217  10218  10219     1   109.8800469 414.216000
  10217  10218  10220     1   109.8800469 414.216000
  10217  10227  10228     1   109.8800469 414.216000
  10217  10227  10229     1   109.8800469 414.216000
  10218  10221  10222     1   109.8000471 387.438400
  10218  10221  10223     1   109.8000471 387.438400
  10219  10218  10221     1   109.5600471 388.275200
  10219  10218  10220     1   108.4600466 328.025600
  10220  10218  10221     1   109.5600471 388.275200
  10222  10221  10224     1   108.7700466 392.459200
  10222  10221  10223     1   107.5800459 329.699200
  10223  10221  10224     1   108.7700466 392.459200
  10227  10230  10231     1   109.8000471 387.438400
  10227  10230  10232     1   109.8000471 387.438400
  10228  10227  10230     1   109.5600471 388.275200
  10228  10227  10229     1   108.4600466 328.025600
  10229  10227  10230     1   109.5600471 388.275200
  10231  10230  10233     1   108.7700466 392.459200
  10231  10230  10232     1   107.5800459 329.699200
  10232  10230  10233     1   108.7700466 392.459200
  10237  10240  10241     1   109.8000471 387.438400
  10237  10240  10242     1   109.8000471 387.438400
  10238  10237  10240     1   109.5600471 388.275200
  10238  10237  10265     1   109.7800468 425.094400
  10238  10237  10239     1   108.4600466 328.025600
  10239  10237  10240     1   109.5600471 388.275200
  10239  10237  10265     1   109.7800468 425.094400
  10240  10243  10244     1   109.5600471 388.275200
  10240  10243  10245     1   109.5600471 388.275200
  10241  10240  10243     1   109.8000471 387.438400
  10241  10240  10242     1   107.5800459 329.699200
  10242  10240  10243     1   109.8000471 387.438400
  10244  10243  10246     1   109.8800469 414.216000
  10244  10243  10245     1   108.4600466 328.025600
  10245  10243  10246     1   109.8800469 414.216000
  10246  10247  10248     1   109.8800469 414.216000
  10246  10247  10249     1   109.8800469 414.216000
  10246  10256  10257     1   109.8800469 414.216000
  10246  10256  10258     1   109.8800469 414.216000
  10247  10250  10251     1   109.8000471 387.438400
  10247  10250  10252     1   109.8000471 387.438400
  10248  10247  10250     1   109.5600471 388.275200
  10248  10247  10249     1   108.4600466 328.025600
  10249  10247  10250     1   109.5600471 388.275200
  10251  10250  10253     1   108.7700466 392.459200
  10251  10250  10252     1   107.5800459 329.699200
  10252  10250  10253     1   108.7700466 392.459200
  10256  10259  10260     1   109.8000471 387.438400
  10256  10259  10261     1   109.8000471 387.438400
  10257  10256  10259     1   109.5600471 388.275200
  10257  10256  10258     1   108.4600466 328.025600
  10258  10256  10259     1   109.5600471 388.275200
  10260  10259  10262     1   108.7700466 392.459200
  10260  10259  10261     1   107.5800459 329.699200
  10261  10259  10262     1   108.7700466 392.459200
  10266  10269  10270     1   109.8000471 387.438400
  10266  10269  10271     1   109.8000471 387.438400
  10267  10266  10269     1   109.5600471 388.275200
  10267  10266  10294     1   109.7800468 425.094400
  10267  10266  10268     1   108.4600466 328.025600
  10268  10266  10269     1   109.5600471 388.275200
  10268  10266  10294     1   109.7800468 425.094400
  10269  10272  10273     1   109.5600471 388.275200
  10269  10272  10274     1   109.5600471 388.275200
  10270  10269  10272     1   109.8000471 387.438400
  10270  10269  10271     1   107.5800459 329.699200
  10271  10269  10272     1   109.8000471 387.438400
  10273  10272  10275     1   109.8800469 414.216000
  10273  10272  10274     1   108.4600466 328.025600
  10274  10272  10275     1   109.8800469 414.216000
  10275  10276  10277     1   109.8800469 414.216000
  10275  10276  10278     1   109.8800469 414.216000
  10275  10285  10286     1   109.8800469 414.216000
  10275  10285  10287     1   109.8800469 414.216000
  10276  10279  10280     1   109.8000471 387.438400
  10276  10279  10281     1   109.8000471 387.438400
  10277  10276  10279     1   109.5600471 388.275200
  10277  10276  10278     1   108.4600466 328.025600
  10278  10276  10279     1   109.5600471 388.275200
  10280  10279  10282     1   108.7700466 392.459200
  10280  10279  10281     1   107.5800459 329.699200
  10281  10279  10282     1   108.7700466 392.459200
  10285  10288  10289     1   109.8000471 387.438400
  10285  10288  10290     1   109.8000471 387.438400
  10286  10285  10288     1   109.5600471 388.275200
  10286  10285  10287     1   108.4600466 328.025600
  10287  10285  10288     1   109.5600471 388.275200
  10289  10288  10291     1   108.7700466 392.459200
  10289  10288  10290     1   107.5800459 329.699200
  10290  10288  10291     1   108.7700466 392.459200
  10295  10298  10299     1   109.8000471 387.438400
  10295  10298  10300     1   109.8000471 387.438400
  10296  10295  10298     1   109.5600471 388.275200
  10296  10295  10323     1   109.7800468 425.094400
  10296  10295  10297     1   108.4600466 328.025600
  10297  10295  10298     1   109.5600471 388.275200
  10297  10295  10323     1   109.7800468 425.094400
  10298  10301  10302     1   109.5600471 388.275200
  10298  10301  10303     1   109.5600471 388.275200
  10299  10298  10301     1   109.8000471 387.438400
  10299  10298  10300     1   107.5800459 329.699200
  10300  10298  10301     1   109.8000471 387.438400
  10302  10301  10304     1   109.8800469 414.216000
  10302  10301  10303     1   108.4600466 328.025600
  10303  10301  10304     1   109.8800469 414.216000
  10304  10305  10306     1   109.8800469 414.216000
  10304  10305  10307     1   109.8800469 414.216000
  10304  10314  10315     1   109.8800469 414.216000
  10304  10314  10316     1   109.8800469 414.216000
  10305  10308  10309     1   109.8000471 387.438400
  10305  10308  10310     1   109.8000471 387.438400
  10306  10305  10308     1   109.5600471 388.275200
  10306  10305  10307     1   108.4600466 328.025600
  10307  10305  10308     1   109.5600471 388.275200
  10309  10308  10311     1   108.7700466 392.459200
  10309  10308  10310     1   107.5800459 329.699200
  10310  10308  10311     1   108.7700466 392.459200
  10314  10317  10318     1   109.8000471 387.438400
  10314  10317  10319     1   109.8000471 387.438400
  10315  10314  10317     1   109.5600471 388.275200
  10315  10314  10316     1   108.4600466 328.025600
  10316  10314  10317     1   109.5600471 388.275200
  10318  10317  10320     1   108.7700466 392.459200
  10318  10317  10319     1   107.5800459 329.699200
  10319  10317  10320     1   108.7700466 392.459200
  10324  10327  10328     1   109.8000471 387.438400
  10324  10327  10329     1   109.8000471 387.438400
  10325  10324  10327     1   109.5600471 388.275200
  10325  10324  10352     1   109.7800468 425.094400
  10325  10324  10326     1   108.4600466 328.025600
  10326  10324  10327     1   109.5600471 388.275200
  10326  10324  10352     1   109.7800468 425.094400
  10327  10330  10331     1   109.5600471 388.275200
  10327  10330  10332     1   109.5600471 388.275200
  10328  10327  10330     1   109.8000471 387.438400
  10328  10327  10329     1   107.5800459 329.699200
  10329  10327  10330     1   109.8000471 387.438400
  10331  10330  10333     1   109.8800469 414.216000
  10331  10330  10332     1   108.4600466 328.025600
  10332  10330  10333     1   109.8800469 414.216000
  10333  10334  10335     1   109.8800469 414.216000
  10333  10334  10336     1   109.8800469 414.216000
  10333  10343  10344     1   109.8800469 414.216000
  10333  10343  10345     1   109.8800469 414.216000
  10334  10337  10338     1   109.8000471 387.438400
  10334  10337  10339     1   109.8000471 387.438400
  10335  10334  10337     1   109.5600471 388.275200
  10335  10334  10336     1   108.4600466 328.025600
  10336  10334  10337     1   109.5600471 388.275200
  10338  10337  10340     1   108.7700466 392.459200
  10338  10337  10339     1   107.5800459 329.699200
  10339  10337  10340     1   108.7700466 392.459200
  10343  10346  10347     1   109.8000471 387.438400
  10343  10346  10348     1   109.8000471 387.438400
  10344  10343  10346     1   109.5600471 388.275200
  10344  10343  10345     1   108.4600466 328.025600
  10345  10343  10346     1   109.5600471 388.275200
  10347  10346  10349     1   108.7700466 392.459200
  10347  10346  10348     1   107.5800459 329.699200
  10348  10346  10349     1   108.7700466 392.459200
  10353  10356  10357     1   109.8000471 387.438400
  10353  10356  10358     1   109.8000471 387.438400
  10354  10353  10356     1   109.5600471 388.275200
  10354  10353  10381     1   109.7800468 425.094400
  10354  10353  10355     1   108.4600466 328.025600
  10355  10353  10356     1   109.5600471 388.275200
  10355  10353  10381     1   109.7800468 425.094400
  10356  10359  10360     1   109.5600471 388.275200
  10356  10359  10361     1   109.5600471 388.275200
  10357  10356  10359     1   109.8000471 387.438400
  10357  10356  10358     1   107.5800459 329.699200
  10358  10356  10359     1   109.8000471 387.438400
  10360  10359  10362     1   109.8800469 414.216000
  10360  10359  10361     1   108.4600466 328.025600
  10361  10359  10362     1   109.8800469 414.216000
  10362  10363  10364     1   109.8800469 414.216000
  10362  10363  10365     1   109.8800469 414.216000
  10362  10372  10373     1   109.8800469 414.216000
  10362  10372  10374     1   109.8800469 414.216000
  10363  10366  10367     1   109.8000471 387.438400
  10363  10366  10368     1   109.8000471 387.438400
  10364  10363  10366     1   109.5600471 388.275200
  10364  10363  10365     1   108.4600466 328.025600
  10365  10363  10366     1   109.5600471 388.275200
  10367  10366  10369     1   108.7700466 392.459200
  10367  10366  10368     1   107.5800459 329.699200
  10368  10366  10369     1   108.7700466 392.459200
  10372  10375  10376     1   109.8000471 387.438400
  10372  10375  10377     1   109.8000471 387.438400
  10373  10372  10375     1   109.5600471 388.275200
  10373  10372  10374     1   108.4600466 328.025600
  10374  10372  10375     1   109.5600471 388.275200
  10376  10375  10378     1   108.7700466 392.459200
  10376  10375  10377     1   107.5800459 329.699200
  10377  10375  10378     1   108.7700466 392.459200
  10382  10385  10386     1   109.8000471 387.438400
  10382  10385  10387     1   109.8000471 387.438400
  10383  10382  10385     1   109.5600471 388.275200
  10383  10382  10410     1   109.7800468 425.094400
  10383  10382  10384     1   108.4600466 328.025600
  10384  10382  10385     1   109.5600471 388.275200
  10384  10382  10410     1   109.7800468 425.094400
  10385  10388  10389     1   109.5600471 388.275200
  10385  10388  10390     1   109.5600471 388.275200
  10386  10385  10388     1   109.8000471 387.438400
  10386  10385  10387     1   107.5800459 329.699200
  10387  10385  10388     1   109.8000471 387.438400
  10389  10388  10391     1   109.8800469 414.216000
  10389  10388  10390     1   108.4600466 328.025600
  10390  10388  10391     1   109.8800469 414.216000
  10391  10392  10393     1   109.8800469 414.216000
  10391  10392  10394     1   109.8800469 414.216000
  10391  10401  10402     1   109.8800469 414.216000
  10391  10401  10403     1   109.8800469 414.216000
  10392  10395  10396     1   109.8000471 387.438400
  10392  10395  10397     1   109.8000471 387.438400
  10393  10392  10395     1   109.5600471 388.275200
  10393  10392  10394     1   108.4600466 328.025600
  10394  10392  10395     1   109.5600471 388.275200
  10396  10395  10398     1   108.7700466 392.459200
  10396  10395  10397     1   107.5800459 329.699200
  10397  10395  10398     1   108.7700466 392.459200
  10401  10404  10405     1   109.8000471 387.438400
  10401  10404  10406     1   109.8000471 387.438400
  10402  10401  10404     1   109.5600471 388.275200
  10402  10401  10403     1   108.4600466 328.025600
  10403  10401  10404     1   109.5600471 388.275200
  10405  10404  10407     1   108.7700466 392.459200
  10405  10404  10406     1   107.5800459 329.699200
  10406  10404  10407     1   108.7700466 392.459200
  10411  10414  10415     1   109.8000471 387.438400
  10411  10414  10416     1   109.8000471 387.438400
  10412  10411  10414     1   109.5600471 388.275200
  10412  10411  10439     1   109.7800468 425.094400
  10412  10411  10413     1   108.4600466 328.025600
  10413  10411  10414     1   109.5600471 388.275200
  10413  10411  10439     1   109.7800468 425.094400
  10414  10417  10418     1   109.5600471 388.275200
  10414  10417  10419     1   109.5600471 388.275200
  10415  10414  10417     1   109.8000471 387.438400
  10415  10414  10416     1   107.5800459 329.699200
  10416  10414  10417     1   109.8000471 387.438400
  10418  10417  10420     1   109.8800469 414.216000
  10418  10417  10419     1   108.4600466 328.025600
  10419  10417  10420     1   109.8800469 414.216000
  10420  10421  10422     1   109.8800469 414.216000
  10420  10421  10423     1   109.8800469 414.216000
  10420  10430  10431     1   109.8800469 414.216000
  10420  10430  10432     1   109.8800469 414.216000
  10421  10424  10425     1   109.8000471 387.438400
  10421  10424  10426     1   109.8000471 387.438400
  10422  10421  10424     1   109.5600471 388.275200
  10422  10421  10423     1   108.4600466 328.025600
  10423  10421  10424     1   109.5600471 388.275200
  10425  10424  10427     1   108.7700466 392.459200
  10425  10424  10426     1   107.5800459 329.699200
  10426  10424  10427     1   108.7700466 392.459200
  10430  10433  10434     1   109.8000471 387.438400
  10430  10433  10435     1   109.8000471 387.438400
  10431  10430  10433     1   109.5600471 388.275200
  10431  10430  10432     1   108.4600466 328.025600
  10432  10430  10433     1   109.5600471 388.275200
  10434  10433  10436     1   108.7700466 392.459200
  10434  10433  10435     1   107.5800459 329.699200
  10435  10433  10436     1   108.7700466 392.459200
  10440  10443  10444     1   109.8000471 387.438400
  10440  10443  10445     1   109.8000471 387.438400
  10441  10440  10443     1   109.5600471 388.275200
  10441  10440  10468     1   109.7800468 425.094400
  10441  10440  10442     1   108.4600466 328.025600
  10442  10440  10443     1   109.5600471 388.275200
  10442  10440  10468     1   109.7800468 425.094400
  10443  10446  10447     1   109.5600471 388.275200
  10443  10446  10448     1   109.5600471 388.275200
  10444  10443  10446     1   109.8000471 387.438400
  10444  10443  10445     1   107.5800459 329.699200
  10445  10443  10446     1   109.8000471 387.438400
  10447  10446  10449     1   109.8800469 414.216000
  10447  10446  10448     1   108.4600466 328.025600
  10448  10446  10449     1   109.8800469 414.216000
  10449  10450  10451     1   109.8800469 414.216000
  10449  10450  10452     1   109.8800469 414.216000
  10449  10459  10460     1   109.8800469 414.216000
  10449  10459  10461     1   109.8800469 414.216000
  10450  10453  10454     1   109.8000471 387.438400
  10450  10453  10455     1   109.8000471 387.438400
  10451  10450  10453     1   109.5600471 388.275200
  10451  10450  10452     1   108.4600466 328.025600
  10452  10450  10453     1   109.5600471 388.275200
  10454  10453  10456     1   108.7700466 392.459200
  10454  10453  10455     1   107.5800459 329.699200
  10455  10453  10456     1   108.7700466 392.459200
  10459  10462  10463     1   109.8000471 387.438400
  10459  10462  10464     1   109.8000471 387.438400
  10460  10459  10462     1   109.5600471 388.275200
  10460  10459  10461     1   108.4600466 328.025600
  10461  10459  10462     1   109.5600471 388.275200
  10463  10462  10465     1   108.7700466 392.459200
  10463  10462  10464     1   107.5800459 329.699200
  10464  10462  10465     1   108.7700466 392.459200
  10469  10472  10473     1   109.8000471 387.438400
  10469  10472  10474     1   109.8000471 387.438400
  10470  10469  10472     1   109.5600471 388.275200
  10470  10469  10497     1   109.7800468 425.094400
  10470  10469  10471     1   108.4600466 328.025600
  10471  10469  10472     1   109.5600471 388.275200
  10471  10469  10497     1   109.7800468 425.094400
  10472  10475  10476     1   109.5600471 388.275200
  10472  10475  10477     1   109.5600471 388.275200
  10473  10472  10475     1   109.8000471 387.438400
  10473  10472  10474     1   107.5800459 329.699200
  10474  10472  10475     1   109.8000471 387.438400
  10476  10475  10478     1   109.8800469 414.216000
  10476  10475  10477     1   108.4600466 328.025600
  10477  10475  10478     1   109.8800469 414.216000
  10478  10479  10480     1   109.8800469 414.216000
  10478  10479  10481     1   109.8800469 414.216000
  10478  10488  10489     1   109.8800469 414.216000
  10478  10488  10490     1   109.8800469 414.216000
  10479  10482  10483     1   109.8000471 387.438400
  10479  10482  10484     1   109.8000471 387.438400
  10480  10479  10482     1   109.5600471 388.275200
  10480  10479  10481     1   108.4600466 328.025600
  10481  10479  10482     1   109.5600471 388.275200
  10483  10482  10485     1   108.7700466 392.459200
  10483  10482  10484     1   107.5800459 329.699200
  10484  10482  10485     1   108.7700466 392.459200
  10488  10491  10492     1   109.8000471 387.438400
  10488  10491  10493     1   109.8000471 387.438400
  10489  10488  10491     1   109.5600471 388.275200
  10489  10488  10490     1   108.4600466 328.025600
  10490  10488  10491     1   109.5600471 388.275200
  10492  10491  10494     1   108.7700466 392.459200
  10492  10491  10493     1   107.5800459 329.699200
  10493  10491  10494     1   108.7700466 392.459200
  10498  10501  10502     1   109.8000471 387.438400
  10498  10501  10503     1   109.8000471 387.438400
  10499  10498  10501     1   109.5600471 388.275200
  10499  10498  10526     1   109.7800468 425.094400
  10499  10498  10500     1   108.4600466 328.025600
  10500  10498  10501     1   109.5600471 388.275200
  10500  10498  10526     1   109.7800468 425.094400
  10501  10504  10505     1   109.5600471 388.275200
  10501  10504  10506     1   109.5600471 388.275200
  10502  10501  10504     1   109.8000471 387.438400
  10502  10501  10503     1   107.5800459 329.699200
  10503  10501  10504     1   109.8000471 387.438400
  10505  10504  10507     1   109.8800469 414.216000
  10505  10504  10506     1   108.4600466 328.025600
  10506  10504  10507     1   109.8800469 414.216000
  10507  10508  10509     1   109.8800469 414.216000
  10507  10508  10510     1   109.8800469 414.216000
  10507  10517  10518     1   109.8800469 414.216000
  10507  10517  10519     1   109.8800469 414.216000
  10508  10511  10512     1   109.8000471 387.438400
  10508  10511  10513     1   109.8000471 387.438400
  10509  10508  10511     1   109.5600471 388.275200
  10509  10508  10510     1   108.4600466 328.025600
  10510  10508  10511     1   109.5600471 388.275200
  10512  10511  10514     1   108.7700466 392.459200
  10512  10511  10513     1   107.5800459 329.699200
  10513  10511  10514     1   108.7700466 392.459200
  10517  10520  10521     1   109.8000471 387.438400
  10517  10520  10522     1   109.8000471 387.438400
  10518  10517  10520     1   109.5600471 388.275200
  10518  10517  10519     1   108.4600466 328.025600
  10519  10517  10520     1   109.5600471 388.275200
  10521  10520  10523     1   108.7700466 392.459200
  10521  10520  10522     1   107.5800459 329.699200
  10522  10520  10523     1   108.7700466 392.459200
  10527  10530  10531     1   109.8000471 387.438400
  10527  10530  10532     1   109.8000471 387.438400
  10528  10527  10530     1   109.5600471 388.275200
  10528  10527  10555     1   109.7800468 425.094400
  10528  10527  10529     1   108.4600466 328.025600
  10529  10527  10530     1   109.5600471 388.275200
  10529  10527  10555     1   109.7800468 425.094400
  10530  10533  10534     1   109.5600471 388.275200
  10530  10533  10535     1   109.5600471 388.275200
  10531  10530  10533     1   109.8000471 387.438400
  10531  10530  10532     1   107.5800459 329.699200
  10532  10530  10533     1   109.8000471 387.438400
  10534  10533  10536     1   109.8800469 414.216000
  10534  10533  10535     1   108.4600466 328.025600
  10535  10533  10536     1   109.8800469 414.216000
  10536  10537  10538     1   109.8800469 414.216000
  10536  10537  10539     1   109.8800469 414.216000
  10536  10546  10547     1   109.8800469 414.216000
  10536  10546  10548     1   109.8800469 414.216000
  10537  10540  10541     1   109.8000471 387.438400
  10537  10540  10542     1   109.8000471 387.438400
  10538  10537  10540     1   109.5600471 388.275200
  10538  10537  10539     1   108.4600466 328.025600
  10539  10537  10540     1   109.5600471 388.275200
  10541  10540  10543     1   108.7700466 392.459200
  10541  10540  10542     1   107.5800459 329.699200
  10542  10540  10543     1   108.7700466 392.459200
  10546  10549  10550     1   109.8000471 387.438400
  10546  10549  10551     1   109.8000471 387.438400
  10547  10546  10549     1   109.5600471 388.275200
  10547  10546  10548     1   108.4600466 328.025600
  10548  10546  10549     1   109.5600471 388.275200
  10550  10549  10552     1   108.7700466 392.459200
  10550  10549  10551     1   107.5800459 329.699200
  10551  10549  10552     1   108.7700466 392.459200
  10556  10559  10560     1   109.8000471 387.438400
  10556  10559  10561     1   109.8000471 387.438400
  10557  10556  10559     1   109.5600471 388.275200
  10557  10556  10584     1   109.7800468 425.094400
  10557  10556  10558     1   108.4600466 328.025600
  10558  10556  10559     1   109.5600471 388.275200
  10558  10556  10584     1   109.7800468 425.094400
  10559  10562  10563     1   109.5600471 388.275200
  10559  10562  10564     1   109.5600471 388.275200
  10560  10559  10562     1   109.8000471 387.438400
  10560  10559  10561     1   107.5800459 329.699200
  10561  10559  10562     1   109.8000471 387.438400
  10563  10562  10565     1   109.8800469 414.216000
  10563  10562  10564     1   108.4600466 328.025600
  10564  10562  10565     1   109.8800469 414.216000
  10565  10566  10567     1   109.8800469 414.216000
  10565  10566  10568     1   109.8800469 414.216000
  10565  10575  10576     1   109.8800469 414.216000
  10565  10575  10577     1   109.8800469 414.216000
  10566  10569  10570     1   109.8000471 387.438400
  10566  10569  10571     1   109.8000471 387.438400
  10567  10566  10569     1   109.5600471 388.275200
  10567  10566  10568     1   108.4600466 328.025600
  10568  10566  10569     1   109.5600471 388.275200
  10570  10569  10572     1   108.7700466 392.459200
  10570  10569  10571     1   107.5800459 329.699200
  10571  10569  10572     1   108.7700466 392.459200
  10575  10578  10579     1   109.8000471 387.438400
  10575  10578  10580     1   109.8000471 387.438400
  10576  10575  10578     1   109.5600471 388.275200
  10576  10575  10577     1   108.4600466 328.025600
  10577  10575  10578     1   109.5600471 388.275200
  10579  10578  10581     1   108.7700466 392.459200
  10579  10578  10580     1   107.5800459 329.699200
  10580  10578  10581     1   108.7700466 392.459200
  10585  10588  10589     1   109.8000471 387.438400
  10585  10588  10590     1   109.8000471 387.438400
  10586  10585  10588     1   109.5600471 388.275200
  10586  10585  10613     1   109.7800468 425.094400
  10586  10585  10587     1   108.4600466 328.025600
  10587  10585  10588     1   109.5600471 388.275200
  10587  10585  10613     1   109.7800468 425.094400
  10588  10591  10592     1   109.5600471 388.275200
  10588  10591  10593     1   109.5600471 388.275200
  10589  10588  10591     1   109.8000471 387.438400
  10589  10588  10590     1   107.5800459 329.699200
  10590  10588  10591     1   109.8000471 387.438400
  10592  10591  10594     1   109.8800469 414.216000
  10592  10591  10593     1   108.4600466 328.025600
  10593  10591  10594     1   109.8800469 414.216000
  10594  10595  10596     1   109.8800469 414.216000
  10594  10595  10597     1   109.8800469 414.216000
  10594  10604  10605     1   109.8800469 414.216000
  10594  10604  10606     1   109.8800469 414.216000
  10595  10598  10599     1   109.8000471 387.438400
  10595  10598  10600     1   109.8000471 387.438400
  10596  10595  10598     1   109.5600471 388.275200
  10596  10595  10597     1   108.4600466 328.025600
  10597  10595  10598     1   109.5600471 388.275200
  10599  10598  10601     1   108.7700466 392.459200
  10599  10598  10600     1   107.5800459 329.699200
  10600  10598  10601     1   108.7700466 392.459200
  10604  10607  10608     1   109.8000471 387.438400
  10604  10607  10609     1   109.8000471 387.438400
  10605  10604  10607     1   109.5600471 388.275200
  10605  10604  10606     1   108.4600466 328.025600
  10606  10604  10607     1   109.5600471 388.275200
  10608  10607  10610     1   108.7700466 392.459200
  10608  10607  10609     1   107.5800459 329.699200
  10609  10607  10610     1   108.7700466 392.459200
  10614  10617  10618     1   109.8000471 387.438400
  10614  10617  10619     1   109.8000471 387.438400
  10615  10614  10617     1   109.5600471 388.275200
  10615  10614  10642     1   109.7800468 425.094400
  10615  10614  10616     1   108.4600466 328.025600
  10616  10614  10617     1   109.5600471 388.275200
  10616  10614  10642     1   109.7800468 425.094400
  10617  10620  10621     1   109.5600471 388.275200
  10617  10620  10622     1   109.5600471 388.275200
  10618  10617  10620     1   109.8000471 387.438400
  10618  10617  10619     1   107.5800459 329.699200
  10619  10617  10620     1   109.8000471 387.438400
  10621  10620  10623     1   109.8800469 414.216000
  10621  10620  10622     1   108.4600466 328.025600
  10622  10620  10623     1   109.8800469 414.216000
  10623  10624  10625     1   109.8800469 414.216000
  10623  10624  10626     1   109.8800469 414.216000
  10623  10633  10634     1   109.8800469 414.216000
  10623  10633  10635     1   109.8800469 414.216000
  10624  10627  10628     1   109.8000471 387.438400
  10624  10627  10629     1   109.8000471 387.438400
  10625  10624  10627     1   109.5600471 388.275200
  10625  10624  10626     1   108.4600466 328.025600
  10626  10624  10627     1   109.5600471 388.275200
  10628  10627  10630     1   108.7700466 392.459200
  10628  10627  10629     1   107.5800459 329.699200
  10629  10627  10630     1   108.7700466 392.459200
  10633  10636  10637     1   109.8000471 387.438400
  10633  10636  10638     1   109.8000471 387.438400
  10634  10633  10636     1   109.5600471 388.275200
  10634  10633  10635     1   108.4600466 328.025600
  10635  10633  10636     1   109.5600471 388.275200
  10637  10636  10639     1   108.7700466 392.459200
  10637  10636  10638     1   107.5800459 329.699200
  10638  10636  10639     1   108.7700466 392.459200
  10643  10646  10647     1   109.8000471 387.438400
  10643  10646  10648     1   109.8000471 387.438400
  10644  10643  10646     1   109.5600471 388.275200
  10644  10643  10671     1   109.7800468 425.094400
  10644  10643  10645     1   108.4600466 328.025600
  10645  10643  10646     1   109.5600471 388.275200
  10645  10643  10671     1   109.7800468 425.094400
  10646  10649  10650     1   109.5600471 388.275200
  10646  10649  10651     1   109.5600471 388.275200
  10647  10646  10649     1   109.8000471 387.438400
  10647  10646  10648     1   107.5800459 329.699200
  10648  10646  10649     1   109.8000471 387.438400
  10650  10649  10652     1   109.8800469 414.216000
  10650  10649  10651     1   108.4600466 328.025600
  10651  10649  10652     1   109.8800469 414.216000
  10652  10653  10654     1   109.8800469 414.216000
  10652  10653  10655     1   109.8800469 414.216000
  10652  10662  10663     1   109.8800469 414.216000
  10652  10662  10664     1   109.8800469 414.216000
  10653  10656  10657     1   109.8000471 387.438400
  10653  10656  10658     1   109.8000471 387.438400
  10654  10653  10656     1   109.5600471 388.275200
  10654  10653  10655     1   108.4600466 328.025600
  10655  10653  10656     1   109.5600471 388.275200
  10657  10656  10659     1   108.7700466 392.459200
  10657  10656  10658     1   107.5800459 329.699200
  10658  10656  10659     1   108.7700466 392.459200
  10662  10665  10666     1   109.8000471 387.438400
  10662  10665  10667     1   109.8000471 387.438400
  10663  10662  10665     1   109.5600471 388.275200
  10663  10662  10664     1   108.4600466 328.025600
  10664  10662  10665     1   109.5600471 388.275200
  10666  10665  10668     1   108.7700466 392.459200
  10666  10665  10667     1   107.5800459 329.699200
  10667  10665  10668     1   108.7700466 392.459200
  10672  10675  10676     1   109.8000471 387.438400
  10672  10675  10677     1   109.8000471 387.438400
  10673  10672  10675     1   109.5600471 388.275200
  10673  10672  10700     1   109.7800468 425.094400
  10673  10672  10674     1   108.4600466 328.025600
  10674  10672  10675     1   109.5600471 388.275200
  10674  10672  10700     1   109.7800468 425.094400
  10675  10678  10679     1   109.5600471 388.275200
  10675  10678  10680     1   109.5600471 388.275200
  10676  10675  10678     1   109.8000471 387.438400
  10676  10675  10677     1   107.5800459 329.699200
  10677  10675  10678     1   109.8000471 387.438400
  10679  10678  10681     1   109.8800469 414.216000
  10679  10678  10680     1   108.4600466 328.025600
  10680  10678  10681     1   109.8800469 414.216000
  10681  10682  10683     1   109.8800469 414.216000
  10681  10682  10684     1   109.8800469 414.216000
  10681  10691  10692     1   109.8800469 414.216000
  10681  10691  10693     1   109.8800469 414.216000
  10682  10685  10686     1   109.8000471 387.438400
  10682  10685  10687     1   109.8000471 387.438400
  10683  10682  10685     1   109.5600471 388.275200
  10683  10682  10684     1   108.4600466 328.025600
  10684  10682  10685     1   109.5600471 388.275200
  10686  10685  10688     1   108.7700466 392.459200
  10686  10685  10687     1   107.5800459 329.699200
  10687  10685  10688     1   108.7700466 392.459200
  10691  10694  10695     1   109.8000471 387.438400
  10691  10694  10696     1   109.8000471 387.438400
  10692  10691  10694     1   109.5600471 388.275200
  10692  10691  10693     1   108.4600466 328.025600
  10693  10691  10694     1   109.5600471 388.275200
  10695  10694  10697     1   108.7700466 392.459200
  10695  10694  10696     1   107.5800459 329.699200
  10696  10694  10697     1   108.7700466 392.459200
  10701  10704  10705     1   109.8000471 387.438400
  10701  10704  10706     1   109.8000471 387.438400
  10702  10701  10704     1   109.5600471 388.275200
  10702  10701  10729     1   109.7800468 425.094400
  10702  10701  10703     1   108.4600466 328.025600
  10703  10701  10704     1   109.5600471 388.275200
  10703  10701  10729     1   109.7800468 425.094400
  10704  10707  10708     1   109.5600471 388.275200
  10704  10707  10709     1   109.5600471 388.275200
  10705  10704  10707     1   109.8000471 387.438400
  10705  10704  10706     1   107.5800459 329.699200
  10706  10704  10707     1   109.8000471 387.438400
  10708  10707  10710     1   109.8800469 414.216000
  10708  10707  10709     1   108.4600466 328.025600
  10709  10707  10710     1   109.8800469 414.216000
  10710  10711  10712     1   109.8800469 414.216000
  10710  10711  10713     1   109.8800469 414.216000
  10710  10720  10721     1   109.8800469 414.216000
  10710  10720  10722     1   109.8800469 414.216000
  10711  10714  10715     1   109.8000471 387.438400
  10711  10714  10716     1   109.8000471 387.438400
  10712  10711  10714     1   109.5600471 388.275200
  10712  10711  10713     1   108.4600466 328.025600
  10713  10711  10714     1   109.5600471 388.275200
  10715  10714  10717     1   108.7700466 392.459200
  10715  10714  10716     1   107.5800459 329.699200
  10716  10714  10717     1   108.7700466 392.459200
  10720  10723  10724     1   109.8000471 387.438400
  10720  10723  10725     1   109.8000471 387.438400
  10721  10720  10723     1   109.5600471 388.275200
  10721  10720  10722     1   108.4600466 328.025600
  10722  10720  10723     1   109.5600471 388.275200
  10724  10723  10726     1   108.7700466 392.459200
  10724  10723  10725     1   107.5800459 329.699200
  10725  10723  10726     1   108.7700466 392.459200
  10730  10733  10734     1   109.8000471 387.438400
  10730  10733  10735     1   109.8000471 387.438400
  10731  10730  10733     1   109.5600471 388.275200
  10731  10730  10758     1   109.7800468 425.094400
  10731  10730  10732     1   108.4600466 328.025600
  10732  10730  10733     1   109.5600471 388.275200
  10732  10730  10758     1   109.7800468 425.094400
  10733  10736  10737     1   109.5600471 388.275200
  10733  10736  10738     1   109.5600471 388.275200
  10734  10733  10736     1   109.8000471 387.438400
  10734  10733  10735     1   107.5800459 329.699200
  10735  10733  10736     1   109.8000471 387.438400
  10737  10736  10739     1   109.8800469 414.216000
  10737  10736  10738     1   108.4600466 328.025600
  10738  10736  10739     1   109.8800469 414.216000
  10739  10740  10741     1   109.8800469 414.216000
  10739  10740  10742     1   109.8800469 414.216000
  10739  10749  10750     1   109.8800469 414.216000
  10739  10749  10751     1   109.8800469 414.216000
  10740  10743  10744     1   109.8000471 387.438400
  10740  10743  10745     1   109.8000471 387.438400
  10741  10740  10743     1   109.5600471 388.275200
  10741  10740  10742     1   108.4600466 328.025600
  10742  10740  10743     1   109.5600471 388.275200
  10744  10743  10746     1   108.7700466 392.459200
  10744  10743  10745     1   107.5800459 329.699200
  10745  10743  10746     1   108.7700466 392.459200
  10749  10752  10753     1   109.8000471 387.438400
  10749  10752  10754     1   109.8000471 387.438400
  10750  10749  10752     1   109.5600471 388.275200
  10750  10749  10751     1   108.4600466 328.025600
  10751  10749  10752     1   109.5600471 388.275200
  10753  10752  10755     1   108.7700466 392.459200
  10753  10752  10754     1   107.5800459 329.699200
  10754  10752  10755     1   108.7700466 392.459200
  10759  10762  10763     1   109.8000471 387.438400
  10759  10762  10764     1   109.8000471 387.438400
  10760  10759  10762     1   109.5600471 388.275200
  10760  10759  10787     1   109.7800468 425.094400
  10760  10759  10761     1   108.4600466 328.025600
  10761  10759  10762     1   109.5600471 388.275200
  10761  10759  10787     1   109.7800468 425.094400
  10762  10765  10766     1   109.5600471 388.275200
  10762  10765  10767     1   109.5600471 388.275200
  10763  10762  10765     1   109.8000471 387.438400
  10763  10762  10764     1   107.5800459 329.699200
  10764  10762  10765     1   109.8000471 387.438400
  10766  10765  10768     1   109.8800469 414.216000
  10766  10765  10767     1   108.4600466 328.025600
  10767  10765  10768     1   109.8800469 414.216000
  10768  10769  10770     1   109.8800469 414.216000
  10768  10769  10771     1   109.8800469 414.216000
  10768  10778  10779     1   109.8800469 414.216000
  10768  10778  10780     1   109.8800469 414.216000
  10769  10772  10773     1   109.8000471 387.438400
  10769  10772  10774     1   109.8000471 387.438400
  10770  10769  10772     1   109.5600471 388.275200
  10770  10769  10771     1   108.4600466 328.025600
  10771  10769  10772     1   109.5600471 388.275200
  10773  10772  10775     1   108.7700466 392.459200
  10773  10772  10774     1   107.5800459 329.699200
  10774  10772  10775     1   108.7700466 392.459200
  10778  10781  10782     1   109.8000471 387.438400
  10778  10781  10783     1   109.8000471 387.438400
  10779  10778  10781     1   109.5600471 388.275200
  10779  10778  10780     1   108.4600466 328.025600
  10780  10778  10781     1   109.5600471 388.275200
  10782  10781  10784     1   108.7700466 392.459200
  10782  10781  10783     1   107.5800459 329.699200
  10783  10781  10784     1   108.7700466 392.459200
  10788  10791  10792     1   109.8000471 387.438400
  10788  10791  10793     1   109.8000471 387.438400
  10789  10788  10791     1   109.5600471 388.275200
  10789  10788  10816     1   109.7800468 425.094400
  10789  10788  10790     1   108.4600466 328.025600
  10790  10788  10791     1   109.5600471 388.275200
  10790  10788  10816     1   109.7800468 425.094400
  10791  10794  10795     1   109.5600471 388.275200
  10791  10794  10796     1   109.5600471 388.275200
  10792  10791  10794     1   109.8000471 387.438400
  10792  10791  10793     1   107.5800459 329.699200
  10793  10791  10794     1   109.8000471 387.438400
  10795  10794  10797     1   109.8800469 414.216000
  10795  10794  10796     1   108.4600466 328.025600
  10796  10794  10797     1   109.8800469 414.216000
  10797  10798  10799     1   109.8800469 414.216000
  10797  10798  10800     1   109.8800469 414.216000
  10797  10807  10808     1   109.8800469 414.216000
  10797  10807  10809     1   109.8800469 414.216000
  10798  10801  10802     1   109.8000471 387.438400
  10798  10801  10803     1   109.8000471 387.438400
  10799  10798  10801     1   109.5600471 388.275200
  10799  10798  10800     1   108.4600466 328.025600
  10800  10798  10801     1   109.5600471 388.275200
  10802  10801  10804     1   108.7700466 392.459200
  10802  10801  10803     1   107.5800459 329.699200
  10803  10801  10804     1   108.7700466 392.459200
  10807  10810  10811     1   109.8000471 387.438400
  10807  10810  10812     1   109.8000471 387.438400
  10808  10807  10810     1   109.5600471 388.275200
  10808  10807  10809     1   108.4600466 328.025600
  10809  10807  10810     1   109.5600471 388.275200
  10811  10810  10813     1   108.7700466 392.459200
  10811  10810  10812     1   107.5800459 329.699200
  10812  10810  10813     1   108.7700466 392.459200
  10817  10820  10821     1   109.8000471 387.438400
  10817  10820  10822     1   109.8000471 387.438400
  10818  10817  10820     1   109.5600471 388.275200
  10818  10817  10845     1   109.7800468 425.094400
  10818  10817  10819     1   108.4600466 328.025600
  10819  10817  10820     1   109.5600471 388.275200
  10819  10817  10845     1   109.7800468 425.094400
  10820  10823  10824     1   109.5600471 388.275200
  10820  10823  10825     1   109.5600471 388.275200
  10821  10820  10823     1   109.8000471 387.438400
  10821  10820  10822     1   107.5800459 329.699200
  10822  10820  10823     1   109.8000471 387.438400
  10824  10823  10826     1   109.8800469 414.216000
  10824  10823  10825     1   108.4600466 328.025600
  10825  10823  10826     1   109.8800469 414.216000
  10826  10827  10828     1   109.8800469 414.216000
  10826  10827  10829     1   109.8800469 414.216000
  10826  10836  10837     1   109.8800469 414.216000
  10826  10836  10838     1   109.8800469 414.216000
  10827  10830  10831     1   109.8000471 387.438400
  10827  10830  10832     1   109.8000471 387.438400
  10828  10827  10830     1   109.5600471 388.275200
  10828  10827  10829     1   108.4600466 328.025600
  10829  10827  10830     1   109.5600471 388.275200
  10831  10830  10833     1   108.7700466 392.459200
  10831  10830  10832     1   107.5800459 329.699200
  10832  10830  10833     1   108.7700466 392.459200
  10836  10839  10840     1   109.8000471 387.438400
  10836  10839  10841     1   109.8000471 387.438400
  10837  10836  10839     1   109.5600471 388.275200
  10837  10836  10838     1   108.4600466 328.025600
  10838  10836  10839     1   109.5600471 388.275200
  10840  10839  10842     1   108.7700466 392.459200
  10840  10839  10841     1   107.5800459 329.699200
  10841  10839  10842     1   108.7700466 392.459200
  10846  10849  10850     1   109.8000471 387.438400
  10846  10849  10851     1   109.8000471 387.438400
  10847  10846  10849     1   109.5600471 388.275200
  10847  10846  10874     1   109.7800468 425.094400
  10847  10846  10848     1   108.4600466 328.025600
  10848  10846  10849     1   109.5600471 388.275200
  10848  10846  10874     1   109.7800468 425.094400
  10849  10852  10853     1   109.5600471 388.275200
  10849  10852  10854     1   109.5600471 388.275200
  10850  10849  10852     1   109.8000471 387.438400
  10850  10849  10851     1   107.5800459 329.699200
  10851  10849  10852     1   109.8000471 387.438400
  10853  10852  10855     1   109.8800469 414.216000
  10853  10852  10854     1   108.4600466 328.025600
  10854  10852  10855     1   109.8800469 414.216000
  10855  10856  10857     1   109.8800469 414.216000
  10855  10856  10858     1   109.8800469 414.216000
  10855  10865  10866     1   109.8800469 414.216000
  10855  10865  10867     1   109.8800469 414.216000
  10856  10859  10860     1   109.8000471 387.438400
  10856  10859  10861     1   109.8000471 387.438400
  10857  10856  10859     1   109.5600471 388.275200
  10857  10856  10858     1   108.4600466 328.025600
  10858  10856  10859     1   109.5600471 388.275200
  10860  10859  10862     1   108.7700466 392.459200
  10860  10859  10861     1   107.5800459 329.699200
  10861  10859  10862     1   108.7700466 392.459200
  10865  10868  10869     1   109.8000471 387.438400
  10865  10868  10870     1   109.8000471 387.438400
  10866  10865  10868     1   109.5600471 388.275200
  10866  10865  10867     1   108.4600466 328.025600
  10867  10865  10868     1   109.5600471 388.275200
  10869  10868  10871     1   108.7700466 392.459200
  10869  10868  10870     1   107.5800459 329.699200
  10870  10868  10871     1   108.7700466 392.459200
  10875  10878  10879     1   109.8000471 387.438400
  10875  10878  10880     1   109.8000471 387.438400
  10876  10875  10878     1   109.5600471 388.275200
  10876  10875  10903     1   109.7800468 425.094400
  10876  10875  10877     1   108.4600466 328.025600
  10877  10875  10878     1   109.5600471 388.275200
  10877  10875  10903     1   109.7800468 425.094400
  10878  10881  10882     1   109.5600471 388.275200
  10878  10881  10883     1   109.5600471 388.275200
  10879  10878  10881     1   109.8000471 387.438400
  10879  10878  10880     1   107.5800459 329.699200
  10880  10878  10881     1   109.8000471 387.438400
  10882  10881  10884     1   109.8800469 414.216000
  10882  10881  10883     1   108.4600466 328.025600
  10883  10881  10884     1   109.8800469 414.216000
  10884  10885  10886     1   109.8800469 414.216000
  10884  10885  10887     1   109.8800469 414.216000
  10884  10894  10895     1   109.8800469 414.216000
  10884  10894  10896     1   109.8800469 414.216000
  10885  10888  10889     1   109.8000471 387.438400
  10885  10888  10890     1   109.8000471 387.438400
  10886  10885  10888     1   109.5600471 388.275200
  10886  10885  10887     1   108.4600466 328.025600
  10887  10885  10888     1   109.5600471 388.275200
  10889  10888  10891     1   108.7700466 392.459200
  10889  10888  10890     1   107.5800459 329.699200
  10890  10888  10891     1   108.7700466 392.459200
  10894  10897  10898     1   109.8000471 387.438400
  10894  10897  10899     1   109.8000471 387.438400
  10895  10894  10897     1   109.5600471 388.275200
  10895  10894  10896     1   108.4600466 328.025600
  10896  10894  10897     1   109.5600471 388.275200
  10898  10897  10900     1   108.7700466 392.459200
  10898  10897  10899     1   107.5800459 329.699200
  10899  10897  10900     1   108.7700466 392.459200
  10904  10907  10908     1   109.8000471 387.438400
  10904  10907  10909     1   109.8000471 387.438400
  10905  10904  10907     1   109.5600471 388.275200
  10905  10904  10932     1   109.7800468 425.094400
  10905  10904  10906     1   108.4600466 328.025600
  10906  10904  10907     1   109.5600471 388.275200
  10906  10904  10932     1   109.7800468 425.094400
  10907  10910  10911     1   109.5600471 388.275200
  10907  10910  10912     1   109.5600471 388.275200
  10908  10907  10910     1   109.8000471 387.438400
  10908  10907  10909     1   107.5800459 329.699200
  10909  10907  10910     1   109.8000471 387.438400
  10911  10910  10913     1   109.8800469 414.216000
  10911  10910  10912     1   108.4600466 328.025600
  10912  10910  10913     1   109.8800469 414.216000
  10913  10914  10915     1   109.8800469 414.216000
  10913  10914  10916     1   109.8800469 414.216000
  10913  10923  10924     1   109.8800469 414.216000
  10913  10923  10925     1   109.8800469 414.216000
  10914  10917  10918     1   109.8000471 387.438400
  10914  10917  10919     1   109.8000471 387.438400
  10915  10914  10917     1   109.5600471 388.275200
  10915  10914  10916     1   108.4600466 328.025600
  10916  10914  10917     1   109.5600471 388.275200
  10918  10917  10920     1   108.7700466 392.459200
  10918  10917  10919     1   107.5800459 329.699200
  10919  10917  10920     1   108.7700466 392.459200
  10923  10926  10927     1   109.8000471 387.438400
  10923  10926  10928     1   109.8000471 387.438400
  10924  10923  10926     1   109.5600471 388.275200
  10924  10923  10925     1   108.4600466 328.025600
  10925  10923  10926     1   109.5600471 388.275200
  10927  10926  10929     1   108.7700466 392.459200
  10927  10926  10928     1   107.5800459 329.699200
  10928  10926  10929     1   108.7700466 392.459200
  10933  10936  10937     1   109.8000471 387.438400
  10933  10936  10938     1   109.8000471 387.438400
  10934  10933  10936     1   109.5600471 388.275200
  10934  10933  10961     1   109.7800468 425.094400
  10934  10933  10935     1   108.4600466 328.025600
  10935  10933  10936     1   109.5600471 388.275200
  10935  10933  10961     1   109.7800468 425.094400
  10936  10939  10940     1   109.5600471 388.275200
  10936  10939  10941     1   109.5600471 388.275200
  10937  10936  10939     1   109.8000471 387.438400
  10937  10936  10938     1   107.5800459 329.699200
  10938  10936  10939     1   109.8000471 387.438400
  10940  10939  10942     1   109.8800469 414.216000
  10940  10939  10941     1   108.4600466 328.025600
  10941  10939  10942     1   109.8800469 414.216000
  10942  10943  10944     1   109.8800469 414.216000
  10942  10943  10945     1   109.8800469 414.216000
  10942  10952  10953     1   109.8800469 414.216000
  10942  10952  10954     1   109.8800469 414.216000
  10943  10946  10947     1   109.8000471 387.438400
  10943  10946  10948     1   109.8000471 387.438400
  10944  10943  10946     1   109.5600471 388.275200
  10944  10943  10945     1   108.4600466 328.025600
  10945  10943  10946     1   109.5600471 388.275200
  10947  10946  10949     1   108.7700466 392.459200
  10947  10946  10948     1   107.5800459 329.699200
  10948  10946  10949     1   108.7700466 392.459200
  10952  10955  10956     1   109.8000471 387.438400
  10952  10955  10957     1   109.8000471 387.438400
  10953  10952  10955     1   109.5600471 388.275200
  10953  10952  10954     1   108.4600466 328.025600
  10954  10952  10955     1   109.5600471 388.275200
  10956  10955  10958     1   108.7700466 392.459200
  10956  10955  10957     1   107.5800459 329.699200
  10957  10955  10958     1   108.7700466 392.459200
  10962  10965  10966     1   109.8000471 387.438400
  10962  10965  10967     1   109.8000471 387.438400
  10963  10962  10965     1   109.5600471 388.275200
  10963  10962  10990     1   109.7800468 425.094400
  10963  10962  10964     1   108.4600466 328.025600
  10964  10962  10965     1   109.5600471 388.275200
  10964  10962  10990     1   109.7800468 425.094400
  10965  10968  10969     1   109.5600471 388.275200
  10965  10968  10970     1   109.5600471 388.275200
  10966  10965  10968     1   109.8000471 387.438400
  10966  10965  10967     1   107.5800459 329.699200
  10967  10965  10968     1   109.8000471 387.438400
  10969  10968  10971     1   109.8800469 414.216000
  10969  10968  10970     1   108.4600466 328.025600
  10970  10968  10971     1   109.8800469 414.216000
  10971  10972  10973     1   109.8800469 414.216000
  10971  10972  10974     1   109.8800469 414.216000
  10971  10981  10982     1   109.8800469 414.216000
  10971  10981  10983     1   109.8800469 414.216000
  10972  10975  10976     1   109.8000471 387.438400
  10972  10975  10977     1   109.8000471 387.438400
  10973  10972  10975     1   109.5600471 388.275200
  10973  10972  10974     1   108.4600466 328.025600
  10974  10972  10975     1   109.5600471 388.275200
  10976  10975  10978     1   108.7700466 392.459200
  10976  10975  10977     1   107.5800459 329.699200
  10977  10975  10978     1   108.7700466 392.459200
  10981  10984  10985     1   109.8000471 387.438400
  10981  10984  10986     1   109.8000471 387.438400
  10982  10981  10984     1   109.5600471 388.275200
  10982  10981  10983     1   108.4600466 328.025600
  10983  10981  10984     1   109.5600471 388.275200
  10985  10984  10987     1   108.7700466 392.459200
  10985  10984  10986     1   107.5800459 329.699200
  10986  10984  10987     1   108.7700466 392.459200
  10991  10994  10995     1   109.8000471 387.438400
  10991  10994  10996     1   109.8000471 387.438400
  10992  10991  10994     1   109.5600471 388.275200
  10992  10991  11019     1   109.7800468 425.094400
  10992  10991  10993     1   108.4600466 328.025600
  10993  10991  10994     1   109.5600471 388.275200
  10993  10991  11019     1   109.7800468 425.094400
  10994  10997  10998     1   109.5600471 388.275200
  10994  10997  10999     1   109.5600471 388.275200
  10995  10994  10997     1   109.8000471 387.438400
  10995  10994  10996     1   107.5800459 329.699200
  10996  10994  10997     1   109.8000471 387.438400
  10998  10997  11000     1   109.8800469 414.216000
  10998  10997  10999     1   108.4600466 328.025600
  10999  10997  11000     1   109.8800469 414.216000
  11000  11001  11002     1   109.8800469 414.216000
  11000  11001  11003     1   109.8800469 414.216000
  11000  11010  11011     1   109.8800469 414.216000
  11000  11010  11012     1   109.8800469 414.216000
  11001  11004  11005     1   109.8000471 387.438400
  11001  11004  11006     1   109.8000471 387.438400
  11002  11001  11004     1   109.5600471 388.275200
  11002  11001  11003     1   108.4600466 328.025600
  11003  11001  11004     1   109.5600471 388.275200
  11005  11004  11007     1   108.7700466 392.459200
  11005  11004  11006     1   107.5800459 329.699200
  11006  11004  11007     1   108.7700466 392.459200
  11010  11013  11014     1   109.8000471 387.438400
  11010  11013  11015     1   109.8000471 387.438400
  11011  11010  11013     1   109.5600471 388.275200
  11011  11010  11012     1   108.4600466 328.025600
  11012  11010  11013     1   109.5600471 388.275200
  11014  11013  11016     1   108.7700466 392.459200
  11014  11013  11015     1   107.5800459 329.699200
  11015  11013  11016     1   108.7700466 392.459200
  11020  11023  11024     1   109.8000471 387.438400
  11020  11023  11025     1   109.8000471 387.438400
  11021  11020  11023     1   109.5600471 388.275200
  11021  11020  11048     1   109.7800468 425.094400
  11021  11020  11022     1   108.4600466 328.025600
  11022  11020  11023     1   109.5600471 388.275200
  11022  11020  11048     1   109.7800468 425.094400
  11023  11026  11027     1   109.5600471 388.275200
  11023  11026  11028     1   109.5600471 388.275200
  11024  11023  11026     1   109.8000471 387.438400
  11024  11023  11025     1   107.5800459 329.699200
  11025  11023  11026     1   109.8000471 387.438400
  11027  11026  11029     1   109.8800469 414.216000
  11027  11026  11028     1   108.4600466 328.025600
  11028  11026  11029     1   109.8800469 414.216000
  11029  11030  11031     1   109.8800469 414.216000
  11029  11030  11032     1   109.8800469 414.216000
  11029  11039  11040     1   109.8800469 414.216000
  11029  11039  11041     1   109.8800469 414.216000
  11030  11033  11034     1   109.8000471 387.438400
  11030  11033  11035     1   109.8000471 387.438400
  11031  11030  11033     1   109.5600471 388.275200
  11031  11030  11032     1   108.4600466 328.025600
  11032  11030  11033     1   109.5600471 388.275200
  11034  11033  11036     1   108.7700466 392.459200
  11034  11033  11035     1   107.5800459 329.699200
  11035  11033  11036     1   108.7700466 392.459200
  11039  11042  11043     1   109.8000471 387.438400
  11039  11042  11044     1   109.8000471 387.438400
  11040  11039  11042     1   109.5600471 388.275200
  11040  11039  11041     1   108.4600466 328.025600
  11041  11039  11042     1   109.5600471 388.275200
  11043  11042  11045     1   108.7700466 392.459200
  11043  11042  11044     1   107.5800459 329.699200
  11044  11042  11045     1   108.7700466 392.459200
  11049  11052  11053     1   109.8000471 387.438400
  11049  11052  11054     1   109.8000471 387.438400
  11050  11049  11052     1   109.5600471 388.275200
  11050  11049  11077     1   109.7800468 425.094400
  11050  11049  11051     1   108.4600466 328.025600
  11051  11049  11052     1   109.5600471 388.275200
  11051  11049  11077     1   109.7800468 425.094400
  11052  11055  11056     1   109.5600471 388.275200
  11052  11055  11057     1   109.5600471 388.275200
  11053  11052  11055     1   109.8000471 387.438400
  11053  11052  11054     1   107.5800459 329.699200
  11054  11052  11055     1   109.8000471 387.438400
  11056  11055  11058     1   109.8800469 414.216000
  11056  11055  11057     1   108.4600466 328.025600
  11057  11055  11058     1   109.8800469 414.216000
  11058  11059  11060     1   109.8800469 414.216000
  11058  11059  11061     1   109.8800469 414.216000
  11058  11068  11069     1   109.8800469 414.216000
  11058  11068  11070     1   109.8800469 414.216000
  11059  11062  11063     1   109.8000471 387.438400
  11059  11062  11064     1   109.8000471 387.438400
  11060  11059  11062     1   109.5600471 388.275200
  11060  11059  11061     1   108.4600466 328.025600
  11061  11059  11062     1   109.5600471 388.275200
  11063  11062  11065     1   108.7700466 392.459200
  11063  11062  11064     1   107.5800459 329.699200
  11064  11062  11065     1   108.7700466 392.459200
  11068  11071  11072     1   109.8000471 387.438400
  11068  11071  11073     1   109.8000471 387.438400
  11069  11068  11071     1   109.5600471 388.275200
  11069  11068  11070     1   108.4600466 328.025600
  11070  11068  11071     1   109.5600471 388.275200
  11072  11071  11074     1   108.7700466 392.459200
  11072  11071  11073     1   107.5800459 329.699200
  11073  11071  11074     1   108.7700466 392.459200

[ dihedrals ]
;    ai     aj     ak     al funct         c0         c1         c2         c3         c4         c5
      1      2     14     26     1  0.0000000  0.6508444  3
      1      5     17     20     1  0.0000000  0.6508444  3
      1      8     11     23     1  0.0000000  0.6508444  3
      2      1      5     17     1  180.0000771  2.0083200  2
      2      1      5     17     1  0.0000000  1.2552000  3
      2      1      8     11     1  180.0000771  2.0083200  2
      2      1      8     11     1  0.0000000  1.2552000  3
      2     14     26    115     1  0.0000000  0.6508444  3
      5      1      2     14     1  180.0000771  2.0083200  2
      5      1      2     14     1  0.0000000  1.2552000  3
      5      1      8     11     1  180.0000771  2.0083200  2
      5      1      8     11     1  0.0000000  1.2552000  3
      5     17     20     57     1  0.0000000  0.6508444  3
      8      1      2     14     1  180.0000771  2.0083200  2
      8      1      2     14     1  0.0000000  1.2552000  3
      8      1      5     17     1  180.0000771  2.0083200  2
      8      1      5     17     1  0.0000000  1.2552000  3
      8     11     23     86     1  0.0000000  0.6508444  3
     11     23     86     77     1  180.0000771  0.4184000  2
     11     23     86     77     1  0.0000000  1.6024720  3
     14     26    115    106     1  180.0000771  0.4184000  2
     14     26    115    106     1  0.0000000  1.6024720  3
     17     20     57     48     1  180.0000771  0.4184000  2
     17     20     57     48     1  0.0000000  1.6024720  3
     20     57     48     39     1  180.0000771  0.4184000  2
     20     57     48     39     1  0.0000000  1.6024720  3
     23     86     77     68     1  180.0000771  0.4184000  2
     23     86     77     68     1  0.0000000  1.6024720  3
     26    115    106     97     1  180.0000771  0.4184000  2
     26    115    106     97     1  0.0000000  1.6024720  3
     29     30     42     54     1  0.0000000  0.6508444  3
     29     33     45     51     1  0.0000000  0.6508444  3
     29     36     39     48     1  0.0000000  0.6508444  3
     30     29     33     45     1  180.0000771  2.0083200  2
     30     29     33     45     1  0.0000000  1.2552000  3
     30     29     36     39     1  180.0000771  2.0083200  2
     30     29     36     39     1  0.0000000  1.2552000  3
     30     42     54    173     1  0.0000000  0.6508444  3
     33     29     30     42     1  180.0000771  2.0083200  2
     33     29     30     42     1  0.0000000  1.2552000  3
     33     29     36     39     1  180.0000771  2.0083200  2
     33     29     36     39     1  0.0000000  1.2552000  3
     33     45     51    144     1  0.0000000  0.6508444  3
     36     29     30     42     1  180.0000771  2.0083200  2
     36     29     30     42     1  0.0000000  1.2552000  3
     36     29     33     45     1  180.0000771  2.0083200  2
     36     29     33     45     1  0.0000000  1.2552000  3
     36     39     48     57     1  0.0000000  0.6508444  3
     42     54    173    164     1  180.0000771  0.4184000  2
     42     54    173    164     1  0.0000000  1.6024720  3
     45     51    144    135     1  180.0000771  0.4184000  2
     45     51    144    135     1  0.0000000  1.6024720  3
     51    144    135    126     1  180.0000771  0.4184000  2
     51    144    135    126     1  0.0000000  1.6024720  3
     54    173    164    155     1  180.0000771  0.4184000  2
     54    173    164    155     1  0.0000000  1.6024720  3
     58     59     71     83     1  0.0000000  0.6508444  3
     58     62     74     80     1  0.0000000  0.6508444  3
     58     65     68     77     1  0.0000000  0.6508444  3
     59     58     62     74     1  180.0000771  2.0083200  2
     59     58     62     74     1  0.0000000  1.2552000  3
     59     58     65     68     1  180.0000771  2.0083200  2
     59     58     65     68     1  0.0000000  1.2552000  3
     59     71     83    231     1  0.0000000  0.6508444  3
     62     58     59     71     1  180.0000771  2.0083200  2
     62     58     59     71     1  0.0000000  1.2552000  3
     62     58     65     68     1  180.0000771  2.0083200  2
     62     58     65     68     1  0.0000000  1.2552000  3
     62     74     80    202     1  0.0000000  0.6508444  3
     65     58     59     71     1  180.0000771  2.0083200  2
     65     58     59     71     1  0.0000000  1.2552000  3
     65     58     62     74     1  180.0000771  2.0083200  2
     65     58     62     74     1  0.0000000  1.2552000  3
     65     68     77     86     1  0.0000000  0.6508444  3
     71     83    231    222     1  180.0000771  0.4184000  2
     71     83    231    222     1  0.0000000  1.6024720  3
     74     80    202    193     1  180.0000771  0.4184000  2
     74     80    202    193     1  0.0000000  1.6024720  3
     80    202    193    184     1  180.0000771  0.4184000  2
     80    202    193    184     1  0.0000000  1.6024720  3
     83    231    222    213     1  180.0000771  0.4184000  2
     83    231    222    213     1  0.0000000  1.6024720  3
     87     88    100    112     1  0.0000000  0.6508444  3
     87     91    103    109     1  0.0000000  0.6508444  3
     87     94     97    106     1  0.0000000  0.6508444  3
     88     87     91    103     1  180.0000771  2.0083200  2
     88     87     91    103     1  0.0000000  1.2552000  3
     88     87     94     97     1  180.0000771  2.0083200  2
     88     87     94     97     1  0.0000000  1.2552000  3
     88    100    112    289     1  0.0000000  0.6508444  3
     91     87     88    100     1  180.0000771  2.0083200  2
     91     87     88    100     1  0.0000000  1.2552000  3
     91     87     94     97     1  180.0000771  2.0083200  2
     91     87     94     97     1  0.0000000  1.2552000  3
     91    103    109    260     1  0.0000000  0.6508444  3
     94     87     88    100     1  180.0000771  2.0083200  2
     94     87     88    100     1  0.0000000  1.2552000  3
     94     87     91    103     1  180.0000771  2.0083200  2
     94     87     91    103     1  0.0000000  1.2552000  3
     94     97    106    115     1  0.0000000  0.6508444  3
    100    112    289    280     1  180.0000771  0.4184000  2
    100    112    289    280     1  0.0000000  1.6024720  3
    103    109    260    251     1  180.0000771  0.4184000  2
    103    109    260    251     1  0.0000000  1.6024720  3
    109    260    251    242     1  180.0000771  0.4184000  2
    109    260    251    242     1  0.0000000  1.6024720  3
    112    289    280    271     1  180.0000771  0.4184000  2
    112    289    280    271     1  0.0000000  1.6024720  3
    116    117    129    141     1  0.0000000  0.6508444  3
    116    120    132    138     1  0.0000000  0.6508444  3
    116    123    126    135     1  0.0000000  0.6508444  3
    117    116    120    132     1  180.0000771  2.0083200  2
    117    116    120    132     1  0.0000000  1.2552000  3
    117    116    123    126     1  180.0000771  2.0083200  2
    117    116    123    126     1  0.0000000  1.2552000  3
    117    129    141    347     1  0.0000000  0.6508444  3
    120    116    117    129     1  180.0000771  2.0083200  2
    120    116    117    129     1  0.0000000  1.2552000  3
    120    116    123    126     1  180.0000771  2.0083200  2
    120    116    123    126     1  0.0000000  1.2552000  3
    120    132    138    318     1  0.0000000  0.6508444  3
    123    116    117    129     1  180.0000771  2.0083200  2
    123    116    117    129     1  0.0000000  1.2552000  3
    123    116    120    132     1  180.0000771  2.0083200  2
    123    116    120    132     1  0.0000000  1.2552000  3
    123    126    135    144     1  0.0000000  0.6508444  3
    129    141    347    338     1  180.0000771  0.4184000  2
    129    141    347    338     1  0.0000000  1.6024720  3
    132    138    318    309     1  180.0000771  0.4184000  2
    132    138    318    309     1  0.0000000  1.6024720  3
    138    318    309    300     1  180.0000771  0.4184000  2
    138    318    309    300     1  0.0000000  1.6024720  3
    141    347    338    329     1  180.0000771  0.4184000  2
    141    347    338    329     1  0.0000000  1.6024720  3
    145    146    158    170     1  0.0000000  0.6508444  3
    145    149    161    167     1  0.0000000  0.6508444  3
    145    152    155    164     1  0.0000000  0.6508444  3
    146    145    149    161     1  180.0000771  2.0083200  2
    146    145    149    161     1  0.0000000  1.2552000  3
    146    145    152    155     1  180.0000771  2.0083200  2
    146    145    152    155     1  0.0000000  1.2552000  3
    146    158    170    405     1  0.0000000  0.6508444  3
    149    145    146    158     1  180.0000771  2.0083200  2
    149    145    146    158     1  0.0000000  1.2552000  3
    149    145    152    155     1  180.0000771  2.0083200  2
    149    145    152    155     1  0.0000000  1.2552000  3
    149    161    167    376     1  0.0000000  0.6508444  3
    152    145    146    158     1  180.0000771  2.0083200  2
    152    145    146    158     1  0.0000000  1.2552000  3
    152    145    149    161     1  180.0000771  2.0083200  2
    152    145    149    161     1  0.0000000  1.2552000  3
    152    155    164    173     1  0.0000000  0.6508444  3
    158    170    405    396     1  180.0000771  0.4184000  2
    158    170    405    396     1  0.0000000  1.6024720  3
    161    167    376    367     1  180.0000771  0.4184000  2
    161    167    376    367     1  0.0000000  1.6024720  3
    167    376    367    358     1  180.0000771  0.4184000  2
    167    376    367    358     1  0.0000000  1.6024720  3
    170    405    396    387     1  180.0000771  0.4184000  2
    170    405    396    387     1  0.0000000  1.6024720  3
    174    175    187    199     1  0.0000000  0.6508444  3
    174    178    190    196     1  0.0000000  0.6508444  3
    174    181    184    193     1  0.0000000  0.6508444  3
    175    174    178    190     1  180.0000771  2.0083200  2
    175    174    178    190     1  0.0000000  1.2552000  3
    175    174    181    184     1  180.0000771  2.0083200  2
    175    174    181    184     1  0.0000000  1.2552000  3
    175    187    199    463     1  0.0000000  0.6508444  3
    178    174    175    187     1  180.0000771  2.0083200  2
    178    174    175    187     1  0.0000000  1.2552000  3
    178    174    181    184     1  180.0000771  2.0083200  2
    178    174    181    184     1  0.0000000  1.2552000  3
    178    190    196    434     1  0.0000000  0.6508444  3
    181    174    175    187     1  180.0000771  2.0083200  2
    181    174    175    187     1  0.0000000  1.2552000  3
    181    174    178    190     1  180.0000771  2.0083200  2
    181    174    178    190     1  0.0000000  1.2552000  3
    181    184    193    202     1  0.0000000  0.6508444  3
    187    199    463    454     1  180.0000771  0.4184000  2
    187    199    463    454     1  0.0000000  1.6024720  3
    190    196    434    425     1  180.0000771  0.4184000  2
    190    196    434    425     1  0.0000000  1.6024720  3
    196    434    425    416     1  180.0000771  0.4184000  2
    196    434    425    416     1  0.0000000  1.6024720  3
    199    463    454    445     1  180.0000771  0.4184000  2
    199    463    454    445     1  0.0000000  1.6024720  3
    203    204    216    228     1  0.0000000  0.6508444  3
    203    207    219    225     1  0.0000000  0.6508444  3
    203    210    213    222     1  0.0000000  0.6508444  3
    204    203    207    219     1  180.0000771  2.0083200  2
    204    203    207    219     1  0.0000000  1.2552000  3
    204    203    210    213     1  180.0000771  2.0083200  2
    204    203    210    213     1  0.0000000  1.2552000  3
    204    216    228    521     1  0.0000000  0.6508444  3
    207    203    204    216     1  180.0000771  2.0083200  2
    207    203    204    216     1  0.0000000  1.2552000  3
    207    203    210    213     1  180.0000771  2.0083200  2
    207    203    210    213     1  0.0000000  1.2552000  3
    207    219    225    492     1  0.0000000  0.6508444  3
    210    203    204    216     1  180.0000771  2.0083200  2
    210    203    204    216     1  0.0000000  1.2552000  3
    210    203    207    219     1  180.0000771  2.0083200  2
    210    203    207    219     1  0.0000000  1.2552000  3
    210    213    222    231     1  0.0000000  0.6508444  3
    216    228    521    512     1  180.0000771  0.4184000  2
    216    228    521    512     1  0.0000000  1.6024720  3
    219    225    492    483     1  180.0000771  0.4184000  2
    219    225    492    483     1  0.0000000  1.6024720  3
    225    492    483    474     1  180.0000771  0.4184000  2
    225    492    483    474     1  0.0000000  1.6024720  3
    228    521    512    503     1  180.0000771  0.4184000  2
    228    521    512    503     1  0.0000000  1.6024720  3
    232    233    245    257     1  0.0000000  0.6508444  3
    232    236    248    254     1  0.0000000  0.6508444  3
    232    239    242    251     1  0.0000000  0.6508444  3
    233    232    236    248     1  180.0000771  2.0083200  2
    233    232    236    248     1  0.0000000  1.2552000  3
    233    232    239    242     1  180.0000771  2.0083200  2
    233    232    239    242     1  0.0000000  1.2552000  3
    233    245    257    579     1  0.0000000  0.6508444  3
    236    232    233    245     1  180.0000771  2.0083200  2
    236    232    233    245     1  0.0000000  1.2552000  3
    236    232    239    242     1  180.0000771  2.0083200  2
    236    232    239    242     1  0.0000000  1.2552000  3
    236    248    254    550     1  0.0000000  0.6508444  3
    239    232    233    245     1  180.0000771  2.0083200  2
    239    232    233    245     1  0.0000000  1.2552000  3
    239    232    236    248     1  180.0000771  2.0083200  2
    239    232    236    248     1  0.0000000  1.2552000  3
    239    242    251    260     1  0.0000000  0.6508444  3
    245    257    579    570     1  180.0000771  0.4184000  2
    245    257    579    570     1  0.0000000  1.6024720  3
    248    254    550    541     1  180.0000771  0.4184000  2
    248    254    550    541     1  0.0000000  1.6024720  3
    254    550    541    532     1  180.0000771  0.4184000  2
    254    550    541    532     1  0.0000000  1.6024720  3
    257    579    570    561     1  180.0000771  0.4184000  2
    257    579    570    561     1  0.0000000  1.6024720  3
    261    262    274    286     1  0.0000000  0.6508444  3
    261    265    277    283     1  0.0000000  0.6508444  3
    261    268    271    280     1  0.0000000  0.6508444  3
    262    261    265    277     1  180.0000771  2.0083200  2
    262    261    265    277     1  0.0000000  1.2552000  3
    262    261    268    271     1  180.0000771  2.0083200  2
    262    261    268    271     1  0.0000000  1.2552000  3
    262    274    286    637     1  0.0000000  0.6508444  3
    265    261    262    274     1  180.0000771  2.0083200  2
    265    261    262    274     1  0.0000000  1.2552000  3
    265    261    268    271     1  180.0000771  2.0083200  2
    265    261    268    271     1  0.0000000  1.2552000  3
    265    277    283    608     1  0.0000000  0.6508444  3
    268    261    262    274     1  180.0000771  2.0083200  2
    268    261    262    274     1  0.0000000  1.2552000  3
    268    261    265    277     1  180.0000771  2.0083200  2
    268    261    265    277     1  0.0000000  1.2552000  3
    268    271    280    289     1  0.0000000  0.6508444  3
    274    286    637    628     1  180.0000771  0.4184000  2
    274    286    637    628     1  0.0000000  1.6024720  3
    277    283    608    599     1  180.0000771  0.4184000  2
    277    283    608    599     1  0.0000000  1.6024720  3
    283    608    599    590     1  180.0000771  0.4184000  2
    283    608    599    590     1  0.0000000  1.6024720  3
    286    637    628    619     1  180.0000771  0.4184000  2
    286    637    628    619     1  0.0000000  1.6024720  3
    290    291    303    315     1  0.0000000  0.6508444  3
    290    294    306    312     1  0.0000000  0.6508444  3
    290    297    300    309     1  0.0000000  0.6508444  3
    291    290    294    306     1  180.0000771  2.0083200  2
    291    290    294    306     1  0.0000000  1.2552000  3
    291    290    297    300     1  180.0000771  2.0083200  2
    291    290    297    300     1  0.0000000  1.2552000  3
    291    303    315    695     1  0.0000000  0.6508444  3
    294    290    291    303     1  180.0000771  2.0083200  2
    294    290    291    303     1  0.0000000  1.2552000  3
    294    290    297    300     1  180.0000771  2.0083200  2
    294    290    297    300     1  0.0000000  1.2552000  3
    294    306    312    666     1  0.0000000  0.6508444  3
    297    290    291    303     1  180.0000771  2.0083200  2
    297    290    291    303     1  0.0000000  1.2552000  3
    297    290    294    306     1  180.0000771  2.0083200  2
    297    290    294    306     1  0.0000000  1.2552000  3
    297    300    309    318     1  0.0000000  0.6508444  3
    303    315    695    686     1  180.0000771  0.4184000  2
    303    315    695    686     1  0.0000000  1.6024720  3
    306    312    666    657     1  180.0000771  0.4184000  2
    306    312    666    657     1  0.0000000  1.6024720  3
    312    666    657    648     1  180.0000771  0.4184000  2
    312    666    657    648     1  0.0000000  1.6024720  3
    315    695    686    677     1  180.0000771  0.4184000  2
    315    695    686    677     1  0.0000000  1.6024720  3
    319    320    332    344     1  0.0000000  0.6508444  3
    319    323    335    341     1  0.0000000  0.6508444  3
    319    326    329    338     1  0.0000000  0.6508444  3
    320    319    323    335     1  180.0000771  2.0083200  2
    320    319    323    335     1  0.0000000  1.2552000  3
    320    319    326    329     1  180.0000771  2.0083200  2
    320    319    326    329     1  0.0000000  1.2552000  3
    320    332    344    753     1  0.0000000  0.6508444  3
    323    319    320    332     1  180.0000771  2.0083200  2
    323    319    320    332     1  0.0000000  1.2552000  3
    323    319    326    329     1  180.0000771  2.0083200  2
    323    319    326    329     1  0.0000000  1.2552000  3
    323    335    341    724     1  0.0000000  0.6508444  3
    326    319    320    332     1  180.0000771  2.0083200  2
    326    319    320    332     1  0.0000000  1.2552000  3
    326    319    323    335     1  180.0000771  2.0083200  2
    326    319    323    335     1  0.0000000  1.2552000  3
    326    329    338    347     1  0.0000000  0.6508444  3
    332    344    753    744     1  180.0000771  0.4184000  2
    332    344    753    744     1  0.0000000  1.6024720  3
    335    341    724    715     1  180.0000771  0.4184000  2
    335    341    724    715     1  0.0000000  1.6024720  3
    341    724    715    706     1  180.0000771  0.4184000  2
    341    724    715    706     1  0.0000000  1.6024720  3
    344    753    744    735     1  180.0000771  0.4184000  2
    344    753    744    735     1  0.0000000  1.6024720  3
    348    349    361    373     1  0.0000000  0.6508444  3
    348    352    364    370     1  0.0000000  0.6508444  3
    348    355    358    367     1  0.0000000  0.6508444  3
    349    348    352    364     1  180.0000771  2.0083200  2
    349    348    352    364     1  0.0000000  1.2552000  3
    349    348    355    358     1  180.0000771  2.0083200  2
    349    348    355    358     1  0.0000000  1.2552000  3
    349    361    373    811     1  0.0000000  0.6508444  3
    352    348    349    361     1  180.0000771  2.0083200  2
    352    348    349    361     1  0.0000000  1.2552000  3
    352    348    355    358     1  180.0000771  2.0083200  2
    352    348    355    358     1  0.0000000  1.2552000  3
    352    364    370    782     1  0.0000000  0.6508444  3
    355    348    349    361     1  180.0000771  2.0083200  2
    355    348    349    361     1  0.0000000  1.2552000  3
    355    348    352    364     1  180.0000771  2.0083200  2
    355    348    352    364     1  0.0000000  1.2552000  3
    355    358    367    376     1  0.0000000  0.6508444  3
    361    373    811    802     1  180.0000771  0.4184000  2
    361    373    811    802     1  0.0000000  1.6024720  3
    364    370    782    773     1  180.0000771  0.4184000  2
    364    370    782    773     1  0.0000000  1.6024720  3
    370    782    773    764     1  180.0000771  0.4184000  2
    370    782    773    764     1  0.0000000  1.6024720  3
    373    811    802    793     1  180.0000771  0.4184000  2
    373    811    802    793     1  0.0000000  1.6024720  3
    377    378    390    402     1  0.0000000  0.6508444  3
    377    381    393    399     1  0.0000000  0.6508444  3
    377    384    387    396     1  0.0000000  0.6508444  3
    378    377    381    393     1  180.0000771  2.0083200  2
    378    377    381    393     1  0.0000000  1.2552000  3
    378    377    384    387     1  180.0000771  2.0083200  2
    378    377    384    387     1  0.0000000  1.2552000  3
    378    390    402    869     1  0.0000000  0.6508444  3
    381    377    378    390     1  180.0000771  2.0083200  2
    381    377    378    390     1  0.0000000  1.2552000  3
    381    377    384    387     1  180.0000771  2.0083200  2
    381    377    384    387     1  0.0000000  1.2552000  3
    381    393    399    840     1  0.0000000  0.6508444  3
    384    377    378    390     1  180.0000771  2.0083200  2
    384    377    378    390     1  0.0000000  1.2552000  3
    384    377    381    393     1  180.0000771  2.0083200  2
    384    377    381    393     1  0.0000000  1.2552000  3
    384    387    396    405     1  0.0000000  0.6508444  3
    390    402    869    860     1  180.0000771  0.4184000  2
    390    402    869    860     1  0.0000000  1.6024720  3
    393    399    840    831     1  180.0000771  0.4184000  2
    393    399    840    831     1  0.0000000  1.6024720  3
    399    840    831    822     1  180.0000771  0.4184000  2
    399    840    831    822     1  0.0000000  1.6024720  3
    402    869    860    851     1  180.0000771  0.4184000  2
    402    869    860    851     1  0.0000000  1.6024720  3
    406    407    419    431     1  0.0000000  0.6508444  3
    406    410    422    428     1  0.0000000  0.6508444  3
    406    413    416    425     1  0.0000000  0.6508444  3
    407    406    410    422     1  180.0000771  2.0083200  2
    407    406    410    422     1  0.0000000  1.2552000  3
    407    406    413    416     1  180.0000771  2.0083200  2
    407    406    413    416     1  0.0000000  1.2552000  3
    407    419    431    927     1  0.0000000  0.6508444  3
    410    406    407    419     1  180.0000771  2.0083200  2
    410    406    407    419     1  0.0000000  1.2552000  3
    410    406    413    416     1  180.0000771  2.0083200  2
    410    406    413    416     1  0.0000000  1.2552000  3
    410    422    428    898     1  0.0000000  0.6508444  3
    413    406    407    419     1  180.0000771  2.0083200  2
    413    406    407    419     1  0.0000000  1.2552000  3
    413    406    410    422     1  180.0000771  2.0083200  2
    413    406    410    422     1  0.0000000  1.2552000  3
    413    416    425    434     1  0.0000000  0.6508444  3
    419    431    927    918     1  180.0000771  0.4184000  2
    419    431    927    918     1  0.0000000  1.6024720  3
    422    428    898    889     1  180.0000771  0.4184000  2
    422    428    898    889     1  0.0000000  1.6024720  3
    428    898    889    880     1  180.0000771  0.4184000  2
    428    898    889    880     1  0.0000000  1.6024720  3
    431    927    918    909     1  180.0000771  0.4184000  2
    431    927    918    909     1  0.0000000  1.6024720  3
    435    436    448    460     1  0.0000000  0.6508444  3
    435    439    451    457     1  0.0000000  0.6508444  3
    435    442    445    454     1  0.0000000  0.6508444  3
    436    435    439    451     1  180.0000771  2.0083200  2
    436    435    439    451     1  0.0000000  1.2552000  3
    436    435    442    445     1  180.0000771  2.0083200  2
    436    435    442    445     1  0.0000000  1.2552000  3
    436    448    460    985     1  0.0000000  0.6508444  3
    439    435    436    448     1  180.0000771  2.0083200  2
    439    435    436    448     1  0.0000000  1.2552000  3
    439    435    442    445     1  180.0000771  2.0083200  2
    439    435    442    445     1  0.0000000  1.2552000  3
    439    451    457    956     1  0.0000000  0.6508444  3
    442    435    436    448     1  180.0000771  2.0083200  2
    442    435    436    448     1  0.0000000  1.2552000  3
    442    435    439    451     1  180.0000771  2.0083200  2
    442    435    439    451     1  0.0000000  1.2552000  3
    442    445    454    463     1  0.0000000  0.6508444  3
    448    460    985    976     1  180.0000771  0.4184000  2
    448    460    985    976     1  0.0000000  1.6024720  3
    451    457    956    947     1  180.0000771  0.4184000  2
    451    457    956    947     1  0.0000000  1.6024720  3
    457    956    947    938     1  180.0000771  0.4184000  2
    457    956    947    938     1  0.0000000  1.6024720  3
    460    985    976    967     1  180.0000771  0.4184000  2
    460    985    976    967     1  0.0000000  1.6024720  3
    464    465    477    489     1  0.0000000  0.6508444  3
    464    468    480    486     1  0.0000000  0.6508444  3
    464    471    474    483     1  0.0000000  0.6508444  3
    465    464    468    480     1  180.0000771  2.0083200  2
    465    464    468    480     1  0.0000000  1.2552000  3
    465    464    471    474     1  180.0000771  2.0083200  2
    465    464    471    474     1  0.0000000  1.2552000  3
    465    477    489   1043     1  0.0000000  0.6508444  3
    468    464    465    477     1  180.0000771  2.0083200  2
    468    464    465    477     1  0.0000000  1.2552000  3
    468    464    471    474     1  180.0000771  2.0083200  2
    468    464    471    474     1  0.0000000  1.2552000  3
    468    480    486   1014     1  0.0000000  0.6508444  3
    471    464    465    477     1  180.0000771  2.0083200  2
    471    464    465    477     1  0.0000000  1.2552000  3
    471    464    468    480     1  180.0000771  2.0083200  2
    471    464    468    480     1  0.0000000  1.2552000  3
    471    474    483    492     1  0.0000000  0.6508444  3
    477    489   1043   1034     1  180.0000771  0.4184000  2
    477    489   1043   1034     1  0.0000000  1.6024720  3
    480    486   1014   1005     1  180.0000771  0.4184000  2
    480    486   1014   1005     1  0.0000000  1.6024720  3
    486   1014   1005    996     1  180.0000771  0.4184000  2
    486   1014   1005    996     1  0.0000000  1.6024720  3
    489   1043   1034   1025     1  180.0000771  0.4184000  2
    489   1043   1034   1025     1  0.0000000  1.6024720  3
    493    494    506    518     1  0.0000000  0.6508444  3
    493    497    509    515     1  0.0000000  0.6508444  3
    493    500    503    512     1  0.0000000  0.6508444  3
    494    493    497    509     1  180.0000771  2.0083200  2
    494    493    497    509     1  0.0000000  1.2552000  3
    494    493    500    503     1  180.0000771  2.0083200  2
    494    493    500    503     1  0.0000000  1.2552000  3
    494    506    518   1101     1  0.0000000  0.6508444  3
    497    493    494    506     1  180.0000771  2.0083200  2
    497    493    494    506     1  0.0000000  1.2552000  3
    497    493    500    503     1  180.0000771  2.0083200  2
    497    493    500    503     1  0.0000000  1.2552000  3
    497    509    515   1072     1  0.0000000  0.6508444  3
    500    493    494    506     1  180.0000771  2.0083200  2
    500    493    494    506     1  0.0000000  1.2552000  3
    500    493    497    509     1  180.0000771  2.0083200  2
    500    493    497    509     1  0.0000000  1.2552000  3
    500    503    512    521     1  0.0000000  0.6508444  3
    506    518   1101   1092     1  180.0000771  0.4184000  2
    506    518   1101   1092     1  0.0000000  1.6024720  3
    509    515   1072   1063     1  180.0000771  0.4184000  2
    509    515   1072   1063     1  0.0000000  1.6024720  3
    515   1072   1063   1054     1  180.0000771  0.4184000  2
    515   1072   1063   1054     1  0.0000000  1.6024720  3
    518   1101   1092   1083     1  180.0000771  0.4184000  2
    518   1101   1092   1083     1  0.0000000  1.6024720  3
    522    523    535    547     1  0.0000000  0.6508444  3
    522    526    538    544     1  0.0000000  0.6508444  3
    522    529    532    541     1  0.0000000  0.6508444  3
    523    522    526    538     1  180.0000771  2.0083200  2
    523    522    526    538     1  0.0000000  1.2552000  3
    523    522    529    532     1  180.0000771  2.0083200  2
    523    522    529    532     1  0.0000000  1.2552000  3
    523    535    547   1159     1  0.0000000  0.6508444  3
    526    522    523    535     1  180.0000771  2.0083200  2
    526    522    523    535     1  0.0000000  1.2552000  3
    526    522    529    532     1  180.0000771  2.0083200  2
    526    522    529    532     1  0.0000000  1.2552000  3
    526    538    544   1130     1  0.0000000  0.6508444  3
    529    522    523    535     1  180.0000771  2.0083200  2
    529    522    523    535     1  0.0000000  1.2552000  3
    529    522    526    538     1  180.0000771  2.0083200  2
    529    522    526    538     1  0.0000000  1.2552000  3
    529    532    541    550     1  0.0000000  0.6508444  3
    535    547   1159   1150     1  180.0000771  0.4184000  2
    535    547   1159   1150     1  0.0000000  1.6024720  3
    538    544   1130   1121     1  180.0000771  0.4184000  2
    538    544   1130   1121     1  0.0000000  1.6024720  3
    544   1130   1121   1112     1  180.0000771  0.4184000  2
    544   1130   1121   1112     1  0.0000000  1.6024720  3
    547   1159   1150   1141     1  180.0000771  0.4184000  2
    547   1159   1150   1141     1  0.0000000  1.6024720  3
    551    552    564    576     1  0.0000000  0.6508444  3
    551    555    567    573     1  0.0000000  0.6508444  3
    551    558    561    570     1  0.0000000  0.6508444  3
    552    551    555    567     1  180.0000771  2.0083200  2
    552    551    555    567     1  0.0000000  1.2552000  3
    552    551    558    561     1  180.0000771  2.0083200  2
    552    551    558    561     1  0.0000000  1.2552000  3
    552    564    576   1217     1  0.0000000  0.6508444  3
    555    551    552    564     1  180.0000771  2.0083200  2
    555    551    552    564     1  0.0000000  1.2552000  3
    555    551    558    561     1  180.0000771  2.0083200  2
    555    551    558    561     1  0.0000000  1.2552000  3
    555    567    573   1188     1  0.0000000  0.6508444  3
    558    551    552    564     1  180.0000771  2.0083200  2
    558    551    552    564     1  0.0000000  1.2552000  3
    558    551    555    567     1  180.0000771  2.0083200  2
    558    551    555    567     1  0.0000000  1.2552000  3
    558    561    570    579     1  0.0000000  0.6508444  3
    564    576   1217   1208     1  180.0000771  0.4184000  2
    564    576   1217   1208     1  0.0000000  1.6024720  3
    567    573   1188   1179     1  180.0000771  0.4184000  2
    567    573   1188   1179     1  0.0000000  1.6024720  3
    573   1188   1179   1170     1  180.0000771  0.4184000  2
    573   1188   1179   1170     1  0.0000000  1.6024720  3
    576   1217   1208   1199     1  180.0000771  0.4184000  2
    576   1217   1208   1199     1  0.0000000  1.6024720  3
    580    581    593    605     1  0.0000000  0.6508444  3
    580    584    596    602     1  0.0000000  0.6508444  3
    580    587    590    599     1  0.0000000  0.6508444  3
    581    580    584    596     1  180.0000771  2.0083200  2
    581    580    584    596     1  0.0000000  1.2552000  3
    581    580    587    590     1  180.0000771  2.0083200  2
    581    580    587    590     1  0.0000000  1.2552000  3
    581    593    605   1275     1  0.0000000  0.6508444  3
    584    580    581    593     1  180.0000771  2.0083200  2
    584    580    581    593     1  0.0000000  1.2552000  3
    584    580    587    590     1  180.0000771  2.0083200  2
    584    580    587    590     1  0.0000000  1.2552000  3
    584    596    602   1246     1  0.0000000  0.6508444  3
    587    580    581    593     1  180.0000771  2.0083200  2
    587    580    581    593     1  0.0000000  1.2552000  3
    587    580    584    596     1  180.0000771  2.0083200  2
    587    580    584    596     1  0.0000000  1.2552000  3
    587    590    599    608     1  0.0000000  0.6508444  3
    593    605   1275   1266     1  180.0000771  0.4184000  2
    593    605   1275   1266     1  0.0000000  1.6024720  3
    596    602   1246   1237     1  180.0000771  0.4184000  2
    596    602   1246   1237     1  0.0000000  1.6024720  3
    602   1246   1237   1228     1  180.0000771  0.4184000  2
    602   1246   1237   1228     1  0.0000000  1.6024720  3
    605   1275   1266   1257     1  180.0000771  0.4184000  2
    605   1275   1266   1257     1  0.0000000  1.6024720  3
    609    610    622    634     1  0.0000000  0.6508444  3
    609    613    625    631     1  0.0000000  0.6508444  3
    609    616    619    628     1  0.0000000  0.6508444  3
    610    609    613    625     1  180.0000771  2.0083200  2
    610    609    613    625     1  0.0000000  1.2552000  3
    610    609    616    619     1  180.0000771  2.0083200  2
    610    609    616    619     1  0.0000000  1.2552000  3
    610    622    634   1333     1  0.0000000  0.6508444  3
    613    609    610    622     1  180.0000771  2.0083200  2
    613    609    610    622     1  0.0000000  1.2552000  3
    613    609    616    619     1  180.0000771  2.0083200  2
    613    609    616    619     1  0.0000000  1.2552000  3
    613    625    631   1304     1  0.0000000  0.6508444  3
    616    609    610    622     1  180.0000771  2.0083200  2
    616    609    610    622     1  0.0000000  1.2552000  3
    616    609    613    625     1  180.0000771  2.0083200  2
    616    609    613    625     1  0.0000000  1.2552000  3
    616    619    628    637     1  0.0000000  0.6508444  3
    622    634   1333   1324     1  180.0000771  0.4184000  2
    622    634   1333   1324     1  0.0000000  1.6024720  3
    625    631   1304   1295     1  180.0000771  0.4184000  2
    625    631   1304   1295     1  0.0000000  1.6024720  3
    631   1304   1295   1286     1  180.0000771  0.4184000  2
    631   1304   1295   1286     1  0.0000000  1.6024720  3
    634   1333   1324   1315     1  180.0000771  0.4184000  2
    634   1333   1324   1315     1  0.0000000  1.6024720  3
    638    639    651    663     1  0.0000000  0.6508444  3
    638    642    654    660     1  0.0000000  0.6508444  3
    638    645    648    657     1  0.0000000  0.6508444  3
    639    638    642    654     1  180.0000771  2.0083200  2
    639    638    642    654     1  0.0000000  1.2552000  3
    639    638    645    648     1  180.0000771  2.0083200  2
    639    638    645    648     1  0.0000000  1.2552000  3
    639    651    663   1391     1  0.0000000  0.6508444  3
    642    638    639    651     1  180.0000771  2.0083200  2
    642    638    639    651     1  0.0000000  1.2552000  3
    642    638    645    648     1  180.0000771  2.0083200  2
    642    638    645    648     1  0.0000000  1.2552000  3
    642    654    660   1362     1  0.0000000  0.6508444  3
    645    638    639    651     1  180.0000771  2.0083200  2
    645    638    639    651     1  0.0000000  1.2552000  3
    645    638    642    654     1  180.0000771  2.0083200  2
    645    638    642    654     1  0.0000000  1.2552000  3
    645    648    657    666     1  0.0000000  0.6508444  3
    651    663   1391   1382     1  180.0000771  0.4184000  2
    651    663   1391   1382     1  0.0000000  1.6024720  3
    654    660   1362   1353     1  180.0000771  0.4184000  2
    654    660   1362   1353     1  0.0000000  1.6024720  3
    660   1362   1353   1344     1  180.0000771  0.4184000  2
    660   1362   1353   1344     1  0.0000000  1.6024720  3
    663   1391   1382   1373     1  180.0000771  0.4184000  2
    663   1391   1382   1373     1  0.0000000  1.6024720  3
    667    668    680    692     1  0.0000000  0.6508444  3
    667    671    683    689     1  0.0000000  0.6508444  3
    667    674    677    686     1  0.0000000  0.6508444  3
    668    667    671    683     1  180.0000771  2.0083200  2
    668    667    671    683     1  0.0000000  1.2552000  3
    668    667    674    677     1  180.0000771  2.0083200  2
    668    667    674    677     1  0.0000000  1.2552000  3
    668    680    692   1449     1  0.0000000  0.6508444  3
    671    667    668    680     1  180.0000771  2.0083200  2
    671    667    668    680     1  0.0000000  1.2552000  3
    671    667    674    677     1  180.0000771  2.0083200  2
    671    667    674    677     1  0.0000000  1.2552000  3
    671    683    689   1420     1  0.0000000  0.6508444  3
    674    667    668    680     1  180.0000771  2.0083200  2
    674    667    668    680     1  0.0000000  1.2552000  3
    674    667    671    683     1  180.0000771  2.0083200  2
    674    667    671    683     1  0.0000000  1.2552000  3
    674    677    686    695     1  0.0000000  0.6508444  3
    680    692   1449   1440     1  180.0000771  0.4184000  2
    680    692   1449   1440     1  0.0000000  1.6024720  3
    683    689   1420   1411     1  180.0000771  0.4184000  2
    683    689   1420   1411     1  0.0000000  1.6024720  3
    689   1420   1411   1402     1  180.0000771  0.4184000  2
    689   1420   1411   1402     1  0.0000000  1.6024720  3
    692   1449   1440   1431     1  180.0000771  0.4184000  2
    692   1449   1440   1431     1  0.0000000  1.6024720  3
    696    697    709    721     1  0.0000000  0.6508444  3
    696    700    712    718     1  0.0000000  0.6508444  3
    696    703    706    715     1  0.0000000  0.6508444  3
    697    696    700    712     1  180.0000771  2.0083200  2
    697    696    700    712     1  0.0000000  1.2552000  3
    697    696    703    706     1  180.0000771  2.0083200  2
    697    696    703    706     1  0.0000000  1.2552000  3
    697    709    721   1507     1  0.0000000  0.6508444  3
    700    696    697    709     1  180.0000771  2.0083200  2
    700    696    697    709     1  0.0000000  1.2552000  3
    700    696    703    706     1  180.0000771  2.0083200  2
    700    696    703    706     1  0.0000000  1.2552000  3
    700    712    718   1478     1  0.0000000  0.6508444  3
    703    696    697    709     1  180.0000771  2.0083200  2
    703    696    697    709     1  0.0000000  1.2552000  3
    703    696    700    712     1  180.0000771  2.0083200  2
    703    696    700    712     1  0.0000000  1.2552000  3
    703    706    715    724     1  0.0000000  0.6508444  3
    709    721   1507   1498     1  180.0000771  0.4184000  2
    709    721   1507   1498     1  0.0000000  1.6024720  3
    712    718   1478   1469     1  180.0000771  0.4184000  2
    712    718   1478   1469     1  0.0000000  1.6024720  3
    718   1478   1469   1460     1  180.0000771  0.4184000  2
    718   1478   1469   1460     1  0.0000000  1.6024720  3
    721   1507   1498   1489     1  180.0000771  0.4184000  2
    721   1507   1498   1489     1  0.0000000  1.6024720  3
    725    726    738    750     1  0.0000000  0.6508444  3
    725    729    741    747     1  0.0000000  0.6508444  3
    725    732    735    744     1  0.0000000  0.6508444  3
    726    725    729    741     1  180.0000771  2.0083200  2
    726    725    729    741     1  0.0000000  1.2552000  3
    726    725    732    735     1  180.0000771  2.0083200  2
    726    725    732    735     1  0.0000000  1.2552000  3
    726    738    750   1565     1  0.0000000  0.6508444  3
    729    725    726    738     1  180.0000771  2.0083200  2
    729    725    726    738     1  0.0000000  1.2552000  3
    729    725    732    735     1  180.0000771  2.0083200  2
    729    725    732    735     1  0.0000000  1.2552000  3
    729    741    747   1536     1  0.0000000  0.6508444  3
    732    725    726    738     1  180.0000771  2.0083200  2
    732    725    726    738     1  0.0000000  1.2552000  3
    732    725    729    741     1  180.0000771  2.0083200  2
    732    725    729    741     1  0.0000000  1.2552000  3
    732    735    744    753     1  0.0000000  0.6508444  3
    738    750   1565   1556     1  180.0000771  0.4184000  2
    738    750   1565   1556     1  0.0000000  1.6024720  3
    741    747   1536   1527     1  180.0000771  0.4184000  2
    741    747   1536   1527     1  0.0000000  1.6024720  3
    747   1536   1527   1518     1  180.0000771  0.4184000  2
    747   1536   1527   1518     1  0.0000000  1.6024720  3
    750   1565   1556   1547     1  180.0000771  0.4184000  2
    750   1565   1556   1547     1  0.0000000  1.6024720  3
    754    755    767    779     1  0.0000000  0.6508444  3
    754    758    770    776     1  0.0000000  0.6508444  3
    754    761    764    773     1  0.0000000  0.6508444  3
    755    754    758    770     1  180.0000771  2.0083200  2
    755    754    758    770     1  0.0000000  1.2552000  3
    755    754    761    764     1  180.0000771  2.0083200  2
    755    754    761    764     1  0.0000000  1.2552000  3
    755    767    779   1623     1  0.0000000  0.6508444  3
    758    754    755    767     1  180.0000771  2.0083200  2
    758    754    755    767     1  0.0000000  1.2552000  3
    758    754    761    764     1  180.0000771  2.0083200  2
    758    754    761    764     1  0.0000000  1.2552000  3
    758    770    776   1594     1  0.0000000  0.6508444  3
    761    754    755    767     1  180.0000771  2.0083200  2
    761    754    755    767     1  0.0000000  1.2552000  3
    761    754    758    770     1  180.0000771  2.0083200  2
    761    754    758    770     1  0.0000000  1.2552000  3
    761    764    773    782     1  0.0000000  0.6508444  3
    767    779   1623   1614     1  180.0000771  0.4184000  2
    767    779   1623   1614     1  0.0000000  1.6024720  3
    770    776   1594   1585     1  180.0000771  0.4184000  2
    770    776   1594   1585     1  0.0000000  1.6024720  3
    776   1594   1585   1576     1  180.0000771  0.4184000  2
    776   1594   1585   1576     1  0.0000000  1.6024720  3
    779   1623   1614   1605     1  180.0000771  0.4184000  2
    779   1623   1614   1605     1  0.0000000  1.6024720  3
    783    784    796    808     1  0.0000000  0.6508444  3
    783    787    799    805     1  0.0000000  0.6508444  3
    783    790    793    802     1  0.0000000  0.6508444  3
    784    783    787    799     1  180.0000771  2.0083200  2
    784    783    787    799     1  0.0000000  1.2552000  3
    784    783    790    793     1  180.0000771  2.0083200  2
    784    783    790    793     1  0.0000000  1.2552000  3
    784    796    808   1681     1  0.0000000  0.6508444  3
    787    783    784    796     1  180.0000771  2.0083200  2
    787    783    784    796     1  0.0000000  1.2552000  3
    787    783    790    793     1  180.0000771  2.0083200  2
    787    783    790    793     1  0.0000000  1.2552000  3
    787    799    805   1652     1  0.0000000  0.6508444  3
    790    783    784    796     1  180.0000771  2.0083200  2
    790    783    784    796     1  0.0000000  1.2552000  3
    790    783    787    799     1  180.0000771  2.0083200  2
    790    783    787    799     1  0.0000000  1.2552000  3
    790    793    802    811     1  0.0000000  0.6508444  3
    796    808   1681   1672     1  180.0000771  0.4184000  2
    796    808   1681   1672     1  0.0000000  1.6024720  3
    799    805   1652   1643     1  180.0000771  0.4184000  2
    799    805   1652   1643     1  0.0000000  1.6024720  3
    805   1652   1643   1634     1  180.0000771  0.4184000  2
    805   1652   1643   1634     1  0.0000000  1.6024720  3
    808   1681   1672   1663     1  180.0000771  0.4184000  2
    808   1681   1672   1663     1  0.0000000  1.6024720  3
    812    813    825    837     1  0.0000000  0.6508444  3
    812    816    828    834     1  0.0000000  0.6508444  3
    812    819    822    831     1  0.0000000  0.6508444  3
    813    812    816    828     1  180.0000771  2.0083200  2
    813    812    816    828     1  0.0000000  1.2552000  3
    813    812    819    822     1  180.0000771  2.0083200  2
    813    812    819    822     1  0.0000000  1.2552000  3
    813    825    837   1739     1  0.0000000  0.6508444  3
    816    812    813    825     1  180.0000771  2.0083200  2
    816    812    813    825     1  0.0000000  1.2552000  3
    816    812    819    822     1  180.0000771  2.0083200  2
    816    812    819    822     1  0.0000000  1.2552000  3
    816    828    834   1710     1  0.0000000  0.6508444  3
    819    812    813    825     1  180.0000771  2.0083200  2
    819    812    813    825     1  0.0000000  1.2552000  3
    819    812    816    828     1  180.0000771  2.0083200  2
    819    812    816    828     1  0.0000000  1.2552000  3
    819    822    831    840     1  0.0000000  0.6508444  3
    825    837   1739   1730     1  180.0000771  0.4184000  2
    825    837   1739   1730     1  0.0000000  1.6024720  3
    828    834   1710   1701     1  180.0000771  0.4184000  2
    828    834   1710   1701     1  0.0000000  1.6024720  3
    834   1710   1701   1692     1  180.0000771  0.4184000  2
    834   1710   1701   1692     1  0.0000000  1.6024720  3
    837   1739   1730   1721     1  180.0000771  0.4184000  2
    837   1739   1730   1721     1  0.0000000  1.6024720  3
    841    842    854    866     1  0.0000000  0.6508444  3
    841    845    857    863     1  0.0000000  0.6508444  3
    841    848    851    860     1  0.0000000  0.6508444  3
    842    841    845    857     1  180.0000771  2.0083200  2
    842    841    845    857     1  0.0000000  1.2552000  3
    842    841    848    851     1  180.0000771  2.0083200  2
    842    841    848    851     1  0.0000000  1.2552000  3
    842    854    866   1797     1  0.0000000  0.6508444  3
    845    841    842    854     1  180.0000771  2.0083200  2
    845    841    842    854     1  0.0000000  1.2552000  3
    845    841    848    851     1  180.0000771  2.0083200  2
    845    841    848    851     1  0.0000000  1.2552000  3
    845    857    863   1768     1  0.0000000  0.6508444  3
    848    841    842    854     1  180.0000771  2.0083200  2
    848    841    842    854     1  0.0000000  1.2552000  3
    848    841    845    857     1  180.0000771  2.0083200  2
    848    841    845    857     1  0.0000000  1.2552000  3
    848    851    860    869     1  0.0000000  0.6508444  3
    854    866   1797   1788     1  180.0000771  0.4184000  2
    854    866   1797   1788     1  0.0000000  1.6024720  3
    857    863   1768   1759     1  180.0000771  0.4184000  2
    857    863   1768   1759     1  0.0000000  1.6024720  3
    863   1768   1759   1750     1  180.0000771  0.4184000  2
    863   1768   1759   1750     1  0.0000000  1.6024720  3
    866   1797   1788   1779     1  180.0000771  0.4184000  2
    866   1797   1788   1779     1  0.0000000  1.6024720  3
    870    871    883    895     1  0.0000000  0.6508444  3
    870    874    886    892     1  0.0000000  0.6508444  3
    870    877    880    889     1  0.0000000  0.6508444  3
    871    870    874    886     1  180.0000771  2.0083200  2
    871    870    874    886     1  0.0000000  1.2552000  3
    871    870    877    880     1  180.0000771  2.0083200  2
    871    870    877    880     1  0.0000000  1.2552000  3
    871    883    895   1855     1  0.0000000  0.6508444  3
    874    870    871    883     1  180.0000771  2.0083200  2
    874    870    871    883     1  0.0000000  1.2552000  3
    874    870    877    880     1  180.0000771  2.0083200  2
    874    870    877    880     1  0.0000000  1.2552000  3
    874    886    892   1826     1  0.0000000  0.6508444  3
    877    870    871    883     1  180.0000771  2.0083200  2
    877    870    871    883     1  0.0000000  1.2552000  3
    877    870    874    886     1  180.0000771  2.0083200  2
    877    870    874    886     1  0.0000000  1.2552000  3
    877    880    889    898     1  0.0000000  0.6508444  3
    883    895   1855   1846     1  180.0000771  0.4184000  2
    883    895   1855   1846     1  0.0000000  1.6024720  3
    886    892   1826   1817     1  180.0000771  0.4184000  2
    886    892   1826   1817     1  0.0000000  1.6024720  3
    892   1826   1817   1808     1  180.0000771  0.4184000  2
    892   1826   1817   1808     1  0.0000000  1.6024720  3
    895   1855   1846   1837     1  180.0000771  0.4184000  2
    895   1855   1846   1837     1  0.0000000  1.6024720  3
    899    900    912    924     1  0.0000000  0.6508444  3
    899    903    915    921     1  0.0000000  0.6508444  3
    899    906    909    918     1  0.0000000  0.6508444  3
    900    899    903    915     1  180.0000771  2.0083200  2
    900    899    903    915     1  0.0000000  1.2552000  3
    900    899    906    909     1  180.0000771  2.0083200  2
    900    899    906    909     1  0.0000000  1.2552000  3
    900    912    924   1913     1  0.0000000  0.6508444  3
    903    899    900    912     1  180.0000771  2.0083200  2
    903    899    900    912     1  0.0000000  1.2552000  3
    903    899    906    909     1  180.0000771  2.0083200  2
    903    899    906    909     1  0.0000000  1.2552000  3
    903    915    921   1884     1  0.0000000  0.6508444  3
    906    899    900    912     1  180.0000771  2.0083200  2
    906    899    900    912     1  0.0000000  1.2552000  3
    906    899    903    915     1  180.0000771  2.0083200  2
    906    899    903    915     1  0.0000000  1.2552000  3
    906    909    918    927     1  0.0000000  0.6508444  3
    912    924   1913   1904     1  180.0000771  0.4184000  2
    912    924   1913   1904     1  0.0000000  1.6024720  3
    915    921   1884   1875     1  180.0000771  0.4184000  2
    915    921   1884   1875     1  0.0000000  1.6024720  3
    921   1884   1875   1866     1  180.0000771  0.4184000  2
    921   1884   1875   1866     1  0.0000000  1.6024720  3
    924   1913   1904   1895     1  180.0000771  0.4184000  2
    924   1913   1904   1895     1  0.0000000  1.6024720  3
    928    929    941    953     1  0.0000000  0.6508444  3
    928    932    944    950     1  0.0000000  0.6508444  3
    928    935    938    947     1  0.0000000  0.6508444  3
    929    928    932    944     1  180.0000771  2.0083200  2
    929    928    932    944     1  0.0000000  1.2552000  3
    929    928    935    938     1  180.0000771  2.0083200  2
    929    928    935    938     1  0.0000000  1.2552000  3
    929    941    953   1971     1  0.0000000  0.6508444  3
    932    928    929    941     1  180.0000771  2.0083200  2
    932    928    929    941     1  0.0000000  1.2552000  3
    932    928    935    938     1  180.0000771  2.0083200  2
    932    928    935    938     1  0.0000000  1.2552000  3
    932    944    950   1942     1  0.0000000  0.6508444  3
    935    928    929    941     1  180.0000771  2.0083200  2
    935    928    929    941     1  0.0000000  1.2552000  3
    935    928    932    944     1  180.0000771  2.0083200  2
    935    928    932    944     1  0.0000000  1.2552000  3
    935    938    947    956     1  0.0000000  0.6508444  3
    941    953   1971   1962     1  180.0000771  0.4184000  2
    941    953   1971   1962     1  0.0000000  1.6024720  3
    944    950   1942   1933     1  180.0000771  0.4184000  2
    944    950   1942   1933     1  0.0000000  1.6024720  3
    950   1942   1933   1924     1  180.0000771  0.4184000  2
    950   1942   1933   1924     1  0.0000000  1.6024720  3
    953   1971   1962   1953     1  180.0000771  0.4184000  2
    953   1971   1962   1953     1  0.0000000  1.6024720  3
    957    958    970    982     1  0.0000000  0.6508444  3
    957    961    973    979     1  0.0000000  0.6508444  3
    957    964    967    976     1  0.0000000  0.6508444  3
    958    957    961    973     1  180.0000771  2.0083200  2
    958    957    961    973     1  0.0000000  1.2552000  3
    958    957    964    967     1  180.0000771  2.0083200  2
    958    957    964    967     1  0.0000000  1.2552000  3
    958    970    982   2029     1  0.0000000  0.6508444  3
    961    957    958    970     1  180.0000771  2.0083200  2
    961    957    958    970     1  0.0000000  1.2552000  3
    961    957    964    967     1  180.0000771  2.0083200  2
    961    957    964    967     1  0.0000000  1.2552000  3
    961    973    979   2000     1  0.0000000  0.6508444  3
    964    957    958    970     1  180.0000771  2.0083200  2
    964    957    958    970     1  0.0000000  1.2552000  3
    964    957    961    973     1  180.0000771  2.0083200  2
    964    957    961    973     1  0.0000000  1.2552000  3
    964    967    976    985     1  0.0000000  0.6508444  3
    970    982   2029   2020     1  180.0000771  0.4184000  2
    970    982   2029   2020     1  0.0000000  1.6024720  3
    973    979   2000   1991     1  180.0000771  0.4184000  2
    973    979   2000   1991     1  0.0000000  1.6024720  3
    979   2000   1991   1982     1  180.0000771  0.4184000  2
    979   2000   1991   1982     1  0.0000000  1.6024720  3
    982   2029   2020   2011     1  180.0000771  0.4184000  2
    982   2029   2020   2011     1  0.0000000  1.6024720  3
    986    987    999   1011     1  0.0000000  0.6508444  3
    986    990   1002   1008     1  0.0000000  0.6508444  3
    986    993    996   1005     1  0.0000000  0.6508444  3
    987    986    990   1002     1  180.0000771  2.0083200  2
    987    986    990   1002     1  0.0000000  1.2552000  3
    987    986    993    996     1  180.0000771  2.0083200  2
    987    986    993    996     1  0.0000000  1.2552000  3
    987    999   1011   2087     1  0.0000000  0.6508444  3
    990    986    987    999     1  180.0000771  2.0083200  2
    990    986    987    999     1  0.0000000  1.2552000  3
    990    986    993    996     1  180.0000771  2.0083200  2
    990    986    993    996     1  0.0000000  1.2552000  3
    990   1002   1008   2058     1  0.0000000  0.6508444  3
    993    986    987    999     1  180.0000771  2.0083200  2
    993    986    987    999     1  0.0000000  1.2552000  3
    993    986    990   1002     1  180.0000771  2.0083200  2
    993    986    990   1002     1  0.0000000  1.2552000  3
    993    996   1005   1014     1  0.0000000  0.6508444  3
    999   1011   2087   2078     1  180.0000771  0.4184000  2
    999   1011   2087   2078     1  0.0000000  1.6024720  3
   1002   1008   2058   2049     1  180.0000771  0.4184000  2
   1002   1008   2058   2049     1  0.0000000  1.6024720  3
   1008   2058   2049   2040     1  180.0000771  0.4184000  2
   1008   2058   2049   2040     1  0.0000000  1.6024720  3
   1011   2087   2078   2069     1  180.0000771  0.4184000  2
   1011   2087   2078   2069     1  0.0000000  1.6024720  3
   1015   1016   1028   1040     1  0.0000000  0.6508444  3
   1015   1019   1031   1037     1  0.0000000  0.6508444  3
   1015   1022   1025   1034     1  0.0000000  0.6508444  3
   1016   1015   1019   1031     1  180.0000771  2.0083200  2
   1016   1015   1019   1031     1  0.0000000  1.2552000  3
   1016   1015   1022   1025     1  180.0000771  2.0083200  2
   1016   1015   1022   1025     1  0.0000000  1.2552000  3
   1016   1028   1040   2145     1  0.0000000  0.6508444  3
   1019   1015   1016   1028     1  180.0000771  2.0083200  2
   1019   1015   1016   1028     1  0.0000000  1.2552000  3
   1019   1015   1022   1025     1  180.0000771  2.0083200  2
   1019   1015   1022   1025     1  0.0000000  1.2552000  3
   1019   1031   1037   2116     1  0.0000000  0.6508444  3
   1022   1015   1016   1028     1  180.0000771  2.0083200  2
   1022   1015   1016   1028     1  0.0000000  1.2552000  3
   1022   1015   1019   1031     1  180.0000771  2.0083200  2
   1022   1015   1019   1031     1  0.0000000  1.2552000  3
   1022   1025   1034   1043     1  0.0000000  0.6508444  3
   1028   1040   2145   2136     1  180.0000771  0.4184000  2
   1028   1040   2145   2136     1  0.0000000  1.6024720  3
   1031   1037   2116   2107     1  180.0000771  0.4184000  2
   1031   1037   2116   2107     1  0.0000000  1.6024720  3
   1037   2116   2107   2098     1  180.0000771  0.4184000  2
   1037   2116   2107   2098     1  0.0000000  1.6024720  3
   1040   2145   2136   2127     1  180.0000771  0.4184000  2
   1040   2145   2136   2127     1  0.0000000  1.6024720  3
   1044   1045   1057   1069     1  0.0000000  0.6508444  3
   1044   1048   1060   1066     1  0.0000000  0.6508444  3
   1044   1051   1054   1063     1  0.0000000  0.6508444  3
   1045   1044   1048   1060     1  180.0000771  2.0083200  2
   1045   1044   1048   1060     1  0.0000000  1.2552000  3
   1045   1044   1051   1054     1  180.0000771  2.0083200  2
   1045   1044   1051   1054     1  0.0000000  1.2552000  3
   1045   1057   1069   2203     1  0.0000000  0.6508444  3
   1048   1044   1045   1057     1  180.0000771  2.0083200  2
   1048   1044   1045   1057     1  0.0000000  1.2552000  3
   1048   1044   1051   1054     1  180.0000771  2.0083200  2
   1048   1044   1051   1054     1  0.0000000  1.2552000  3
   1048   1060   1066   2174     1  0.0000000  0.6508444  3
   1051   1044   1045   1057     1  180.0000771  2.0083200  2
   1051   1044   1045   1057     1  0.0000000  1.2552000  3
   1051   1044   1048   1060     1  180.0000771  2.0083200  2
   1051   1044   1048   1060     1  0.0000000  1.2552000  3
   1051   1054   1063   1072     1  0.0000000  0.6508444  3
   1057   1069   2203   2194     1  180.0000771  0.4184000  2
   1057   1069   2203   2194     1  0.0000000  1.6024720  3
   1060   1066   2174   2165     1  180.0000771  0.4184000  2
   1060   1066   2174   2165     1  0.0000000  1.6024720  3
   1066   2174   2165   2156     1  180.0000771  0.4184000  2
   1066   2174   2165   2156     1  0.0000000  1.6024720  3
   1069   2203   2194   2185     1  180.0000771  0.4184000  2
   1069   2203   2194   2185     1  0.0000000  1.6024720  3
   1073   1074   1086   1098     1  0.0000000  0.6508444  3
   1073   1077   1089   1095     1  0.0000000  0.6508444  3
   1073   1080   1083   1092     1  0.0000000  0.6508444  3
   1074   1073   1077   1089     1  180.0000771  2.0083200  2
   1074   1073   1077   1089     1  0.0000000  1.2552000  3
   1074   1073   1080   1083     1  180.0000771  2.0083200  2
   1074   1073   1080   1083     1  0.0000000  1.2552000  3
   1074   1086   1098   2261     1  0.0000000  0.6508444  3
   1077   1073   1074   1086     1  180.0000771  2.0083200  2
   1077   1073   1074   1086     1  0.0000000  1.2552000  3
   1077   1073   1080   1083     1  180.0000771  2.0083200  2
   1077   1073   1080   1083     1  0.0000000  1.2552000  3
   1077   1089   1095   2232     1  0.0000000  0.6508444  3
   1080   1073   1074   1086     1  180.0000771  2.0083200  2
   1080   1073   1074   1086     1  0.0000000  1.2552000  3
   1080   1073   1077   1089     1  180.0000771  2.0083200  2
   1080   1073   1077   1089     1  0.0000000  1.2552000  3
   1080   1083   1092   1101     1  0.0000000  0.6508444  3
   1086   1098   2261   2252     1  180.0000771  0.4184000  2
   1086   1098   2261   2252     1  0.0000000  1.6024720  3
   1089   1095   2232   2223     1  180.0000771  0.4184000  2
   1089   1095   2232   2223     1  0.0000000  1.6024720  3
   1095   2232   2223   2214     1  180.0000771  0.4184000  2
   1095   2232   2223   2214     1  0.0000000  1.6024720  3
   1098   2261   2252   2243     1  180.0000771  0.4184000  2
   1098   2261   2252   2243     1  0.0000000  1.6024720  3
   1102   1103   1115   1127     1  0.0000000  0.6508444  3
   1102   1106   1118   1124     1  0.0000000  0.6508444  3
   1102   1109   1112   1121     1  0.0000000  0.6508444  3
   1103   1102   1106   1118     1  180.0000771  2.0083200  2
   1103   1102   1106   1118     1  0.0000000  1.2552000  3
   1103   1102   1109   1112     1  180.0000771  2.0083200  2
   1103   1102   1109   1112     1  0.0000000  1.2552000  3
   1103   1115   1127   2319     1  0.0000000  0.6508444  3
   1106   1102   1103   1115     1  180.0000771  2.0083200  2
   1106   1102   1103   1115     1  0.0000000  1.2552000  3
   1106   1102   1109   1112     1  180.0000771  2.0083200  2
   1106   1102   1109   1112     1  0.0000000  1.2552000  3
   1106   1118   1124   2290     1  0.0000000  0.6508444  3
   1109   1102   1103   1115     1  180.0000771  2.0083200  2
   1109   1102   1103   1115     1  0.0000000  1.2552000  3
   1109   1102   1106   1118     1  180.0000771  2.0083200  2
   1109   1102   1106   1118     1  0.0000000  1.2552000  3
   1109   1112   1121   1130     1  0.0000000  0.6508444  3
   1115   1127   2319   2310     1  180.0000771  0.4184000  2
   1115   1127   2319   2310     1  0.0000000  1.6024720  3
   1118   1124   2290   2281     1  180.0000771  0.4184000  2
   1118   1124   2290   2281     1  0.0000000  1.6024720  3
   1124   2290   2281   2272     1  180.0000771  0.4184000  2
   1124   2290   2281   2272     1  0.0000000  1.6024720  3
   1127   2319   2310   2301     1  180.0000771  0.4184000  2
   1127   2319   2310   2301     1  0.0000000  1.6024720  3
   1131   1132   1144   1156     1  0.0000000  0.6508444  3
   1131   1135   1147   1153     1  0.0000000  0.6508444  3
   1131   1138   1141   1150     1  0.0000000  0.6508444  3
   1132   1131   1135   1147     1  180.0000771  2.0083200  2
   1132   1131   1135   1147     1  0.0000000  1.2552000  3
   1132   1131   1138   1141     1  180.0000771  2.0083200  2
   1132   1131   1138   1141     1  0.0000000  1.2552000  3
   1132   1144   1156   2377     1  0.0000000  0.6508444  3
   1135   1131   1132   1144     1  180.0000771  2.0083200  2
   1135   1131   1132   1144     1  0.0000000  1.2552000  3
   1135   1131   1138   1141     1  180.0000771  2.0083200  2
   1135   1131   1138   1141     1  0.0000000  1.2552000  3
   1135   1147   1153   2348     1  0.0000000  0.6508444  3
   1138   1131   1132   1144     1  180.0000771  2.0083200  2
   1138   1131   1132   1144     1  0.0000000  1.2552000  3
   1138   1131   1135   1147     1  180.0000771  2.0083200  2
   1138   1131   1135   1147     1  0.0000000  1.2552000  3
   1138   1141   1150   1159     1  0.0000000  0.6508444  3
   1144   1156   2377   2368     1  180.0000771  0.4184000  2
   1144   1156   2377   2368     1  0.0000000  1.6024720  3
   1147   1153   2348   2339     1  180.0000771  0.4184000  2
   1147   1153   2348   2339     1  0.0000000  1.6024720  3
   1153   2348   2339   2330     1  180.0000771  0.4184000  2
   1153   2348   2339   2330     1  0.0000000  1.6024720  3
   1156   2377   2368   2359     1  180.0000771  0.4184000  2
   1156   2377   2368   2359     1  0.0000000  1.6024720  3
   1160   1161   1173   1185     1  0.0000000  0.6508444  3
   1160   1164   1176   1182     1  0.0000000  0.6508444  3
   1160   1167   1170   1179     1  0.0000000  0.6508444  3
   1161   1160   1164   1176     1  180.0000771  2.0083200  2
   1161   1160   1164   1176     1  0.0000000  1.2552000  3
   1161   1160   1167   1170     1  180.0000771  2.0083200  2
   1161   1160   1167   1170     1  0.0000000  1.2552000  3
   1161   1173   1185   2435     1  0.0000000  0.6508444  3
   1164   1160   1161   1173     1  180.0000771  2.0083200  2
   1164   1160   1161   1173     1  0.0000000  1.2552000  3
   1164   1160   1167   1170     1  180.0000771  2.0083200  2
   1164   1160   1167   1170     1  0.0000000  1.2552000  3
   1164   1176   1182   2406     1  0.0000000  0.6508444  3
   1167   1160   1161   1173     1  180.0000771  2.0083200  2
   1167   1160   1161   1173     1  0.0000000  1.2552000  3
   1167   1160   1164   1176     1  180.0000771  2.0083200  2
   1167   1160   1164   1176     1  0.0000000  1.2552000  3
   1167   1170   1179   1188     1  0.0000000  0.6508444  3
   1173   1185   2435   2426     1  180.0000771  0.4184000  2
   1173   1185   2435   2426     1  0.0000000  1.6024720  3
   1176   1182   2406   2397     1  180.0000771  0.4184000  2
   1176   1182   2406   2397     1  0.0000000  1.6024720  3
   1182   2406   2397   2388     1  180.0000771  0.4184000  2
   1182   2406   2397   2388     1  0.0000000  1.6024720  3
   1185   2435   2426   2417     1  180.0000771  0.4184000  2
   1185   2435   2426   2417     1  0.0000000  1.6024720  3
   1189   1190   1202   1214     1  0.0000000  0.6508444  3
   1189   1193   1205   1211     1  0.0000000  0.6508444  3
   1189   1196   1199   1208     1  0.0000000  0.6508444  3
   1190   1189   1193   1205     1  180.0000771  2.0083200  2
   1190   1189   1193   1205     1  0.0000000  1.2552000  3
   1190   1189   1196   1199     1  180.0000771  2.0083200  2
   1190   1189   1196   1199     1  0.0000000  1.2552000  3
   1190   1202   1214   2493     1  0.0000000  0.6508444  3
   1193   1189   1190   1202     1  180.0000771  2.0083200  2
   1193   1189   1190   1202     1  0.0000000  1.2552000  3
   1193   1189   1196   1199     1  180.0000771  2.0083200  2
   1193   1189   1196   1199     1  0.0000000  1.2552000  3
   1193   1205   1211   2464     1  0.0000000  0.6508444  3
   1196   1189   1190   1202     1  180.0000771  2.0083200  2
   1196   1189   1190   1202     1  0.0000000  1.2552000  3
   1196   1189   1193   1205     1  180.0000771  2.0083200  2
   1196   1189   1193   1205     1  0.0000000  1.2552000  3
   1196   1199   1208   1217     1  0.0000000  0.6508444  3
   1202   1214   2493   2484     1  180.0000771  0.4184000  2
   1202   1214   2493   2484     1  0.0000000  1.6024720  3
   1205   1211   2464   2455     1  180.0000771  0.4184000  2
   1205   1211   2464   2455     1  0.0000000  1.6024720  3
   1211   2464   2455   2446     1  180.0000771  0.4184000  2
   1211   2464   2455   2446     1  0.0000000  1.6024720  3
   1214   2493   2484   2475     1  180.0000771  0.4184000  2
   1214   2493   2484   2475     1  0.0000000  1.6024720  3
   1218   1219   1231   1243     1  0.0000000  0.6508444  3
   1218   1222   1234   1240     1  0.0000000  0.6508444  3
   1218   1225   1228   1237     1  0.0000000  0.6508444  3
   1219   1218   1222   1234     1  180.0000771  2.0083200  2
   1219   1218   1222   1234     1  0.0000000  1.2552000  3
   1219   1218   1225   1228     1  180.0000771  2.0083200  2
   1219   1218   1225   1228     1  0.0000000  1.2552000  3
   1219   1231   1243   2551     1  0.0000000  0.6508444  3
   1222   1218   1219   1231     1  180.0000771  2.0083200  2
   1222   1218   1219   1231     1  0.0000000  1.2552000  3
   1222   1218   1225   1228     1  180.0000771  2.0083200  2
   1222   1218   1225   1228     1  0.0000000  1.2552000  3
   1222   1234   1240   2522     1  0.0000000  0.6508444  3
   1225   1218   1219   1231     1  180.0000771  2.0083200  2
   1225   1218   1219   1231     1  0.0000000  1.2552000  3
   1225   1218   1222   1234     1  180.0000771  2.0083200  2
   1225   1218   1222   1234     1  0.0000000  1.2552000  3
   1225   1228   1237   1246     1  0.0000000  0.6508444  3
   1231   1243   2551   2542     1  180.0000771  0.4184000  2
   1231   1243   2551   2542     1  0.0000000  1.6024720  3
   1234   1240   2522   2513     1  180.0000771  0.4184000  2
   1234   1240   2522   2513     1  0.0000000  1.6024720  3
   1240   2522   2513   2504     1  180.0000771  0.4184000  2
   1240   2522   2513   2504     1  0.0000000  1.6024720  3
   1243   2551   2542   2533     1  180.0000771  0.4184000  2
   1243   2551   2542   2533     1  0.0000000  1.6024720  3
   1247   1248   1260   1272     1  0.0000000  0.6508444  3
   1247   1251   1263   1269     1  0.0000000  0.6508444  3
   1247   1254   1257   1266     1  0.0000000  0.6508444  3
   1248   1247   1251   1263     1  180.0000771  2.0083200  2
   1248   1247   1251   1263     1  0.0000000  1.2552000  3
   1248   1247   1254   1257     1  180.0000771  2.0083200  2
   1248   1247   1254   1257     1  0.0000000  1.2552000  3
   1248   1260   1272   2609     1  0.0000000  0.6508444  3
   1251   1247   1248   1260     1  180.0000771  2.0083200  2
   1251   1247   1248   1260     1  0.0000000  1.2552000  3
   1251   1247   1254   1257     1  180.0000771  2.0083200  2
   1251   1247   1254   1257     1  0.0000000  1.2552000  3
   1251   1263   1269   2580     1  0.0000000  0.6508444  3
   1254   1247   1248   1260     1  180.0000771  2.0083200  2
   1254   1247   1248   1260     1  0.0000000  1.2552000  3
   1254   1247   1251   1263     1  180.0000771  2.0083200  2
   1254   1247   1251   1263     1  0.0000000  1.2552000  3
   1254   1257   1266   1275     1  0.0000000  0.6508444  3
   1260   1272   2609   2600     1  180.0000771  0.4184000  2
   1260   1272   2609   2600     1  0.0000000  1.6024720  3
   1263   1269   2580   2571     1  180.0000771  0.4184000  2
   1263   1269   2580   2571     1  0.0000000  1.6024720  3
   1269   2580   2571   2562     1  180.0000771  0.4184000  2
   1269   2580   2571   2562     1  0.0000000  1.6024720  3
   1272   2609   2600   2591     1  180.0000771  0.4184000  2
   1272   2609   2600   2591     1  0.0000000  1.6024720  3
   1276   1277   1289   1301     1  0.0000000  0.6508444  3
   1276   1280   1292   1298     1  0.0000000  0.6508444  3
   1276   1283   1286   1295     1  0.0000000  0.6508444  3
   1277   1276   1280   1292     1  180.0000771  2.0083200  2
   1277   1276   1280   1292     1  0.0000000  1.2552000  3
   1277   1276   1283   1286     1  180.0000771  2.0083200  2
   1277   1276   1283   1286     1  0.0000000  1.2552000  3
   1277   1289   1301   2667     1  0.0000000  0.6508444  3
   1280   1276   1277   1289     1  180.0000771  2.0083200  2
   1280   1276   1277   1289     1  0.0000000  1.2552000  3
   1280   1276   1283   1286     1  180.0000771  2.0083200  2
   1280   1276   1283   1286     1  0.0000000  1.2552000  3
   1280   1292   1298   2638     1  0.0000000  0.6508444  3
   1283   1276   1277   1289     1  180.0000771  2.0083200  2
   1283   1276   1277   1289     1  0.0000000  1.2552000  3
   1283   1276   1280   1292     1  180.0000771  2.0083200  2
   1283   1276   1280   1292     1  0.0000000  1.2552000  3
   1283   1286   1295   1304     1  0.0000000  0.6508444  3
   1289   1301   2667   2658     1  180.0000771  0.4184000  2
   1289   1301   2667   2658     1  0.0000000  1.6024720  3
   1292   1298   2638   2629     1  180.0000771  0.4184000  2
   1292   1298   2638   2629     1  0.0000000  1.6024720  3
   1298   2638   2629   2620     1  180.0000771  0.4184000  2
   1298   2638   2629   2620     1  0.0000000  1.6024720  3
   1301   2667   2658   2649     1  180.0000771  0.4184000  2
   1301   2667   2658   2649     1  0.0000000  1.6024720  3
   1305   1306   1318   1330     1  0.0000000  0.6508444  3
   1305   1309   1321   1327     1  0.0000000  0.6508444  3
   1305   1312   1315   1324     1  0.0000000  0.6508444  3
   1306   1305   1309   1321     1  180.0000771  2.0083200  2
   1306   1305   1309   1321     1  0.0000000  1.2552000  3
   1306   1305   1312   1315     1  180.0000771  2.0083200  2
   1306   1305   1312   1315     1  0.0000000  1.2552000  3
   1306   1318   1330   2725     1  0.0000000  0.6508444  3
   1309   1305   1306   1318     1  180.0000771  2.0083200  2
   1309   1305   1306   1318     1  0.0000000  1.2552000  3
   1309   1305   1312   1315     1  180.0000771  2.0083200  2
   1309   1305   1312   1315     1  0.0000000  1.2552000  3
   1309   1321   1327   2696     1  0.0000000  0.6508444  3
   1312   1305   1306   1318     1  180.0000771  2.0083200  2
   1312   1305   1306   1318     1  0.0000000  1.2552000  3
   1312   1305   1309   1321     1  180.0000771  2.0083200  2
   1312   1305   1309   1321     1  0.0000000  1.2552000  3
   1312   1315   1324   1333     1  0.0000000  0.6508444  3
   1318   1330   2725   2716     1  180.0000771  0.4184000  2
   1318   1330   2725   2716     1  0.0000000  1.6024720  3
   1321   1327   2696   2687     1  180.0000771  0.4184000  2
   1321   1327   2696   2687     1  0.0000000  1.6024720  3
   1327   2696   2687   2678     1  180.0000771  0.4184000  2
   1327   2696   2687   2678     1  0.0000000  1.6024720  3
   1330   2725   2716   2707     1  180.0000771  0.4184000  2
   1330   2725   2716   2707     1  0.0000000  1.6024720  3
   1334   1335   1347   1359     1  0.0000000  0.6508444  3
   1334   1338   1350   1356     1  0.0000000  0.6508444  3
   1334   1341   1344   1353     1  0.0000000  0.6508444  3
   1335   1334   1338   1350     1  180.0000771  2.0083200  2
   1335   1334   1338   1350     1  0.0000000  1.2552000  3
   1335   1334   1341   1344     1  180.0000771  2.0083200  2
   1335   1334   1341   1344     1  0.0000000  1.2552000  3
   1335   1347   1359   2783     1  0.0000000  0.6508444  3
   1338   1334   1335   1347     1  180.0000771  2.0083200  2
   1338   1334   1335   1347     1  0.0000000  1.2552000  3
   1338   1334   1341   1344     1  180.0000771  2.0083200  2
   1338   1334   1341   1344     1  0.0000000  1.2552000  3
   1338   1350   1356   2754     1  0.0000000  0.6508444  3
   1341   1334   1335   1347     1  180.0000771  2.0083200  2
   1341   1334   1335   1347     1  0.0000000  1.2552000  3
   1341   1334   1338   1350     1  180.0000771  2.0083200  2
   1341   1334   1338   1350     1  0.0000000  1.2552000  3
   1341   1344   1353   1362     1  0.0000000  0.6508444  3
   1347   1359   2783   2774     1  180.0000771  0.4184000  2
   1347   1359   2783   2774     1  0.0000000  1.6024720  3
   1350   1356   2754   2745     1  180.0000771  0.4184000  2
   1350   1356   2754   2745     1  0.0000000  1.6024720  3
   1356   2754   2745   2736     1  180.0000771  0.4184000  2
   1356   2754   2745   2736     1  0.0000000  1.6024720  3
   1359   2783   2774   2765     1  180.0000771  0.4184000  2
   1359   2783   2774   2765     1  0.0000000  1.6024720  3
   1363   1364   1376   1388     1  0.0000000  0.6508444  3
   1363   1367   1379   1385     1  0.0000000  0.6508444  3
   1363   1370   1373   1382     1  0.0000000  0.6508444  3
   1364   1363   1367   1379     1  180.0000771  2.0083200  2
   1364   1363   1367   1379     1  0.0000000  1.2552000  3
   1364   1363   1370   1373     1  180.0000771  2.0083200  2
   1364   1363   1370   1373     1  0.0000000  1.2552000  3
   1364   1376   1388   2841     1  0.0000000  0.6508444  3
   1367   1363   1364   1376     1  180.0000771  2.0083200  2
   1367   1363   1364   1376     1  0.0000000  1.2552000  3
   1367   1363   1370   1373     1  180.0000771  2.0083200  2
   1367   1363   1370   1373     1  0.0000000  1.2552000  3
   1367   1379   1385   2812     1  0.0000000  0.6508444  3
   1370   1363   1364   1376     1  180.0000771  2.0083200  2
   1370   1363   1364   1376     1  0.0000000  1.2552000  3
   1370   1363   1367   1379     1  180.0000771  2.0083200  2
   1370   1363   1367   1379     1  0.0000000  1.2552000  3
   1370   1373   1382   1391     1  0.0000000  0.6508444  3
   1376   1388   2841   2832     1  180.0000771  0.4184000  2
   1376   1388   2841   2832     1  0.0000000  1.6024720  3
   1379   1385   2812   2803     1  180.0000771  0.4184000  2
   1379   1385   2812   2803     1  0.0000000  1.6024720  3
   1385   2812   2803   2794     1  180.0000771  0.4184000  2
   1385   2812   2803   2794     1  0.0000000  1.6024720  3
   1388   2841   2832   2823     1  180.0000771  0.4184000  2
   1388   2841   2832   2823     1  0.0000000  1.6024720  3
   1392   1393   1405   1417     1  0.0000000  0.6508444  3
   1392   1396   1408   1414     1  0.0000000  0.6508444  3
   1392   1399   1402   1411     1  0.0000000  0.6508444  3
   1393   1392   1396   1408     1  180.0000771  2.0083200  2
   1393   1392   1396   1408     1  0.0000000  1.2552000  3
   1393   1392   1399   1402     1  180.0000771  2.0083200  2
   1393   1392   1399   1402     1  0.0000000  1.2552000  3
   1393   1405   1417   2899     1  0.0000000  0.6508444  3
   1396   1392   1393   1405     1  180.0000771  2.0083200  2
   1396   1392   1393   1405     1  0.0000000  1.2552000  3
   1396   1392   1399   1402     1  180.0000771  2.0083200  2
   1396   1392   1399   1402     1  0.0000000  1.2552000  3
   1396   1408   1414   2870     1  0.0000000  0.6508444  3
   1399   1392   1393   1405     1  180.0000771  2.0083200  2
   1399   1392   1393   1405     1  0.0000000  1.2552000  3
   1399   1392   1396   1408     1  180.0000771  2.0083200  2
   1399   1392   1396   1408     1  0.0000000  1.2552000  3
   1399   1402   1411   1420     1  0.0000000  0.6508444  3
   1405   1417   2899   2890     1  180.0000771  0.4184000  2
   1405   1417   2899   2890     1  0.0000000  1.6024720  3
   1408   1414   2870   2861     1  180.0000771  0.4184000  2
   1408   1414   2870   2861     1  0.0000000  1.6024720  3
   1414   2870   2861   2852     1  180.0000771  0.4184000  2
   1414   2870   2861   2852     1  0.0000000  1.6024720  3
   1417   2899   2890   2881     1  180.0000771  0.4184000  2
   1417   2899   2890   2881     1  0.0000000  1.6024720  3
   1421   1422   1434   1446     1  0.0000000  0.6508444  3
   1421   1425   1437   1443     1  0.0000000  0.6508444  3
   1421   1428   1431   1440     1  0.0000000  0.6508444  3
   1422   1421   1425   1437     1  180.0000771  2.0083200  2
   1422   1421   1425   1437     1  0.0000000  1.2552000  3
   1422   1421   1428   1431     1  180.0000771  2.0083200  2
   1422   1421   1428   1431     1  0.0000000  1.2552000  3
   1422   1434   1446   2957     1  0.0000000  0.6508444  3
   1425   1421   1422   1434     1  180.0000771  2.0083200  2
   1425   1421   1422   1434     1  0.0000000  1.2552000  3
   1425   1421   1428   1431     1  180.0000771  2.0083200  2
   1425   1421   1428   1431     1  0.0000000  1.2552000  3
   1425   1437   1443   2928     1  0.0000000  0.6508444  3
   1428   1421   1422   1434     1  180.0000771  2.0083200  2
   1428   1421   1422   1434     1  0.0000000  1.2552000  3
   1428   1421   1425   1437     1  180.0000771  2.0083200  2
   1428   1421   1425   1437     1  0.0000000  1.2552000  3
   1428   1431   1440   1449     1  0.0000000  0.6508444  3
   1434   1446   2957   2948     1  180.0000771  0.4184000  2
   1434   1446   2957   2948     1  0.0000000  1.6024720  3
   1437   1443   2928   2919     1  180.0000771  0.4184000  2
   1437   1443   2928   2919     1  0.0000000  1.6024720  3
   1443   2928   2919   2910     1  180.0000771  0.4184000  2
   1443   2928   2919   2910     1  0.0000000  1.6024720  3
   1446   2957   2948   2939     1  180.0000771  0.4184000  2
   1446   2957   2948   2939     1  0.0000000  1.6024720  3
   1450   1451   1463   1475     1  0.0000000  0.6508444  3
   1450   1454   1466   1472     1  0.0000000  0.6508444  3
   1450   1457   1460   1469     1  0.0000000  0.6508444  3
   1451   1450   1454   1466     1  180.0000771  2.0083200  2
   1451   1450   1454   1466     1  0.0000000  1.2552000  3
   1451   1450   1457   1460     1  180.0000771  2.0083200  2
   1451   1450   1457   1460     1  0.0000000  1.2552000  3
   1451   1463   1475   3015     1  0.0000000  0.6508444  3
   1454   1450   1451   1463     1  180.0000771  2.0083200  2
   1454   1450   1451   1463     1  0.0000000  1.2552000  3
   1454   1450   1457   1460     1  180.0000771  2.0083200  2
   1454   1450   1457   1460     1  0.0000000  1.2552000  3
   1454   1466   1472   2986     1  0.0000000  0.6508444  3
   1457   1450   1451   1463     1  180.0000771  2.0083200  2
   1457   1450   1451   1463     1  0.0000000  1.2552000  3
   1457   1450   1454   1466     1  180.0000771  2.0083200  2
   1457   1450   1454   1466     1  0.0000000  1.2552000  3
   1457   1460   1469   1478     1  0.0000000  0.6508444  3
   1463   1475   3015   3006     1  180.0000771  0.4184000  2
   1463   1475   3015   3006     1  0.0000000  1.6024720  3
   1466   1472   2986   2977     1  180.0000771  0.4184000  2
   1466   1472   2986   2977     1  0.0000000  1.6024720  3
   1472   2986   2977   2968     1  180.0000771  0.4184000  2
   1472   2986   2977   2968     1  0.0000000  1.6024720  3
   1475   3015   3006   2997     1  180.0000771  0.4184000  2
   1475   3015   3006   2997     1  0.0000000  1.6024720  3
   1479   1480   1492   1504     1  0.0000000  0.6508444  3
   1479   1483   1495   1501     1  0.0000000  0.6508444  3
   1479   1486   1489   1498     1  0.0000000  0.6508444  3
   1480   1479   1483   1495     1  180.0000771  2.0083200  2
   1480   1479   1483   1495     1  0.0000000  1.2552000  3
   1480   1479   1486   1489     1  180.0000771  2.0083200  2
   1480   1479   1486   1489     1  0.0000000  1.2552000  3
   1480   1492   1504   3073     1  0.0000000  0.6508444  3
   1483   1479   1480   1492     1  180.0000771  2.0083200  2
   1483   1479   1480   1492     1  0.0000000  1.2552000  3
   1483   1479   1486   1489     1  180.0000771  2.0083200  2
   1483   1479   1486   1489     1  0.0000000  1.2552000  3
   1483   1495   1501   3044     1  0.0000000  0.6508444  3
   1486   1479   1480   1492     1  180.0000771  2.0083200  2
   1486   1479   1480   1492     1  0.0000000  1.2552000  3
   1486   1479   1483   1495     1  180.0000771  2.0083200  2
   1486   1479   1483   1495     1  0.0000000  1.2552000  3
   1486   1489   1498   1507     1  0.0000000  0.6508444  3
   1492   1504   3073   3064     1  180.0000771  0.4184000  2
   1492   1504   3073   3064     1  0.0000000  1.6024720  3
   1495   1501   3044   3035     1  180.0000771  0.4184000  2
   1495   1501   3044   3035     1  0.0000000  1.6024720  3
   1501   3044   3035   3026     1  180.0000771  0.4184000  2
   1501   3044   3035   3026     1  0.0000000  1.6024720  3
   1504   3073   3064   3055     1  180.0000771  0.4184000  2
   1504   3073   3064   3055     1  0.0000000  1.6024720  3
   1508   1509   1521   1533     1  0.0000000  0.6508444  3
   1508   1512   1524   1530     1  0.0000000  0.6508444  3
   1508   1515   1518   1527     1  0.0000000  0.6508444  3
   1509   1508   1512   1524     1  180.0000771  2.0083200  2
   1509   1508   1512   1524     1  0.0000000  1.2552000  3
   1509   1508   1515   1518     1  180.0000771  2.0083200  2
   1509   1508   1515   1518     1  0.0000000  1.2552000  3
   1509   1521   1533   3131     1  0.0000000  0.6508444  3
   1512   1508   1509   1521     1  180.0000771  2.0083200  2
   1512   1508   1509   1521     1  0.0000000  1.2552000  3
   1512   1508   1515   1518     1  180.0000771  2.0083200  2
   1512   1508   1515   1518     1  0.0000000  1.2552000  3
   1512   1524   1530   3102     1  0.0000000  0.6508444  3
   1515   1508   1509   1521     1  180.0000771  2.0083200  2
   1515   1508   1509   1521     1  0.0000000  1.2552000  3
   1515   1508   1512   1524     1  180.0000771  2.0083200  2
   1515   1508   1512   1524     1  0.0000000  1.2552000  3
   1515   1518   1527   1536     1  0.0000000  0.6508444  3
   1521   1533   3131   3122     1  180.0000771  0.4184000  2
   1521   1533   3131   3122     1  0.0000000  1.6024720  3
   1524   1530   3102   3093     1  180.0000771  0.4184000  2
   1524   1530   3102   3093     1  0.0000000  1.6024720  3
   1530   3102   3093   3084     1  180.0000771  0.4184000  2
   1530   3102   3093   3084     1  0.0000000  1.6024720  3
   1533   3131   3122   3113     1  180.0000771  0.4184000  2
   1533   3131   3122   3113     1  0.0000000  1.6024720  3
   1537   1538   1550   1562     1  0.0000000  0.6508444  3
   1537   1541   1553   1559     1  0.0000000  0.6508444  3
   1537   1544   1547   1556     1  0.0000000  0.6508444  3
   1538   1537   1541   1553     1  180.0000771  2.0083200  2
   1538   1537   1541   1553     1  0.0000000  1.2552000  3
   1538   1537   1544   1547     1  180.0000771  2.0083200  2
   1538   1537   1544   1547     1  0.0000000  1.2552000  3
   1538   1550   1562   3189     1  0.0000000  0.6508444  3
   1541   1537   1538   1550     1  180.0000771  2.0083200  2
   1541   1537   1538   1550     1  0.0000000  1.2552000  3
   1541   1537   1544   1547     1  180.0000771  2.0083200  2
   1541   1537   1544   1547     1  0.0000000  1.2552000  3
   1541   1553   1559   3160     1  0.0000000  0.6508444  3
   1544   1537   1538   1550     1  180.0000771  2.0083200  2
   1544   1537   1538   1550     1  0.0000000  1.2552000  3
   1544   1537   1541   1553     1  180.0000771  2.0083200  2
   1544   1537   1541   1553     1  0.0000000  1.2552000  3
   1544   1547   1556   1565     1  0.0000000  0.6508444  3
   1550   1562   3189   3180     1  180.0000771  0.4184000  2
   1550   1562   3189   3180     1  0.0000000  1.6024720  3
   1553   1559   3160   3151     1  180.0000771  0.4184000  2
   1553   1559   3160   3151     1  0.0000000  1.6024720  3
   1559   3160   3151   3142     1  180.0000771  0.4184000  2
   1559   3160   3151   3142     1  0.0000000  1.6024720  3
   1562   3189   3180   3171     1  180.0000771  0.4184000  2
   1562   3189   3180   3171     1  0.0000000  1.6024720  3
   1566   1567   1579   1591     1  0.0000000  0.6508444  3
   1566   1570   1582   1588     1  0.0000000  0.6508444  3
   1566   1573   1576   1585     1  0.0000000  0.6508444  3
   1567   1566   1570   1582     1  180.0000771  2.0083200  2
   1567   1566   1570   1582     1  0.0000000  1.2552000  3
   1567   1566   1573   1576     1  180.0000771  2.0083200  2
   1567   1566   1573   1576     1  0.0000000  1.2552000  3
   1567   1579   1591   3247     1  0.0000000  0.6508444  3
   1570   1566   1567   1579     1  180.0000771  2.0083200  2
   1570   1566   1567   1579     1  0.0000000  1.2552000  3
   1570   1566   1573   1576     1  180.0000771  2.0083200  2
   1570   1566   1573   1576     1  0.0000000  1.2552000  3
   1570   1582   1588   3218     1  0.0000000  0.6508444  3
   1573   1566   1567   1579     1  180.0000771  2.0083200  2
   1573   1566   1567   1579     1  0.0000000  1.2552000  3
   1573   1566   1570   1582     1  180.0000771  2.0083200  2
   1573   1566   1570   1582     1  0.0000000  1.2552000  3
   1573   1576   1585   1594     1  0.0000000  0.6508444  3
   1579   1591   3247   3238     1  180.0000771  0.4184000  2
   1579   1591   3247   3238     1  0.0000000  1.6024720  3
   1582   1588   3218   3209     1  180.0000771  0.4184000  2
   1582   1588   3218   3209     1  0.0000000  1.6024720  3
   1588   3218   3209   3200     1  180.0000771  0.4184000  2
   1588   3218   3209   3200     1  0.0000000  1.6024720  3
   1591   3247   3238   3229     1  180.0000771  0.4184000  2
   1591   3247   3238   3229     1  0.0000000  1.6024720  3
   1595   1596   1608   1620     1  0.0000000  0.6508444  3
   1595   1599   1611   1617     1  0.0000000  0.6508444  3
   1595   1602   1605   1614     1  0.0000000  0.6508444  3
   1596   1595   1599   1611     1  180.0000771  2.0083200  2
   1596   1595   1599   1611     1  0.0000000  1.2552000  3
   1596   1595   1602   1605     1  180.0000771  2.0083200  2
   1596   1595   1602   1605     1  0.0000000  1.2552000  3
   1596   1608   1620   3305     1  0.0000000  0.6508444  3
   1599   1595   1596   1608     1  180.0000771  2.0083200  2
   1599   1595   1596   1608     1  0.0000000  1.2552000  3
   1599   1595   1602   1605     1  180.0000771  2.0083200  2
   1599   1595   1602   1605     1  0.0000000  1.2552000  3
   1599   1611   1617   3276     1  0.0000000  0.6508444  3
   1602   1595   1596   1608     1  180.0000771  2.0083200  2
   1602   1595   1596   1608     1  0.0000000  1.2552000  3
   1602   1595   1599   1611     1  180.0000771  2.0083200  2
   1602   1595   1599   1611     1  0.0000000  1.2552000  3
   1602   1605   1614   1623     1  0.0000000  0.6508444  3
   1608   1620   3305   3296     1  180.0000771  0.4184000  2
   1608   1620   3305   3296     1  0.0000000  1.6024720  3
   1611   1617   3276   3267     1  180.0000771  0.4184000  2
   1611   1617   3276   3267     1  0.0000000  1.6024720  3
   1617   3276   3267   3258     1  180.0000771  0.4184000  2
   1617   3276   3267   3258     1  0.0000000  1.6024720  3
   1620   3305   3296   3287     1  180.0000771  0.4184000  2
   1620   3305   3296   3287     1  0.0000000  1.6024720  3
   1624   1625   1637   1649     1  0.0000000  0.6508444  3
   1624   1628   1640   1646     1  0.0000000  0.6508444  3
   1624   1631   1634   1643     1  0.0000000  0.6508444  3
   1625   1624   1628   1640     1  180.0000771  2.0083200  2
   1625   1624   1628   1640     1  0.0000000  1.2552000  3
   1625   1624   1631   1634     1  180.0000771  2.0083200  2
   1625   1624   1631   1634     1  0.0000000  1.2552000  3
   1625   1637   1649   3363     1  0.0000000  0.6508444  3
   1628   1624   1625   1637     1  180.0000771  2.0083200  2
   1628   1624   1625   1637     1  0.0000000  1.2552000  3
   1628   1624   1631   1634     1  180.0000771  2.0083200  2
   1628   1624   1631   1634     1  0.0000000  1.2552000  3
   1628   1640   1646   3334     1  0.0000000  0.6508444  3
   1631   1624   1625   1637     1  180.0000771  2.0083200  2
   1631   1624   1625   1637     1  0.0000000  1.2552000  3
   1631   1624   1628   1640     1  180.0000771  2.0083200  2
   1631   1624   1628   1640     1  0.0000000  1.2552000  3
   1631   1634   1643   1652     1  0.0000000  0.6508444  3
   1637   1649   3363   3354     1  180.0000771  0.4184000  2
   1637   1649   3363   3354     1  0.0000000  1.6024720  3
   1640   1646   3334   3325     1  180.0000771  0.4184000  2
   1640   1646   3334   3325     1  0.0000000  1.6024720  3
   1646   3334   3325   3316     1  180.0000771  0.4184000  2
   1646   3334   3325   3316     1  0.0000000  1.6024720  3
   1649   3363   3354   3345     1  180.0000771  0.4184000  2
   1649   3363   3354   3345     1  0.0000000  1.6024720  3
   1653   1654   1666   1678     1  0.0000000  0.6508444  3
   1653   1657   1669   1675     1  0.0000000  0.6508444  3
   1653   1660   1663   1672     1  0.0000000  0.6508444  3
   1654   1653   1657   1669     1  180.0000771  2.0083200  2
   1654   1653   1657   1669     1  0.0000000  1.2552000  3
   1654   1653   1660   1663     1  180.0000771  2.0083200  2
   1654   1653   1660   1663     1  0.0000000  1.2552000  3
   1654   1666   1678   3421     1  0.0000000  0.6508444  3
   1657   1653   1654   1666     1  180.0000771  2.0083200  2
   1657   1653   1654   1666     1  0.0000000  1.2552000  3
   1657   1653   1660   1663     1  180.0000771  2.0083200  2
   1657   1653   1660   1663     1  0.0000000  1.2552000  3
   1657   1669   1675   3392     1  0.0000000  0.6508444  3
   1660   1653   1654   1666     1  180.0000771  2.0083200  2
   1660   1653   1654   1666     1  0.0000000  1.2552000  3
   1660   1653   1657   1669     1  180.0000771  2.0083200  2
   1660   1653   1657   1669     1  0.0000000  1.2552000  3
   1660   1663   1672   1681     1  0.0000000  0.6508444  3
   1666   1678   3421   3412     1  180.0000771  0.4184000  2
   1666   1678   3421   3412     1  0.0000000  1.6024720  3
   1669   1675   3392   3383     1  180.0000771  0.4184000  2
   1669   1675   3392   3383     1  0.0000000  1.6024720  3
   1675   3392   3383   3374     1  180.0000771  0.4184000  2
   1675   3392   3383   3374     1  0.0000000  1.6024720  3
   1678   3421   3412   3403     1  180.0000771  0.4184000  2
   1678   3421   3412   3403     1  0.0000000  1.6024720  3
   1682   1683   1695   1707     1  0.0000000  0.6508444  3
   1682   1686   1698   1704     1  0.0000000  0.6508444  3
   1682   1689   1692   1701     1  0.0000000  0.6508444  3
   1683   1682   1686   1698     1  180.0000771  2.0083200  2
   1683   1682   1686   1698     1  0.0000000  1.2552000  3
   1683   1682   1689   1692     1  180.0000771  2.0083200  2
   1683   1682   1689   1692     1  0.0000000  1.2552000  3
   1683   1695   1707   3479     1  0.0000000  0.6508444  3
   1686   1682   1683   1695     1  180.0000771  2.0083200  2
   1686   1682   1683   1695     1  0.0000000  1.2552000  3
   1686   1682   1689   1692     1  180.0000771  2.0083200  2
   1686   1682   1689   1692     1  0.0000000  1.2552000  3
   1686   1698   1704   3450     1  0.0000000  0.6508444  3
   1689   1682   1683   1695     1  180.0000771  2.0083200  2
   1689   1682   1683   1695     1  0.0000000  1.2552000  3
   1689   1682   1686   1698     1  180.0000771  2.0083200  2
   1689   1682   1686   1698     1  0.0000000  1.2552000  3
   1689   1692   1701   1710     1  0.0000000  0.6508444  3
   1695   1707   3479   3470     1  180.0000771  0.4184000  2
   1695   1707   3479   3470     1  0.0000000  1.6024720  3
   1698   1704   3450   3441     1  180.0000771  0.4184000  2
   1698   1704   3450   3441     1  0.0000000  1.6024720  3
   1704   3450   3441   3432     1  180.0000771  0.4184000  2
   1704   3450   3441   3432     1  0.0000000  1.6024720  3
   1707   3479   3470   3461     1  180.0000771  0.4184000  2
   1707   3479   3470   3461     1  0.0000000  1.6024720  3
   1711   1712   1724   1736     1  0.0000000  0.6508444  3
   1711   1715   1727   1733     1  0.0000000  0.6508444  3
   1711   1718   1721   1730     1  0.0000000  0.6508444  3
   1712   1711   1715   1727     1  180.0000771  2.0083200  2
   1712   1711   1715   1727     1  0.0000000  1.2552000  3
   1712   1711   1718   1721     1  180.0000771  2.0083200  2
   1712   1711   1718   1721     1  0.0000000  1.2552000  3
   1712   1724   1736   3537     1  0.0000000  0.6508444  3
   1715   1711   1712   1724     1  180.0000771  2.0083200  2
   1715   1711   1712   1724     1  0.0000000  1.2552000  3
   1715   1711   1718   1721     1  180.0000771  2.0083200  2
   1715   1711   1718   1721     1  0.0000000  1.2552000  3
   1715   1727   1733   3508     1  0.0000000  0.6508444  3
   1718   1711   1712   1724     1  180.0000771  2.0083200  2
   1718   1711   1712   1724     1  0.0000000  1.2552000  3
   1718   1711   1715   1727     1  180.0000771  2.0083200  2
   1718   1711   1715   1727     1  0.0000000  1.2552000  3
   1718   1721   1730   1739     1  0.0000000  0.6508444  3
   1724   1736   3537   3528     1  180.0000771  0.4184000  2
   1724   1736   3537   3528     1  0.0000000  1.6024720  3
   1727   1733   3508   3499     1  180.0000771  0.4184000  2
   1727   1733   3508   3499     1  0.0000000  1.6024720  3
   1733   3508   3499   3490     1  180.0000771  0.4184000  2
   1733   3508   3499   3490     1  0.0000000  1.6024720  3
   1736   3537   3528   3519     1  180.0000771  0.4184000  2
   1736   3537   3528   3519     1  0.0000000  1.6024720  3
   1740   1741   1753   1765     1  0.0000000  0.6508444  3
   1740   1744   1756   1762     1  0.0000000  0.6508444  3
   1740   1747   1750   1759     1  0.0000000  0.6508444  3
   1741   1740   1744   1756     1  180.0000771  2.0083200  2
   1741   1740   1744   1756     1  0.0000000  1.2552000  3
   1741   1740   1747   1750     1  180.0000771  2.0083200  2
   1741   1740   1747   1750     1  0.0000000  1.2552000  3
   1741   1753   1765   3595     1  0.0000000  0.6508444  3
   1744   1740   1741   1753     1  180.0000771  2.0083200  2
   1744   1740   1741   1753     1  0.0000000  1.2552000  3
   1744   1740   1747   1750     1  180.0000771  2.0083200  2
   1744   1740   1747   1750     1  0.0000000  1.2552000  3
   1744   1756   1762   3566     1  0.0000000  0.6508444  3
   1747   1740   1741   1753     1  180.0000771  2.0083200  2
   1747   1740   1741   1753     1  0.0000000  1.2552000  3
   1747   1740   1744   1756     1  180.0000771  2.0083200  2
   1747   1740   1744   1756     1  0.0000000  1.2552000  3
   1747   1750   1759   1768     1  0.0000000  0.6508444  3
   1753   1765   3595   3586     1  180.0000771  0.4184000  2
   1753   1765   3595   3586     1  0.0000000  1.6024720  3
   1756   1762   3566   3557     1  180.0000771  0.4184000  2
   1756   1762   3566   3557     1  0.0000000  1.6024720  3
   1762   3566   3557   3548     1  180.0000771  0.4184000  2
   1762   3566   3557   3548     1  0.0000000  1.6024720  3
   1765   3595   3586   3577     1  180.0000771  0.4184000  2
   1765   3595   3586   3577     1  0.0000000  1.6024720  3
   1769   1770   1782   1794     1  0.0000000  0.6508444  3
   1769   1773   1785   1791     1  0.0000000  0.6508444  3
   1769   1776   1779   1788     1  0.0000000  0.6508444  3
   1770   1769   1773   1785     1  180.0000771  2.0083200  2
   1770   1769   1773   1785     1  0.0000000  1.2552000  3
   1770   1769   1776   1779     1  180.0000771  2.0083200  2
   1770   1769   1776   1779     1  0.0000000  1.2552000  3
   1770   1782   1794   3653     1  0.0000000  0.6508444  3
   1773   1769   1770   1782     1  180.0000771  2.0083200  2
   1773   1769   1770   1782     1  0.0000000  1.2552000  3
   1773   1769   1776   1779     1  180.0000771  2.0083200  2
   1773   1769   1776   1779     1  0.0000000  1.2552000  3
   1773   1785   1791   3624     1  0.0000000  0.6508444  3
   1776   1769   1770   1782     1  180.0000771  2.0083200  2
   1776   1769   1770   1782     1  0.0000000  1.2552000  3
   1776   1769   1773   1785     1  180.0000771  2.0083200  2
   1776   1769   1773   1785     1  0.0000000  1.2552000  3
   1776   1779   1788   1797     1  0.0000000  0.6508444  3
   1782   1794   3653   3644     1  180.0000771  0.4184000  2
   1782   1794   3653   3644     1  0.0000000  1.6024720  3
   1785   1791   3624   3615     1  180.0000771  0.4184000  2
   1785   1791   3624   3615     1  0.0000000  1.6024720  3
   1791   3624   3615   3606     1  180.0000771  0.4184000  2
   1791   3624   3615   3606     1  0.0000000  1.6024720  3
   1794   3653   3644   3635     1  180.0000771  0.4184000  2
   1794   3653   3644   3635     1  0.0000000  1.6024720  3
   1798   1799   1811   1823     1  0.0000000  0.6508444  3
   1798   1802   1814   1820     1  0.0000000  0.6508444  3
   1798   1805   1808   1817     1  0.0000000  0.6508444  3
   1799   1798   1802   1814     1  180.0000771  2.0083200  2
   1799   1798   1802   1814     1  0.0000000  1.2552000  3
   1799   1798   1805   1808     1  180.0000771  2.0083200  2
   1799   1798   1805   1808     1  0.0000000  1.2552000  3
   1799   1811   1823   3711     1  0.0000000  0.6508444  3
   1802   1798   1799   1811     1  180.0000771  2.0083200  2
   1802   1798   1799   1811     1  0.0000000  1.2552000  3
   1802   1798   1805   1808     1  180.0000771  2.0083200  2
   1802   1798   1805   1808     1  0.0000000  1.2552000  3
   1802   1814   1820   3682     1  0.0000000  0.6508444  3
   1805   1798   1799   1811     1  180.0000771  2.0083200  2
   1805   1798   1799   1811     1  0.0000000  1.2552000  3
   1805   1798   1802   1814     1  180.0000771  2.0083200  2
   1805   1798   1802   1814     1  0.0000000  1.2552000  3
   1805   1808   1817   1826     1  0.0000000  0.6508444  3
   1811   1823   3711   3702     1  180.0000771  0.4184000  2
   1811   1823   3711   3702     1  0.0000000  1.6024720  3
   1814   1820   3682   3673     1  180.0000771  0.4184000  2
   1814   1820   3682   3673     1  0.0000000  1.6024720  3
   1820   3682   3673   3664     1  180.0000771  0.4184000  2
   1820   3682   3673   3664     1  0.0000000  1.6024720  3
   1823   3711   3702   3693     1  180.0000771  0.4184000  2
   1823   3711   3702   3693     1  0.0000000  1.6024720  3
   1827   1828   1840   1852     1  0.0000000  0.6508444  3
   1827   1831   1843   1849     1  0.0000000  0.6508444  3
   1827   1834   1837   1846     1  0.0000000  0.6508444  3
   1828   1827   1831   1843     1  180.0000771  2.0083200  2
   1828   1827   1831   1843     1  0.0000000  1.2552000  3
   1828   1827   1834   1837     1  180.0000771  2.0083200  2
   1828   1827   1834   1837     1  0.0000000  1.2552000  3
   1828   1840   1852   3769     1  0.0000000  0.6508444  3
   1831   1827   1828   1840     1  180.0000771  2.0083200  2
   1831   1827   1828   1840     1  0.0000000  1.2552000  3
   1831   1827   1834   1837     1  180.0000771  2.0083200  2
   1831   1827   1834   1837     1  0.0000000  1.2552000  3
   1831   1843   1849   3740     1  0.0000000  0.6508444  3
   1834   1827   1828   1840     1  180.0000771  2.0083200  2
   1834   1827   1828   1840     1  0.0000000  1.2552000  3
   1834   1827   1831   1843     1  180.0000771  2.0083200  2
   1834   1827   1831   1843     1  0.0000000  1.2552000  3
   1834   1837   1846   1855     1  0.0000000  0.6508444  3
   1840   1852   3769   3760     1  180.0000771  0.4184000  2
   1840   1852   3769   3760     1  0.0000000  1.6024720  3
   1843   1849   3740   3731     1  180.0000771  0.4184000  2
   1843   1849   3740   3731     1  0.0000000  1.6024720  3
   1849   3740   3731   3722     1  180.0000771  0.4184000  2
   1849   3740   3731   3722     1  0.0000000  1.6024720  3
   1852   3769   3760   3751     1  180.0000771  0.4184000  2
   1852   3769   3760   3751     1  0.0000000  1.6024720  3
   1856   1857   1869   1881     1  0.0000000  0.6508444  3
   1856   1860   1872   1878     1  0.0000000  0.6508444  3
   1856   1863   1866   1875     1  0.0000000  0.6508444  3
   1857   1856   1860   1872     1  180.0000771  2.0083200  2
   1857   1856   1860   1872     1  0.0000000  1.2552000  3
   1857   1856   1863   1866     1  180.0000771  2.0083200  2
   1857   1856   1863   1866     1  0.0000000  1.2552000  3
   1857   1869   1881   3827     1  0.0000000  0.6508444  3
   1860   1856   1857   1869     1  180.0000771  2.0083200  2
   1860   1856   1857   1869     1  0.0000000  1.2552000  3
   1860   1856   1863   1866     1  180.0000771  2.0083200  2
   1860   1856   1863   1866     1  0.0000000  1.2552000  3
   1860   1872   1878   3798     1  0.0000000  0.6508444  3
   1863   1856   1857   1869     1  180.0000771  2.0083200  2
   1863   1856   1857   1869     1  0.0000000  1.2552000  3
   1863   1856   1860   1872     1  180.0000771  2.0083200  2
   1863   1856   1860   1872     1  0.0000000  1.2552000  3
   1863   1866   1875   1884     1  0.0000000  0.6508444  3
   1869   1881   3827   3818     1  180.0000771  0.4184000  2
   1869   1881   3827   3818     1  0.0000000  1.6024720  3
   1872   1878   3798   3789     1  180.0000771  0.4184000  2
   1872   1878   3798   3789     1  0.0000000  1.6024720  3
   1878   3798   3789   3780     1  180.0000771  0.4184000  2
   1878   3798   3789   3780     1  0.0000000  1.6024720  3
   1881   3827   3818   3809     1  180.0000771  0.4184000  2
   1881   3827   3818   3809     1  0.0000000  1.6024720  3
   1885   1886   1898   1910     1  0.0000000  0.6508444  3
   1885   1889   1901   1907     1  0.0000000  0.6508444  3
   1885   1892   1895   1904     1  0.0000000  0.6508444  3
   1886   1885   1889   1901     1  180.0000771  2.0083200  2
   1886   1885   1889   1901     1  0.0000000  1.2552000  3
   1886   1885   1892   1895     1  180.0000771  2.0083200  2
   1886   1885   1892   1895     1  0.0000000  1.2552000  3
   1886   1898   1910   3885     1  0.0000000  0.6508444  3
   1889   1885   1886   1898     1  180.0000771  2.0083200  2
   1889   1885   1886   1898     1  0.0000000  1.2552000  3
   1889   1885   1892   1895     1  180.0000771  2.0083200  2
   1889   1885   1892   1895     1  0.0000000  1.2552000  3
   1889   1901   1907   3856     1  0.0000000  0.6508444  3
   1892   1885   1886   1898     1  180.0000771  2.0083200  2
   1892   1885   1886   1898     1  0.0000000  1.2552000  3
   1892   1885   1889   1901     1  180.0000771  2.0083200  2
   1892   1885   1889   1901     1  0.0000000  1.2552000  3
   1892   1895   1904   1913     1  0.0000000  0.6508444  3
   1898   1910   3885   3876     1  180.0000771  0.4184000  2
   1898   1910   3885   3876     1  0.0000000  1.6024720  3
   1901   1907   3856   3847     1  180.0000771  0.4184000  2
   1901   1907   3856   3847     1  0.0000000  1.6024720  3
   1907   3856   3847   3838     1  180.0000771  0.4184000  2
   1907   3856   3847   3838     1  0.0000000  1.6024720  3
   1910   3885   3876   3867     1  180.0000771  0.4184000  2
   1910   3885   3876   3867     1  0.0000000  1.6024720  3
   1914   1915   1927   1939     1  0.0000000  0.6508444  3
   1914   1918   1930   1936     1  0.0000000  0.6508444  3
   1914   1921   1924   1933     1  0.0000000  0.6508444  3
   1915   1914   1918   1930     1  180.0000771  2.0083200  2
   1915   1914   1918   1930     1  0.0000000  1.2552000  3
   1915   1914   1921   1924     1  180.0000771  2.0083200  2
   1915   1914   1921   1924     1  0.0000000  1.2552000  3
   1915   1927   1939   3943     1  0.0000000  0.6508444  3
   1918   1914   1915   1927     1  180.0000771  2.0083200  2
   1918   1914   1915   1927     1  0.0000000  1.2552000  3
   1918   1914   1921   1924     1  180.0000771  2.0083200  2
   1918   1914   1921   1924     1  0.0000000  1.2552000  3
   1918   1930   1936   3914     1  0.0000000  0.6508444  3
   1921   1914   1915   1927     1  180.0000771  2.0083200  2
   1921   1914   1915   1927     1  0.0000000  1.2552000  3
   1921   1914   1918   1930     1  180.0000771  2.0083200  2
   1921   1914   1918   1930     1  0.0000000  1.2552000  3
   1921   1924   1933   1942     1  0.0000000  0.6508444  3
   1927   1939   3943   3934     1  180.0000771  0.4184000  2
   1927   1939   3943   3934     1  0.0000000  1.6024720  3
   1930   1936   3914   3905     1  180.0000771  0.4184000  2
   1930   1936   3914   3905     1  0.0000000  1.6024720  3
   1936   3914   3905   3896     1  180.0000771  0.4184000  2
   1936   3914   3905   3896     1  0.0000000  1.6024720  3
   1939   3943   3934   3925     1  180.0000771  0.4184000  2
   1939   3943   3934   3925     1  0.0000000  1.6024720  3
   1943   1944   1956   1968     1  0.0000000  0.6508444  3
   1943   1947   1959   1965     1  0.0000000  0.6508444  3
   1943   1950   1953   1962     1  0.0000000  0.6508444  3
   1944   1943   1947   1959     1  180.0000771  2.0083200  2
   1944   1943   1947   1959     1  0.0000000  1.2552000  3
   1944   1943   1950   1953     1  180.0000771  2.0083200  2
   1944   1943   1950   1953     1  0.0000000  1.2552000  3
   1944   1956   1968   4001     1  0.0000000  0.6508444  3
   1947   1943   1944   1956     1  180.0000771  2.0083200  2
   1947   1943   1944   1956     1  0.0000000  1.2552000  3
   1947   1943   1950   1953     1  180.0000771  2.0083200  2
   1947   1943   1950   1953     1  0.0000000  1.2552000  3
   1947   1959   1965   3972     1  0.0000000  0.6508444  3
   1950   1943   1944   1956     1  180.0000771  2.0083200  2
   1950   1943   1944   1956     1  0.0000000  1.2552000  3
   1950   1943   1947   1959     1  180.0000771  2.0083200  2
   1950   1943   1947   1959     1  0.0000000  1.2552000  3
   1950   1953   1962   1971     1  0.0000000  0.6508444  3
   1956   1968   4001   3992     1  180.0000771  0.4184000  2
   1956   1968   4001   3992     1  0.0000000  1.6024720  3
   1959   1965   3972   3963     1  180.0000771  0.4184000  2
   1959   1965   3972   3963     1  0.0000000  1.6024720  3
   1965   3972   3963   3954     1  180.0000771  0.4184000  2
   1965   3972   3963   3954     1  0.0000000  1.6024720  3
   1968   4001   3992   3983     1  180.0000771  0.4184000  2
   1968   4001   3992   3983     1  0.0000000  1.6024720  3
   1972   1973   1985   1997     1  0.0000000  0.6508444  3
   1972   1976   1988   1994     1  0.0000000  0.6508444  3
   1972   1979   1982   1991     1  0.0000000  0.6508444  3
   1973   1972   1976   1988     1  180.0000771  2.0083200  2
   1973   1972   1976   1988     1  0.0000000  1.2552000  3
   1973   1972   1979   1982     1  180.0000771  2.0083200  2
   1973   1972   1979   1982     1  0.0000000  1.2552000  3
   1973   1985   1997   4059     1  0.0000000  0.6508444  3
   1976   1972   1973   1985     1  180.0000771  2.0083200  2
   1976   1972   1973   1985     1  0.0000000  1.2552000  3
   1976   1972   1979   1982     1  180.0000771  2.0083200  2
   1976   1972   1979   1982     1  0.0000000  1.2552000  3
   1976   1988   1994   4030     1  0.0000000  0.6508444  3
   1979   1972   1973   1985     1  180.0000771  2.0083200  2
   1979   1972   1973   1985     1  0.0000000  1.2552000  3
   1979   1972   1976   1988     1  180.0000771  2.0083200  2
   1979   1972   1976   1988     1  0.0000000  1.2552000  3
   1979   1982   1991   2000     1  0.0000000  0.6508444  3
   1985   1997   4059   4050     1  180.0000771  0.4184000  2
   1985   1997   4059   4050     1  0.0000000  1.6024720  3
   1988   1994   4030   4021     1  180.0000771  0.4184000  2
   1988   1994   4030   4021     1  0.0000000  1.6024720  3
   1994   4030   4021   4012     1  180.0000771  0.4184000  2
   1994   4030   4021   4012     1  0.0000000  1.6024720  3
   1997   4059   4050   4041     1  180.0000771  0.4184000  2
   1997   4059   4050   4041     1  0.0000000  1.6024720  3
   2001   2002   2014   2026     1  0.0000000  0.6508444  3
   2001   2005   2017   2023     1  0.0000000  0.6508444  3
   2001   2008   2011   2020     1  0.0000000  0.6508444  3
   2002   2001   2005   2017     1  180.0000771  2.0083200  2
   2002   2001   2005   2017     1  0.0000000  1.2552000  3
   2002   2001   2008   2011     1  180.0000771  2.0083200  2
   2002   2001   2008   2011     1  0.0000000  1.2552000  3
   2002   2014   2026   4117     1  0.0000000  0.6508444  3
   2005   2001   2002   2014     1  180.0000771  2.0083200  2
   2005   2001   2002   2014     1  0.0000000  1.2552000  3
   2005   2001   2008   2011     1  180.0000771  2.0083200  2
   2005   2001   2008   2011     1  0.0000000  1.2552000  3
   2005   2017   2023   4088     1  0.0000000  0.6508444  3
   2008   2001   2002   2014     1  180.0000771  2.0083200  2
   2008   2001   2002   2014     1  0.0000000  1.2552000  3
   2008   2001   2005   2017     1  180.0000771  2.0083200  2
   2008   2001   2005   2017     1  0.0000000  1.2552000  3
   2008   2011   2020   2029     1  0.0000000  0.6508444  3
   2014   2026   4117   4108     1  180.0000771  0.4184000  2
   2014   2026   4117   4108     1  0.0000000  1.6024720  3
   2017   2023   4088   4079     1  180.0000771  0.4184000  2
   2017   2023   4088   4079     1  0.0000000  1.6024720  3
   2023   4088   4079   4070     1  180.0000771  0.4184000  2
   2023   4088   4079   4070     1  0.0000000  1.6024720  3
   2026   4117   4108   4099     1  180.0000771  0.4184000  2
   2026   4117   4108   4099     1  0.0000000  1.6024720  3
   2030   2031   2043   2055     1  0.0000000  0.6508444  3
   2030   2034   2046   2052     1  0.0000000  0.6508444  3
   2030   2037   2040   2049     1  0.0000000  0.6508444  3
   2031   2030   2034   2046     1  180.0000771  2.0083200  2
   2031   2030   2034   2046     1  0.0000000  1.2552000  3
   2031   2030   2037   2040     1  180.0000771  2.0083200  2
   2031   2030   2037   2040     1  0.0000000  1.2552000  3
   2031   2043   2055   4175     1  0.0000000  0.6508444  3
   2034   2030   2031   2043     1  180.0000771  2.0083200  2
   2034   2030   2031   2043     1  0.0000000  1.2552000  3
   2034   2030   2037   2040     1  180.0000771  2.0083200  2
   2034   2030   2037   2040     1  0.0000000  1.2552000  3
   2034   2046   2052   4146     1  0.0000000  0.6508444  3
   2037   2030   2031   2043     1  180.0000771  2.0083200  2
   2037   2030   2031   2043     1  0.0000000  1.2552000  3
   2037   2030   2034   2046     1  180.0000771  2.0083200  2
   2037   2030   2034   2046     1  0.0000000  1.2552000  3
   2037   2040   2049   2058     1  0.0000000  0.6508444  3
   2043   2055   4175   4166     1  180.0000771  0.4184000  2
   2043   2055   4175   4166     1  0.0000000  1.6024720  3
   2046   2052   4146   4137     1  180.0000771  0.4184000  2
   2046   2052   4146   4137     1  0.0000000  1.6024720  3
   2052   4146   4137   4128     1  180.0000771  0.4184000  2
   2052   4146   4137   4128     1  0.0000000  1.6024720  3
   2055   4175   4166   4157     1  180.0000771  0.4184000  2
   2055   4175   4166   4157     1  0.0000000  1.6024720  3
   2059   2060   2072   2084     1  0.0000000  0.6508444  3
   2059   2063   2075   2081     1  0.0000000  0.6508444  3
   2059   2066   2069   2078     1  0.0000000  0.6508444  3
   2060   2059   2063   2075     1  180.0000771  2.0083200  2
   2060   2059   2063   2075     1  0.0000000  1.2552000  3
   2060   2059   2066   2069     1  180.0000771  2.0083200  2
   2060   2059   2066   2069     1  0.0000000  1.2552000  3
   2060   2072   2084   4233     1  0.0000000  0.6508444  3
   2063   2059   2060   2072     1  180.0000771  2.0083200  2
   2063   2059   2060   2072     1  0.0000000  1.2552000  3
   2063   2059   2066   2069     1  180.0000771  2.0083200  2
   2063   2059   2066   2069     1  0.0000000  1.2552000  3
   2063   2075   2081   4204     1  0.0000000  0.6508444  3
   2066   2059   2060   2072     1  180.0000771  2.0083200  2
   2066   2059   2060   2072     1  0.0000000  1.2552000  3
   2066   2059   2063   2075     1  180.0000771  2.0083200  2
   2066   2059   2063   2075     1  0.0000000  1.2552000  3
   2066   2069   2078   2087     1  0.0000000  0.6508444  3
   2072   2084   4233   4224     1  180.0000771  0.4184000  2
   2072   2084   4233   4224     1  0.0000000  1.6024720  3
   2075   2081   4204   4195     1  180.0000771  0.4184000  2
   2075   2081   4204   4195     1  0.0000000  1.6024720  3
   2081   4204   4195   4186     1  180.0000771  0.4184000  2
   2081   4204   4195   4186     1  0.0000000  1.6024720  3
   2084   4233   4224   4215     1  180.0000771  0.4184000  2
   2084   4233   4224   4215     1  0.0000000  1.6024720  3
   2088   2089   2101   2113     1  0.0000000  0.6508444  3
   2088   2092   2104   2110     1  0.0000000  0.6508444  3
   2088   2095   2098   2107     1  0.0000000  0.6508444  3
   2089   2088   2092   2104     1  180.0000771  2.0083200  2
   2089   2088   2092   2104     1  0.0000000  1.2552000  3
   2089   2088   2095   2098     1  180.0000771  2.0083200  2
   2089   2088   2095   2098     1  0.0000000  1.2552000  3
   2089   2101   2113   4291     1  0.0000000  0.6508444  3
   2092   2088   2089   2101     1  180.0000771  2.0083200  2
   2092   2088   2089   2101     1  0.0000000  1.2552000  3
   2092   2088   2095   2098     1  180.0000771  2.0083200  2
   2092   2088   2095   2098     1  0.0000000  1.2552000  3
   2092   2104   2110   4262     1  0.0000000  0.6508444  3
   2095   2088   2089   2101     1  180.0000771  2.0083200  2
   2095   2088   2089   2101     1  0.0000000  1.2552000  3
   2095   2088   2092   2104     1  180.0000771  2.0083200  2
   2095   2088   2092   2104     1  0.0000000  1.2552000  3
   2095   2098   2107   2116     1  0.0000000  0.6508444  3
   2101   2113   4291   4282     1  180.0000771  0.4184000  2
   2101   2113   4291   4282     1  0.0000000  1.6024720  3
   2104   2110   4262   4253     1  180.0000771  0.4184000  2
   2104   2110   4262   4253     1  0.0000000  1.6024720  3
   2110   4262   4253   4244     1  180.0000771  0.4184000  2
   2110   4262   4253   4244     1  0.0000000  1.6024720  3
   2113   4291   4282   4273     1  180.0000771  0.4184000  2
   2113   4291   4282   4273     1  0.0000000  1.6024720  3
   2117   2118   2130   2142     1  0.0000000  0.6508444  3
   2117   2121   2133   2139     1  0.0000000  0.6508444  3
   2117   2124   2127   2136     1  0.0000000  0.6508444  3
   2118   2117   2121   2133     1  180.0000771  2.0083200  2
   2118   2117   2121   2133     1  0.0000000  1.2552000  3
   2118   2117   2124   2127     1  180.0000771  2.0083200  2
   2118   2117   2124   2127     1  0.0000000  1.2552000  3
   2118   2130   2142   4349     1  0.0000000  0.6508444  3
   2121   2117   2118   2130     1  180.0000771  2.0083200  2
   2121   2117   2118   2130     1  0.0000000  1.2552000  3
   2121   2117   2124   2127     1  180.0000771  2.0083200  2
   2121   2117   2124   2127     1  0.0000000  1.2552000  3
   2121   2133   2139   4320     1  0.0000000  0.6508444  3
   2124   2117   2118   2130     1  180.0000771  2.0083200  2
   2124   2117   2118   2130     1  0.0000000  1.2552000  3
   2124   2117   2121   2133     1  180.0000771  2.0083200  2
   2124   2117   2121   2133     1  0.0000000  1.2552000  3
   2124   2127   2136   2145     1  0.0000000  0.6508444  3
   2130   2142   4349   4340     1  180.0000771  0.4184000  2
   2130   2142   4349   4340     1  0.0000000  1.6024720  3
   2133   2139   4320   4311     1  180.0000771  0.4184000  2
   2133   2139   4320   4311     1  0.0000000  1.6024720  3
   2139   4320   4311   4302     1  180.0000771  0.4184000  2
   2139   4320   4311   4302     1  0.0000000  1.6024720  3
   2142   4349   4340   4331     1  180.0000771  0.4184000  2
   2142   4349   4340   4331     1  0.0000000  1.6024720  3
   2146   2147   2159   2171     1  0.0000000  0.6508444  3
   2146   2150   2162   2168     1  0.0000000  0.6508444  3
   2146   2153   2156   2165     1  0.0000000  0.6508444  3
   2147   2146   2150   2162     1  180.0000771  2.0083200  2
   2147   2146   2150   2162     1  0.0000000  1.2552000  3
   2147   2146   2153   2156     1  180.0000771  2.0083200  2
   2147   2146   2153   2156     1  0.0000000  1.2552000  3
   2147   2159   2171   4407     1  0.0000000  0.6508444  3
   2150   2146   2147   2159     1  180.0000771  2.0083200  2
   2150   2146   2147   2159     1  0.0000000  1.2552000  3
   2150   2146   2153   2156     1  180.0000771  2.0083200  2
   2150   2146   2153   2156     1  0.0000000  1.2552000  3
   2150   2162   2168   4378     1  0.0000000  0.6508444  3
   2153   2146   2147   2159     1  180.0000771  2.0083200  2
   2153   2146   2147   2159     1  0.0000000  1.2552000  3
   2153   2146   2150   2162     1  180.0000771  2.0083200  2
   2153   2146   2150   2162     1  0.0000000  1.2552000  3
   2153   2156   2165   2174     1  0.0000000  0.6508444  3
   2159   2171   4407   4398     1  180.0000771  0.4184000  2
   2159   2171   4407   4398     1  0.0000000  1.6024720  3
   2162   2168   4378   4369     1  180.0000771  0.4184000  2
   2162   2168   4378   4369     1  0.0000000  1.6024720  3
   2168   4378   4369   4360     1  180.0000771  0.4184000  2
   2168   4378   4369   4360     1  0.0000000  1.6024720  3
   2171   4407   4398   4389     1  180.0000771  0.4184000  2
   2171   4407   4398   4389     1  0.0000000  1.6024720  3
   2175   2176   2188   2200     1  0.0000000  0.6508444  3
   2175   2179   2191   2197     1  0.0000000  0.6508444  3
   2175   2182   2185   2194     1  0.0000000  0.6508444  3
   2176   2175   2179   2191     1  180.0000771  2.0083200  2
   2176   2175   2179   2191     1  0.0000000  1.2552000  3
   2176   2175   2182   2185     1  180.0000771  2.0083200  2
   2176   2175   2182   2185     1  0.0000000  1.2552000  3
   2176   2188   2200   4465     1  0.0000000  0.6508444  3
   2179   2175   2176   2188     1  180.0000771  2.0083200  2
   2179   2175   2176   2188     1  0.0000000  1.2552000  3
   2179   2175   2182   2185     1  180.0000771  2.0083200  2
   2179   2175   2182   2185     1  0.0000000  1.2552000  3
   2179   2191   2197   4436     1  0.0000000  0.6508444  3
   2182   2175   2176   2188     1  180.0000771  2.0083200  2
   2182   2175   2176   2188     1  0.0000000  1.2552000  3
   2182   2175   2179   2191     1  180.0000771  2.0083200  2
   2182   2175   2179   2191     1  0.0000000  1.2552000  3
   2182   2185   2194   2203     1  0.0000000  0.6508444  3
   2188   2200   4465   4456     1  180.0000771  0.4184000  2
   2188   2200   4465   4456     1  0.0000000  1.6024720  3
   2191   2197   4436   4427     1  180.0000771  0.4184000  2
   2191   2197   4436   4427     1  0.0000000  1.6024720  3
   2197   4436   4427   4418     1  180.0000771  0.4184000  2
   2197   4436   4427   4418     1  0.0000000  1.6024720  3
   2200   4465   4456   4447     1  180.0000771  0.4184000  2
   2200   4465   4456   4447     1  0.0000000  1.6024720  3
   2204   2205   2217   2229     1  0.0000000  0.6508444  3
   2204   2208   2220   2226     1  0.0000000  0.6508444  3
   2204   2211   2214   2223     1  0.0000000  0.6508444  3
   2205   2204   2208   2220     1  180.0000771  2.0083200  2
   2205   2204   2208   2220     1  0.0000000  1.2552000  3
   2205   2204   2211   2214     1  180.0000771  2.0083200  2
   2205   2204   2211   2214     1  0.0000000  1.2552000  3
   2205   2217   2229   4523     1  0.0000000  0.6508444  3
   2208   2204   2205   2217     1  180.0000771  2.0083200  2
   2208   2204   2205   2217     1  0.0000000  1.2552000  3
   2208   2204   2211   2214     1  180.0000771  2.0083200  2
   2208   2204   2211   2214     1  0.0000000  1.2552000  3
   2208   2220   2226   4494     1  0.0000000  0.6508444  3
   2211   2204   2205   2217     1  180.0000771  2.0083200  2
   2211   2204   2205   2217     1  0.0000000  1.2552000  3
   2211   2204   2208   2220     1  180.0000771  2.0083200  2
   2211   2204   2208   2220     1  0.0000000  1.2552000  3
   2211   2214   2223   2232     1  0.0000000  0.6508444  3
   2217   2229   4523   4514     1  180.0000771  0.4184000  2
   2217   2229   4523   4514     1  0.0000000  1.6024720  3
   2220   2226   4494   4485     1  180.0000771  0.4184000  2
   2220   2226   4494   4485     1  0.0000000  1.6024720  3
   2226   4494   4485   4476     1  180.0000771  0.4184000  2
   2226   4494   4485   4476     1  0.0000000  1.6024720  3
   2229   4523   4514   4505     1  180.0000771  0.4184000  2
   2229   4523   4514   4505     1  0.0000000  1.6024720  3
   2233   2234   2246   2258     1  0.0000000  0.6508444  3
   2233   2237   2249   2255     1  0.0000000  0.6508444  3
   2233   2240   2243   2252     1  0.0000000  0.6508444  3
   2234   2233   2237   2249     1  180.0000771  2.0083200  2
   2234   2233   2237   2249     1  0.0000000  1.2552000  3
   2234   2233   2240   2243     1  180.0000771  2.0083200  2
   2234   2233   2240   2243     1  0.0000000  1.2552000  3
   2234   2246   2258   4581     1  0.0000000  0.6508444  3
   2237   2233   2234   2246     1  180.0000771  2.0083200  2
   2237   2233   2234   2246     1  0.0000000  1.2552000  3
   2237   2233   2240   2243     1  180.0000771  2.0083200  2
   2237   2233   2240   2243     1  0.0000000  1.2552000  3
   2237   2249   2255   4552     1  0.0000000  0.6508444  3
   2240   2233   2234   2246     1  180.0000771  2.0083200  2
   2240   2233   2234   2246     1  0.0000000  1.2552000  3
   2240   2233   2237   2249     1  180.0000771  2.0083200  2
   2240   2233   2237   2249     1  0.0000000  1.2552000  3
   2240   2243   2252   2261     1  0.0000000  0.6508444  3
   2246   2258   4581   4572     1  180.0000771  0.4184000  2
   2246   2258   4581   4572     1  0.0000000  1.6024720  3
   2249   2255   4552   4543     1  180.0000771  0.4184000  2
   2249   2255   4552   4543     1  0.0000000  1.6024720  3
   2255   4552   4543   4534     1  180.0000771  0.4184000  2
   2255   4552   4543   4534     1  0.0000000  1.6024720  3
   2258   4581   4572   4563     1  180.0000771  0.4184000  2
   2258   4581   4572   4563     1  0.0000000  1.6024720  3
   2262   2263   2275   2287     1  0.0000000  0.6508444  3
   2262   2266   2278   2284     1  0.0000000  0.6508444  3
   2262   2269   2272   2281     1  0.0000000  0.6508444  3
   2263   2262   2266   2278     1  180.0000771  2.0083200  2
   2263   2262   2266   2278     1  0.0000000  1.2552000  3
   2263   2262   2269   2272     1  180.0000771  2.0083200  2
   2263   2262   2269   2272     1  0.0000000  1.2552000  3
   2263   2275   2287   4639     1  0.0000000  0.6508444  3
   2266   2262   2263   2275     1  180.0000771  2.0083200  2
   2266   2262   2263   2275     1  0.0000000  1.2552000  3
   2266   2262   2269   2272     1  180.0000771  2.0083200  2
   2266   2262   2269   2272     1  0.0000000  1.2552000  3
   2266   2278   2284   4610     1  0.0000000  0.6508444  3
   2269   2262   2263   2275     1  180.0000771  2.0083200  2
   2269   2262   2263   2275     1  0.0000000  1.2552000  3
   2269   2262   2266   2278     1  180.0000771  2.0083200  2
   2269   2262   2266   2278     1  0.0000000  1.2552000  3
   2269   2272   2281   2290     1  0.0000000  0.6508444  3
   2275   2287   4639   4630     1  180.0000771  0.4184000  2
   2275   2287   4639   4630     1  0.0000000  1.6024720  3
   2278   2284   4610   4601     1  180.0000771  0.4184000  2
   2278   2284   4610   4601     1  0.0000000  1.6024720  3
   2284   4610   4601   4592     1  180.0000771  0.4184000  2
   2284   4610   4601   4592     1  0.0000000  1.6024720  3
   2287   4639   4630   4621     1  180.0000771  0.4184000  2
   2287   4639   4630   4621     1  0.0000000  1.6024720  3
   2291   2292   2304   2316     1  0.0000000  0.6508444  3
   2291   2295   2307   2313     1  0.0000000  0.6508444  3
   2291   2298   2301   2310     1  0.0000000  0.6508444  3
   2292   2291   2295   2307     1  180.0000771  2.0083200  2
   2292   2291   2295   2307     1  0.0000000  1.2552000  3
   2292   2291   2298   2301     1  180.0000771  2.0083200  2
   2292   2291   2298   2301     1  0.0000000  1.2552000  3
   2292   2304   2316   4697     1  0.0000000  0.6508444  3
   2295   2291   2292   2304     1  180.0000771  2.0083200  2
   2295   2291   2292   2304     1  0.0000000  1.2552000  3
   2295   2291   2298   2301     1  180.0000771  2.0083200  2
   2295   2291   2298   2301     1  0.0000000  1.2552000  3
   2295   2307   2313   4668     1  0.0000000  0.6508444  3
   2298   2291   2292   2304     1  180.0000771  2.0083200  2
   2298   2291   2292   2304     1  0.0000000  1.2552000  3
   2298   2291   2295   2307     1  180.0000771  2.0083200  2
   2298   2291   2295   2307     1  0.0000000  1.2552000  3
   2298   2301   2310   2319     1  0.0000000  0.6508444  3
   2304   2316   4697   4688     1  180.0000771  0.4184000  2
   2304   2316   4697   4688     1  0.0000000  1.6024720  3
   2307   2313   4668   4659     1  180.0000771  0.4184000  2
   2307   2313   4668   4659     1  0.0000000  1.6024720  3
   2313   4668   4659   4650     1  180.0000771  0.4184000  2
   2313   4668   4659   4650     1  0.0000000  1.6024720  3
   2316   4697   4688   4679     1  180.0000771  0.4184000  2
   2316   4697   4688   4679     1  0.0000000  1.6024720  3
   2320   2321   2333   2345     1  0.0000000  0.6508444  3
   2320   2324   2336   2342     1  0.0000000  0.6508444  3
   2320   2327   2330   2339     1  0.0000000  0.6508444  3
   2321   2320   2324   2336     1  180.0000771  2.0083200  2
   2321   2320   2324   2336     1  0.0000000  1.2552000  3
   2321   2320   2327   2330     1  180.0000771  2.0083200  2
   2321   2320   2327   2330     1  0.0000000  1.2552000  3
   2321   2333   2345   4755     1  0.0000000  0.6508444  3
   2324   2320   2321   2333     1  180.0000771  2.0083200  2
   2324   2320   2321   2333     1  0.0000000  1.2552000  3
   2324   2320   2327   2330     1  180.0000771  2.0083200  2
   2324   2320   2327   2330     1  0.0000000  1.2552000  3
   2324   2336   2342   4726     1  0.0000000  0.6508444  3
   2327   2320   2321   2333     1  180.0000771  2.0083200  2
   2327   2320   2321   2333     1  0.0000000  1.2552000  3
   2327   2320   2324   2336     1  180.0000771  2.0083200  2
   2327   2320   2324   2336     1  0.0000000  1.2552000  3
   2327   2330   2339   2348     1  0.0000000  0.6508444  3
   2333   2345   4755   4746     1  180.0000771  0.4184000  2
   2333   2345   4755   4746     1  0.0000000  1.6024720  3
   2336   2342   4726   4717     1  180.0000771  0.4184000  2
   2336   2342   4726   4717     1  0.0000000  1.6024720  3
   2342   4726   4717   4708     1  180.0000771  0.4184000  2
   2342   4726   4717   4708     1  0.0000000  1.6024720  3
   2345   4755   4746   4737     1  180.0000771  0.4184000  2
   2345   4755   4746   4737     1  0.0000000  1.6024720  3
   2349   2350   2362   2374     1  0.0000000  0.6508444  3
   2349   2353   2365   2371     1  0.0000000  0.6508444  3
   2349   2356   2359   2368     1  0.0000000  0.6508444  3
   2350   2349   2353   2365     1  180.0000771  2.0083200  2
   2350   2349   2353   2365     1  0.0000000  1.2552000  3
   2350   2349   2356   2359     1  180.0000771  2.0083200  2
   2350   2349   2356   2359     1  0.0000000  1.2552000  3
   2350   2362   2374   4813     1  0.0000000  0.6508444  3
   2353   2349   2350   2362     1  180.0000771  2.0083200  2
   2353   2349   2350   2362     1  0.0000000  1.2552000  3
   2353   2349   2356   2359     1  180.0000771  2.0083200  2
   2353   2349   2356   2359     1  0.0000000  1.2552000  3
   2353   2365   2371   4784     1  0.0000000  0.6508444  3
   2356   2349   2350   2362     1  180.0000771  2.0083200  2
   2356   2349   2350   2362     1  0.0000000  1.2552000  3
   2356   2349   2353   2365     1  180.0000771  2.0083200  2
   2356   2349   2353   2365     1  0.0000000  1.2552000  3
   2356   2359   2368   2377     1  0.0000000  0.6508444  3
   2362   2374   4813   4804     1  180.0000771  0.4184000  2
   2362   2374   4813   4804     1  0.0000000  1.6024720  3
   2365   2371   4784   4775     1  180.0000771  0.4184000  2
   2365   2371   4784   4775     1  0.0000000  1.6024720  3
   2371   4784   4775   4766     1  180.0000771  0.4184000  2
   2371   4784   4775   4766     1  0.0000000  1.6024720  3
   2374   4813   4804   4795     1  180.0000771  0.4184000  2
   2374   4813   4804   4795     1  0.0000000  1.6024720  3
   2378   2379   2391   2403     1  0.0000000  0.6508444  3
   2378   2382   2394   2400     1  0.0000000  0.6508444  3
   2378   2385   2388   2397     1  0.0000000  0.6508444  3
   2379   2378   2382   2394     1  180.0000771  2.0083200  2
   2379   2378   2382   2394     1  0.0000000  1.2552000  3
   2379   2378   2385   2388     1  180.0000771  2.0083200  2
   2379   2378   2385   2388     1  0.0000000  1.2552000  3
   2379   2391   2403   4871     1  0.0000000  0.6508444  3
   2382   2378   2379   2391     1  180.0000771  2.0083200  2
   2382   2378   2379   2391     1  0.0000000  1.2552000  3
   2382   2378   2385   2388     1  180.0000771  2.0083200  2
   2382   2378   2385   2388     1  0.0000000  1.2552000  3
   2382   2394   2400   4842     1  0.0000000  0.6508444  3
   2385   2378   2379   2391     1  180.0000771  2.0083200  2
   2385   2378   2379   2391     1  0.0000000  1.2552000  3
   2385   2378   2382   2394     1  180.0000771  2.0083200  2
   2385   2378   2382   2394     1  0.0000000  1.2552000  3
   2385   2388   2397   2406     1  0.0000000  0.6508444  3
   2391   2403   4871   4862     1  180.0000771  0.4184000  2
   2391   2403   4871   4862     1  0.0000000  1.6024720  3
   2394   2400   4842   4833     1  180.0000771  0.4184000  2
   2394   2400   4842   4833     1  0.0000000  1.6024720  3
   2400   4842   4833   4824     1  180.0000771  0.4184000  2
   2400   4842   4833   4824     1  0.0000000  1.6024720  3
   2403   4871   4862   4853     1  180.0000771  0.4184000  2
   2403   4871   4862   4853     1  0.0000000  1.6024720  3
   2407   2408   2420   2432     1  0.0000000  0.6508444  3
   2407   2411   2423   2429     1  0.0000000  0.6508444  3
   2407   2414   2417   2426     1  0.0000000  0.6508444  3
   2408   2407   2411   2423     1  180.0000771  2.0083200  2
   2408   2407   2411   2423     1  0.0000000  1.2552000  3
   2408   2407   2414   2417     1  180.0000771  2.0083200  2
   2408   2407   2414   2417     1  0.0000000  1.2552000  3
   2408   2420   2432   4929     1  0.0000000  0.6508444  3
   2411   2407   2408   2420     1  180.0000771  2.0083200  2
   2411   2407   2408   2420     1  0.0000000  1.2552000  3
   2411   2407   2414   2417     1  180.0000771  2.0083200  2
   2411   2407   2414   2417     1  0.0000000  1.2552000  3
   2411   2423   2429   4900     1  0.0000000  0.6508444  3
   2414   2407   2408   2420     1  180.0000771  2.0083200  2
   2414   2407   2408   2420     1  0.0000000  1.2552000  3
   2414   2407   2411   2423     1  180.0000771  2.0083200  2
   2414   2407   2411   2423     1  0.0000000  1.2552000  3
   2414   2417   2426   2435     1  0.0000000  0.6508444  3
   2420   2432   4929   4920     1  180.0000771  0.4184000  2
   2420   2432   4929   4920     1  0.0000000  1.6024720  3
   2423   2429   4900   4891     1  180.0000771  0.4184000  2
   2423   2429   4900   4891     1  0.0000000  1.6024720  3
   2429   4900   4891   4882     1  180.0000771  0.4184000  2
   2429   4900   4891   4882     1  0.0000000  1.6024720  3
   2432   4929   4920   4911     1  180.0000771  0.4184000  2
   2432   4929   4920   4911     1  0.0000000  1.6024720  3
   2436   2437   2449   2461     1  0.0000000  0.6508444  3
   2436   2440   2452   2458     1  0.0000000  0.6508444  3
   2436   2443   2446   2455     1  0.0000000  0.6508444  3
   2437   2436   2440   2452     1  180.0000771  2.0083200  2
   2437   2436   2440   2452     1  0.0000000  1.2552000  3
   2437   2436   2443   2446     1  180.0000771  2.0083200  2
   2437   2436   2443   2446     1  0.0000000  1.2552000  3
   2437   2449   2461   4987     1  0.0000000  0.6508444  3
   2440   2436   2437   2449     1  180.0000771  2.0083200  2
   2440   2436   2437   2449     1  0.0000000  1.2552000  3
   2440   2436   2443   2446     1  180.0000771  2.0083200  2
   2440   2436   2443   2446     1  0.0000000  1.2552000  3
   2440   2452   2458   4958     1  0.0000000  0.6508444  3
   2443   2436   2437   2449     1  180.0000771  2.0083200  2
   2443   2436   2437   2449     1  0.0000000  1.2552000  3
   2443   2436   2440   2452     1  180.0000771  2.0083200  2
   2443   2436   2440   2452     1  0.0000000  1.2552000  3
   2443   2446   2455   2464     1  0.0000000  0.6508444  3
   2449   2461   4987   4978     1  180.0000771  0.4184000  2
   2449   2461   4987   4978     1  0.0000000  1.6024720  3
   2452   2458   4958   4949     1  180.0000771  0.4184000  2
   2452   2458   4958   4949     1  0.0000000  1.6024720  3
   2458   4958   4949   4940     1  180.0000771  0.4184000  2
   2458   4958   4949   4940     1  0.0000000  1.6024720  3
   2461   4987   4978   4969     1  180.0000771  0.4184000  2
   2461   4987   4978   4969     1  0.0000000  1.6024720  3
   2465   2466   2478   2490     1  0.0000000  0.6508444  3
   2465   2469   2481   2487     1  0.0000000  0.6508444  3
   2465   2472   2475   2484     1  0.0000000  0.6508444  3
   2466   2465   2469   2481     1  180.0000771  2.0083200  2
   2466   2465   2469   2481     1  0.0000000  1.2552000  3
   2466   2465   2472   2475     1  180.0000771  2.0083200  2
   2466   2465   2472   2475     1  0.0000000  1.2552000  3
   2466   2478   2490   5045     1  0.0000000  0.6508444  3
   2469   2465   2466   2478     1  180.0000771  2.0083200  2
   2469   2465   2466   2478     1  0.0000000  1.2552000  3
   2469   2465   2472   2475     1  180.0000771  2.0083200  2
   2469   2465   2472   2475     1  0.0000000  1.2552000  3
   2469   2481   2487   5016     1  0.0000000  0.6508444  3
   2472   2465   2466   2478     1  180.0000771  2.0083200  2
   2472   2465   2466   2478     1  0.0000000  1.2552000  3
   2472   2465   2469   2481     1  180.0000771  2.0083200  2
   2472   2465   2469   2481     1  0.0000000  1.2552000  3
   2472   2475   2484   2493     1  0.0000000  0.6508444  3
   2478   2490   5045   5036     1  180.0000771  0.4184000  2
   2478   2490   5045   5036     1  0.0000000  1.6024720  3
   2481   2487   5016   5007     1  180.0000771  0.4184000  2
   2481   2487   5016   5007     1  0.0000000  1.6024720  3
   2487   5016   5007   4998     1  180.0000771  0.4184000  2
   2487   5016   5007   4998     1  0.0000000  1.6024720  3
   2490   5045   5036   5027     1  180.0000771  0.4184000  2
   2490   5045   5036   5027     1  0.0000000  1.6024720  3
   2494   2495   2507   2519     1  0.0000000  0.6508444  3
   2494   2498   2510   2516     1  0.0000000  0.6508444  3
   2494   2501   2504   2513     1  0.0000000  0.6508444  3
   2495   2494   2498   2510     1  180.0000771  2.0083200  2
   2495   2494   2498   2510     1  0.0000000  1.2552000  3
   2495   2494   2501   2504     1  180.0000771  2.0083200  2
   2495   2494   2501   2504     1  0.0000000  1.2552000  3
   2495   2507   2519   5103     1  0.0000000  0.6508444  3
   2498   2494   2495   2507     1  180.0000771  2.0083200  2
   2498   2494   2495   2507     1  0.0000000  1.2552000  3
   2498   2494   2501   2504     1  180.0000771  2.0083200  2
   2498   2494   2501   2504     1  0.0000000  1.2552000  3
   2498   2510   2516   5074     1  0.0000000  0.6508444  3
   2501   2494   2495   2507     1  180.0000771  2.0083200  2
   2501   2494   2495   2507     1  0.0000000  1.2552000  3
   2501   2494   2498   2510     1  180.0000771  2.0083200  2
   2501   2494   2498   2510     1  0.0000000  1.2552000  3
   2501   2504   2513   2522     1  0.0000000  0.6508444  3
   2507   2519   5103   5094     1  180.0000771  0.4184000  2
   2507   2519   5103   5094     1  0.0000000  1.6024720  3
   2510   2516   5074   5065     1  180.0000771  0.4184000  2
   2510   2516   5074   5065     1  0.0000000  1.6024720  3
   2516   5074   5065   5056     1  180.0000771  0.4184000  2
   2516   5074   5065   5056     1  0.0000000  1.6024720  3
   2519   5103   5094   5085     1  180.0000771  0.4184000  2
   2519   5103   5094   5085     1  0.0000000  1.6024720  3
   2523   2524   2536   2548     1  0.0000000  0.6508444  3
   2523   2527   2539   2545     1  0.0000000  0.6508444  3
   2523   2530   2533   2542     1  0.0000000  0.6508444  3
   2524   2523   2527   2539     1  180.0000771  2.0083200  2
   2524   2523   2527   2539     1  0.0000000  1.2552000  3
   2524   2523   2530   2533     1  180.0000771  2.0083200  2
   2524   2523   2530   2533     1  0.0000000  1.2552000  3
   2524   2536   2548   5161     1  0.0000000  0.6508444  3
   2527   2523   2524   2536     1  180.0000771  2.0083200  2
   2527   2523   2524   2536     1  0.0000000  1.2552000  3
   2527   2523   2530   2533     1  180.0000771  2.0083200  2
   2527   2523   2530   2533     1  0.0000000  1.2552000  3
   2527   2539   2545   5132     1  0.0000000  0.6508444  3
   2530   2523   2524   2536     1  180.0000771  2.0083200  2
   2530   2523   2524   2536     1  0.0000000  1.2552000  3
   2530   2523   2527   2539     1  180.0000771  2.0083200  2
   2530   2523   2527   2539     1  0.0000000  1.2552000  3
   2530   2533   2542   2551     1  0.0000000  0.6508444  3
   2536   2548   5161   5152     1  180.0000771  0.4184000  2
   2536   2548   5161   5152     1  0.0000000  1.6024720  3
   2539   2545   5132   5123     1  180.0000771  0.4184000  2
   2539   2545   5132   5123     1  0.0000000  1.6024720  3
   2545   5132   5123   5114     1  180.0000771  0.4184000  2
   2545   5132   5123   5114     1  0.0000000  1.6024720  3
   2548   5161   5152   5143     1  180.0000771  0.4184000  2
   2548   5161   5152   5143     1  0.0000000  1.6024720  3
   2552   2553   2565   2577     1  0.0000000  0.6508444  3
   2552   2556   2568   2574     1  0.0000000  0.6508444  3
   2552   2559   2562   2571     1  0.0000000  0.6508444  3
   2553   2552   2556   2568     1  180.0000771  2.0083200  2
   2553   2552   2556   2568     1  0.0000000  1.2552000  3
   2553   2552   2559   2562     1  180.0000771  2.0083200  2
   2553   2552   2559   2562     1  0.0000000  1.2552000  3
   2553   2565   2577   5219     1  0.0000000  0.6508444  3
   2556   2552   2553   2565     1  180.0000771  2.0083200  2
   2556   2552   2553   2565     1  0.0000000  1.2552000  3
   2556   2552   2559   2562     1  180.0000771  2.0083200  2
   2556   2552   2559   2562     1  0.0000000  1.2552000  3
   2556   2568   2574   5190     1  0.0000000  0.6508444  3
   2559   2552   2553   2565     1  180.0000771  2.0083200  2
   2559   2552   2553   2565     1  0.0000000  1.2552000  3
   2559   2552   2556   2568     1  180.0000771  2.0083200  2
   2559   2552   2556   2568     1  0.0000000  1.2552000  3
   2559   2562   2571   2580     1  0.0000000  0.6508444  3
   2565   2577   5219   5210     1  180.0000771  0.4184000  2
   2565   2577   5219   5210     1  0.0000000  1.6024720  3
   2568   2574   5190   5181     1  180.0000771  0.4184000  2
   2568   2574   5190   5181     1  0.0000000  1.6024720  3
   2574   5190   5181   5172     1  180.0000771  0.4184000  2
   2574   5190   5181   5172     1  0.0000000  1.6024720  3
   2577   5219   5210   5201     1  180.0000771  0.4184000  2
   2577   5219   5210   5201     1  0.0000000  1.6024720  3
   2581   2582   2594   2606     1  0.0000000  0.6508444  3
   2581   2585   2597   2603     1  0.0000000  0.6508444  3
   2581   2588   2591   2600     1  0.0000000  0.6508444  3
   2582   2581   2585   2597     1  180.0000771  2.0083200  2
   2582   2581   2585   2597     1  0.0000000  1.2552000  3
   2582   2581   2588   2591     1  180.0000771  2.0083200  2
   2582   2581   2588   2591     1  0.0000000  1.2552000  3
   2582   2594   2606   5277     1  0.0000000  0.6508444  3
   2585   2581   2582   2594     1  180.0000771  2.0083200  2
   2585   2581   2582   2594     1  0.0000000  1.2552000  3
   2585   2581   2588   2591     1  180.0000771  2.0083200  2
   2585   2581   2588   2591     1  0.0000000  1.2552000  3
   2585   2597   2603   5248     1  0.0000000  0.6508444  3
   2588   2581   2582   2594     1  180.0000771  2.0083200  2
   2588   2581   2582   2594     1  0.0000000  1.2552000  3
   2588   2581   2585   2597     1  180.0000771  2.0083200  2
   2588   2581   2585   2597     1  0.0000000  1.2552000  3
   2588   2591   2600   2609     1  0.0000000  0.6508444  3
   2594   2606   5277   5268     1  180.0000771  0.4184000  2
   2594   2606   5277   5268     1  0.0000000  1.6024720  3
   2597   2603   5248   5239     1  180.0000771  0.4184000  2
   2597   2603   5248   5239     1  0.0000000  1.6024720  3
   2603   5248   5239   5230     1  180.0000771  0.4184000  2
   2603   5248   5239   5230     1  0.0000000  1.6024720  3
   2606   5277   5268   5259     1  180.0000771  0.4184000  2
   2606   5277   5268   5259     1  0.0000000  1.6024720  3
   2610   2611   2623   2635     1  0.0000000  0.6508444  3
   2610   2614   2626   2632     1  0.0000000  0.6508444  3
   2610   2617   2620   2629     1  0.0000000  0.6508444  3
   2611   2610   2614   2626     1  180.0000771  2.0083200  2
   2611   2610   2614   2626     1  0.0000000  1.2552000  3
   2611   2610   2617   2620     1  180.0000771  2.0083200  2
   2611   2610   2617   2620     1  0.0000000  1.2552000  3
   2611   2623   2635   5335     1  0.0000000  0.6508444  3
   2614   2610   2611   2623     1  180.0000771  2.0083200  2
   2614   2610   2611   2623     1  0.0000000  1.2552000  3
   2614   2610   2617   2620     1  180.0000771  2.0083200  2
   2614   2610   2617   2620     1  0.0000000  1.2552000  3
   2614   2626   2632   5306     1  0.0000000  0.6508444  3
   2617   2610   2611   2623     1  180.0000771  2.0083200  2
   2617   2610   2611   2623     1  0.0000000  1.2552000  3
   2617   2610   2614   2626     1  180.0000771  2.0083200  2
   2617   2610   2614   2626     1  0.0000000  1.2552000  3
   2617   2620   2629   2638     1  0.0000000  0.6508444  3
   2623   2635   5335   5326     1  180.0000771  0.4184000  2
   2623   2635   5335   5326     1  0.0000000  1.6024720  3
   2626   2632   5306   5297     1  180.0000771  0.4184000  2
   2626   2632   5306   5297     1  0.0000000  1.6024720  3
   2632   5306   5297   5288     1  180.0000771  0.4184000  2
   2632   5306   5297   5288     1  0.0000000  1.6024720  3
   2635   5335   5326   5317     1  180.0000771  0.4184000  2
   2635   5335   5326   5317     1  0.0000000  1.6024720  3
   2639   2640   2652   2664     1  0.0000000  0.6508444  3
   2639   2643   2655   2661     1  0.0000000  0.6508444  3
   2639   2646   2649   2658     1  0.0000000  0.6508444  3
   2640   2639   2643   2655     1  180.0000771  2.0083200  2
   2640   2639   2643   2655     1  0.0000000  1.2552000  3
   2640   2639   2646   2649     1  180.0000771  2.0083200  2
   2640   2639   2646   2649     1  0.0000000  1.2552000  3
   2640   2652   2664   5393     1  0.0000000  0.6508444  3
   2643   2639   2640   2652     1  180.0000771  2.0083200  2
   2643   2639   2640   2652     1  0.0000000  1.2552000  3
   2643   2639   2646   2649     1  180.0000771  2.0083200  2
   2643   2639   2646   2649     1  0.0000000  1.2552000  3
   2643   2655   2661   5364     1  0.0000000  0.6508444  3
   2646   2639   2640   2652     1  180.0000771  2.0083200  2
   2646   2639   2640   2652     1  0.0000000  1.2552000  3
   2646   2639   2643   2655     1  180.0000771  2.0083200  2
   2646   2639   2643   2655     1  0.0000000  1.2552000  3
   2646   2649   2658   2667     1  0.0000000  0.6508444  3
   2652   2664   5393   5384     1  180.0000771  0.4184000  2
   2652   2664   5393   5384     1  0.0000000  1.6024720  3
   2655   2661   5364   5355     1  180.0000771  0.4184000  2
   2655   2661   5364   5355     1  0.0000000  1.6024720  3
   2661   5364   5355   5346     1  180.0000771  0.4184000  2
   2661   5364   5355   5346     1  0.0000000  1.6024720  3
   2664   5393   5384   5375     1  180.0000771  0.4184000  2
   2664   5393   5384   5375     1  0.0000000  1.6024720  3
   2668   2669   2681   2693     1  0.0000000  0.6508444  3
   2668   2672   2684   2690     1  0.0000000  0.6508444  3
   2668   2675   2678   2687     1  0.0000000  0.6508444  3
   2669   2668   2672   2684     1  180.0000771  2.0083200  2
   2669   2668   2672   2684     1  0.0000000  1.2552000  3
   2669   2668   2675   2678     1  180.0000771  2.0083200  2
   2669   2668   2675   2678     1  0.0000000  1.2552000  3
   2669   2681   2693   5451     1  0.0000000  0.6508444  3
   2672   2668   2669   2681     1  180.0000771  2.0083200  2
   2672   2668   2669   2681     1  0.0000000  1.2552000  3
   2672   2668   2675   2678     1  180.0000771  2.0083200  2
   2672   2668   2675   2678     1  0.0000000  1.2552000  3
   2672   2684   2690   5422     1  0.0000000  0.6508444  3
   2675   2668   2669   2681     1  180.0000771  2.0083200  2
   2675   2668   2669   2681     1  0.0000000  1.2552000  3
   2675   2668   2672   2684     1  180.0000771  2.0083200  2
   2675   2668   2672   2684     1  0.0000000  1.2552000  3
   2675   2678   2687   2696     1  0.0000000  0.6508444  3
   2681   2693   5451   5442     1  180.0000771  0.4184000  2
   2681   2693   5451   5442     1  0.0000000  1.6024720  3
   2684   2690   5422   5413     1  180.0000771  0.4184000  2
   2684   2690   5422   5413     1  0.0000000  1.6024720  3
   2690   5422   5413   5404     1  180.0000771  0.4184000  2
   2690   5422   5413   5404     1  0.0000000  1.6024720  3
   2693   5451   5442   5433     1  180.0000771  0.4184000  2
   2693   5451   5442   5433     1  0.0000000  1.6024720  3
   2697   2698   2710   2722     1  0.0000000  0.6508444  3
   2697   2701   2713   2719     1  0.0000000  0.6508444  3
   2697   2704   2707   2716     1  0.0000000  0.6508444  3
   2698   2697   2701   2713     1  180.0000771  2.0083200  2
   2698   2697   2701   2713     1  0.0000000  1.2552000  3
   2698   2697   2704   2707     1  180.0000771  2.0083200  2
   2698   2697   2704   2707     1  0.0000000  1.2552000  3
   2698   2710   2722   5509     1  0.0000000  0.6508444  3
   2701   2697   2698   2710     1  180.0000771  2.0083200  2
   2701   2697   2698   2710     1  0.0000000  1.2552000  3
   2701   2697   2704   2707     1  180.0000771  2.0083200  2
   2701   2697   2704   2707     1  0.0000000  1.2552000  3
   2701   2713   2719   5480     1  0.0000000  0.6508444  3
   2704   2697   2698   2710     1  180.0000771  2.0083200  2
   2704   2697   2698   2710     1  0.0000000  1.2552000  3
   2704   2697   2701   2713     1  180.0000771  2.0083200  2
   2704   2697   2701   2713     1  0.0000000  1.2552000  3
   2704   2707   2716   2725     1  0.0000000  0.6508444  3
   2710   2722   5509   5500     1  180.0000771  0.4184000  2
   2710   2722   5509   5500     1  0.0000000  1.6024720  3
   2713   2719   5480   5471     1  180.0000771  0.4184000  2
   2713   2719   5480   5471     1  0.0000000  1.6024720  3
   2719   5480   5471   5462     1  180.0000771  0.4184000  2
   2719   5480   5471   5462     1  0.0000000  1.6024720  3
   2722   5509   5500   5491     1  180.0000771  0.4184000  2
   2722   5509   5500   5491     1  0.0000000  1.6024720  3
   2726   2727   2739   2751     1  0.0000000  0.6508444  3
   2726   2730   2742   2748     1  0.0000000  0.6508444  3
   2726   2733   2736   2745     1  0.0000000  0.6508444  3
   2727   2726   2730   2742     1  180.0000771  2.0083200  2
   2727   2726   2730   2742     1  0.0000000  1.2552000  3
   2727   2726   2733   2736     1  180.0000771  2.0083200  2
   2727   2726   2733   2736     1  0.0000000  1.2552000  3
   2727   2739   2751   5567     1  0.0000000  0.6508444  3
   2730   2726   2727   2739     1  180.0000771  2.0083200  2
   2730   2726   2727   2739     1  0.0000000  1.2552000  3
   2730   2726   2733   2736     1  180.0000771  2.0083200  2
   2730   2726   2733   2736     1  0.0000000  1.2552000  3
   2730   2742   2748   5538     1  0.0000000  0.6508444  3
   2733   2726   2727   2739     1  180.0000771  2.0083200  2
   2733   2726   2727   2739     1  0.0000000  1.2552000  3
   2733   2726   2730   2742     1  180.0000771  2.0083200  2
   2733   2726   2730   2742     1  0.0000000  1.2552000  3
   2733   2736   2745   2754     1  0.0000000  0.6508444  3
   2739   2751   5567   5539     1  180.0000771  0.4184000  2
   2739   2751   5567   5539     1  0.0000000  1.6024720  3
   2742   2748   5538   5510     1  180.0000771  0.4184000  2
   2742   2748   5538   5510     1  0.0000000  1.6024720  3
   2748   5538   5510   5513     1  180.0000771  0.4184000  2
   2748   5538   5510   5513     1  0.0000000  1.6024720  3
   2751   5567   5539   5542     1  180.0000771  0.4184000  2
   2751   5567   5539   5542     1  0.0000000  1.6024720  3
   2755   2756   2768   2780     1  0.0000000  0.6508444  3
   2755   2759   2771   2777     1  0.0000000  0.6508444  3
   2755   2762   2765   2774     1  0.0000000  0.6508444  3
   2756   2755   2759   2771     1  180.0000771  2.0083200  2
   2756   2755   2759   2771     1  0.0000000  1.2552000  3
   2756   2755   2762   2765     1  180.0000771  2.0083200  2
   2756   2755   2762   2765     1  0.0000000  1.2552000  3
   2756   2768   2780   5625     1  0.0000000  0.6508444  3
   2759   2755   2756   2768     1  180.0000771  2.0083200  2
   2759   2755   2756   2768     1  0.0000000  1.2552000  3
   2759   2755   2762   2765     1  180.0000771  2.0083200  2
   2759   2755   2762   2765     1  0.0000000  1.2552000  3
   2759   2771   2777   5596     1  0.0000000  0.6508444  3
   2762   2755   2756   2768     1  180.0000771  2.0083200  2
   2762   2755   2756   2768     1  0.0000000  1.2552000  3
   2762   2755   2759   2771     1  180.0000771  2.0083200  2
   2762   2755   2759   2771     1  0.0000000  1.2552000  3
   2762   2765   2774   2783     1  0.0000000  0.6508444  3
   2768   2780   5625   5597     1  180.0000771  0.4184000  2
   2768   2780   5625   5597     1  0.0000000  1.6024720  3
   2771   2777   5596   5568     1  180.0000771  0.4184000  2
   2771   2777   5596   5568     1  0.0000000  1.6024720  3
   2777   5596   5568   5571     1  180.0000771  0.4184000  2
   2777   5596   5568   5571     1  0.0000000  1.6024720  3
   2780   5625   5597   5600     1  180.0000771  0.4184000  2
   2780   5625   5597   5600     1  0.0000000  1.6024720  3
   2784   2785   2797   2809     1  0.0000000  0.6508444  3
   2784   2788   2800   2806     1  0.0000000  0.6508444  3
   2784   2791   2794   2803     1  0.0000000  0.6508444  3
   2785   2784   2788   2800     1  180.0000771  2.0083200  2
   2785   2784   2788   2800     1  0.0000000  1.2552000  3
   2785   2784   2791   2794     1  180.0000771  2.0083200  2
   2785   2784   2791   2794     1  0.0000000  1.2552000  3
   2785   2797   2809   5683     1  0.0000000  0.6508444  3
   2788   2784   2785   2797     1  180.0000771  2.0083200  2
   2788   2784   2785   2797     1  0.0000000  1.2552000  3
   2788   2784   2791   2794     1  180.0000771  2.0083200  2
   2788   2784   2791   2794     1  0.0000000  1.2552000  3
   2788   2800   2806   5654     1  0.0000000  0.6508444  3
   2791   2784   2785   2797     1  180.0000771  2.0083200  2
   2791   2784   2785   2797     1  0.0000000  1.2552000  3
   2791   2784   2788   2800     1  180.0000771  2.0083200  2
   2791   2784   2788   2800     1  0.0000000  1.2552000  3
   2791   2794   2803   2812     1  0.0000000  0.6508444  3
   2797   2809   5683   5655     1  180.0000771  0.4184000  2
   2797   2809   5683   5655     1  0.0000000  1.6024720  3
   2800   2806   5654   5626     1  180.0000771  0.4184000  2
   2800   2806   5654   5626     1  0.0000000  1.6024720  3
   2806   5654   5626   5629     1  180.0000771  0.4184000  2
   2806   5654   5626   5629     1  0.0000000  1.6024720  3
   2809   5683   5655   5658     1  180.0000771  0.4184000  2
   2809   5683   5655   5658     1  0.0000000  1.6024720  3
   2813   2814   2826   2838     1  0.0000000  0.6508444  3
   2813   2817   2829   2835     1  0.0000000  0.6508444  3
   2813   2820   2823   2832     1  0.0000000  0.6508444  3
   2814   2813   2817   2829     1  180.0000771  2.0083200  2
   2814   2813   2817   2829     1  0.0000000  1.2552000  3
   2814   2813   2820   2823     1  180.0000771  2.0083200  2
   2814   2813   2820   2823     1  0.0000000  1.2552000  3
   2814   2826   2838   5741     1  0.0000000  0.6508444  3
   2817   2813   2814   2826     1  180.0000771  2.0083200  2
   2817   2813   2814   2826     1  0.0000000  1.2552000  3
   2817   2813   2820   2823     1  180.0000771  2.0083200  2
   2817   2813   2820   2823     1  0.0000000  1.2552000  3
   2817   2829   2835   5712     1  0.0000000  0.6508444  3
   2820   2813   2814   2826     1  180.0000771  2.0083200  2
   2820   2813   2814   2826     1  0.0000000  1.2552000  3
   2820   2813   2817   2829     1  180.0000771  2.0083200  2
   2820   2813   2817   2829     1  0.0000000  1.2552000  3
   2820   2823   2832   2841     1  0.0000000  0.6508444  3
   2826   2838   5741   5713     1  180.0000771  0.4184000  2
   2826   2838   5741   5713     1  0.0000000  1.6024720  3
   2829   2835   5712   5684     1  180.0000771  0.4184000  2
   2829   2835   5712   5684     1  0.0000000  1.6024720  3
   2835   5712   5684   5687     1  180.0000771  0.4184000  2
   2835   5712   5684   5687     1  0.0000000  1.6024720  3
   2838   5741   5713   5716     1  180.0000771  0.4184000  2
   2838   5741   5713   5716     1  0.0000000  1.6024720  3
   2842   2843   2855   2867     1  0.0000000  0.6508444  3
   2842   2846   2858   2864     1  0.0000000  0.6508444  3
   2842   2849   2852   2861     1  0.0000000  0.6508444  3
   2843   2842   2846   2858     1  180.0000771  2.0083200  2
   2843   2842   2846   2858     1  0.0000000  1.2552000  3
   2843   2842   2849   2852     1  180.0000771  2.0083200  2
   2843   2842   2849   2852     1  0.0000000  1.2552000  3
   2843   2855   2867   5799     1  0.0000000  0.6508444  3
   2846   2842   2843   2855     1  180.0000771  2.0083200  2
   2846   2842   2843   2855     1  0.0000000  1.2552000  3
   2846   2842   2849   2852     1  180.0000771  2.0083200  2
   2846   2842   2849   2852     1  0.0000000  1.2552000  3
   2846   2858   2864   5770     1  0.0000000  0.6508444  3
   2849   2842   2843   2855     1  180.0000771  2.0083200  2
   2849   2842   2843   2855     1  0.0000000  1.2552000  3
   2849   2842   2846   2858     1  180.0000771  2.0083200  2
   2849   2842   2846   2858     1  0.0000000  1.2552000  3
   2849   2852   2861   2870     1  0.0000000  0.6508444  3
   2855   2867   5799   5771     1  180.0000771  0.4184000  2
   2855   2867   5799   5771     1  0.0000000  1.6024720  3
   2858   2864   5770   5742     1  180.0000771  0.4184000  2
   2858   2864   5770   5742     1  0.0000000  1.6024720  3
   2864   5770   5742   5745     1  180.0000771  0.4184000  2
   2864   5770   5742   5745     1  0.0000000  1.6024720  3
   2867   5799   5771   5774     1  180.0000771  0.4184000  2
   2867   5799   5771   5774     1  0.0000000  1.6024720  3
   2871   2872   2884   2896     1  0.0000000  0.6508444  3
   2871   2875   2887   2893     1  0.0000000  0.6508444  3
   2871   2878   2881   2890     1  0.0000000  0.6508444  3
   2872   2871   2875   2887     1  180.0000771  2.0083200  2
   2872   2871   2875   2887     1  0.0000000  1.2552000  3
   2872   2871   2878   2881     1  180.0000771  2.0083200  2
   2872   2871   2878   2881     1  0.0000000  1.2552000  3
   2872   2884   2896   5857     1  0.0000000  0.6508444  3
   2875   2871   2872   2884     1  180.0000771  2.0083200  2
   2875   2871   2872   2884     1  0.0000000  1.2552000  3
   2875   2871   2878   2881     1  180.0000771  2.0083200  2
   2875   2871   2878   2881     1  0.0000000  1.2552000  3
   2875   2887   2893   5828     1  0.0000000  0.6508444  3
   2878   2871   2872   2884     1  180.0000771  2.0083200  2
   2878   2871   2872   2884     1  0.0000000  1.2552000  3
   2878   2871   2875   2887     1  180.0000771  2.0083200  2
   2878   2871   2875   2887     1  0.0000000  1.2552000  3
   2878   2881   2890   2899     1  0.0000000  0.6508444  3
   2884   2896   5857   5829     1  180.0000771  0.4184000  2
   2884   2896   5857   5829     1  0.0000000  1.6024720  3
   2887   2893   5828   5800     1  180.0000771  0.4184000  2
   2887   2893   5828   5800     1  0.0000000  1.6024720  3
   2893   5828   5800   5803     1  180.0000771  0.4184000  2
   2893   5828   5800   5803     1  0.0000000  1.6024720  3
   2896   5857   5829   5832     1  180.0000771  0.4184000  2
   2896   5857   5829   5832     1  0.0000000  1.6024720  3
   2900   2901   2913   2925     1  0.0000000  0.6508444  3
   2900   2904   2916   2922     1  0.0000000  0.6508444  3
   2900   2907   2910   2919     1  0.0000000  0.6508444  3
   2901   2900   2904   2916     1  180.0000771  2.0083200  2
   2901   2900   2904   2916     1  0.0000000  1.2552000  3
   2901   2900   2907   2910     1  180.0000771  2.0083200  2
   2901   2900   2907   2910     1  0.0000000  1.2552000  3
   2901   2913   2925   5915     1  0.0000000  0.6508444  3
   2904   2900   2901   2913     1  180.0000771  2.0083200  2
   2904   2900   2901   2913     1  0.0000000  1.2552000  3
   2904   2900   2907   2910     1  180.0000771  2.0083200  2
   2904   2900   2907   2910     1  0.0000000  1.2552000  3
   2904   2916   2922   5886     1  0.0000000  0.6508444  3
   2907   2900   2901   2913     1  180.0000771  2.0083200  2
   2907   2900   2901   2913     1  0.0000000  1.2552000  3
   2907   2900   2904   2916     1  180.0000771  2.0083200  2
   2907   2900   2904   2916     1  0.0000000  1.2552000  3
   2907   2910   2919   2928     1  0.0000000  0.6508444  3
   2913   2925   5915   5887     1  180.0000771  0.4184000  2
   2913   2925   5915   5887     1  0.0000000  1.6024720  3
   2916   2922   5886   5858     1  180.0000771  0.4184000  2
   2916   2922   5886   5858     1  0.0000000  1.6024720  3
   2922   5886   5858   5861     1  180.0000771  0.4184000  2
   2922   5886   5858   5861     1  0.0000000  1.6024720  3
   2925   5915   5887   5890     1  180.0000771  0.4184000  2
   2925   5915   5887   5890     1  0.0000000  1.6024720  3
   2929   2930   2942   2954     1  0.0000000  0.6508444  3
   2929   2933   2945   2951     1  0.0000000  0.6508444  3
   2929   2936   2939   2948     1  0.0000000  0.6508444  3
   2930   2929   2933   2945     1  180.0000771  2.0083200  2
   2930   2929   2933   2945     1  0.0000000  1.2552000  3
   2930   2929   2936   2939     1  180.0000771  2.0083200  2
   2930   2929   2936   2939     1  0.0000000  1.2552000  3
   2930   2942   2954   5973     1  0.0000000  0.6508444  3
   2933   2929   2930   2942     1  180.0000771  2.0083200  2
   2933   2929   2930   2942     1  0.0000000  1.2552000  3
   2933   2929   2936   2939     1  180.0000771  2.0083200  2
   2933   2929   2936   2939     1  0.0000000  1.2552000  3
   2933   2945   2951   5944     1  0.0000000  0.6508444  3
   2936   2929   2930   2942     1  180.0000771  2.0083200  2
   2936   2929   2930   2942     1  0.0000000  1.2552000  3
   2936   2929   2933   2945     1  180.0000771  2.0083200  2
   2936   2929   2933   2945     1  0.0000000  1.2552000  3
   2936   2939   2948   2957     1  0.0000000  0.6508444  3
   2942   2954   5973   5945     1  180.0000771  0.4184000  2
   2942   2954   5973   5945     1  0.0000000  1.6024720  3
   2945   2951   5944   5916     1  180.0000771  0.4184000  2
   2945   2951   5944   5916     1  0.0000000  1.6024720  3
   2951   5944   5916   5919     1  180.0000771  0.4184000  2
   2951   5944   5916   5919     1  0.0000000  1.6024720  3
   2954   5973   5945   5948     1  180.0000771  0.4184000  2
   2954   5973   5945   5948     1  0.0000000  1.6024720  3
   2958   2959   2971   2983     1  0.0000000  0.6508444  3
   2958   2962   2974   2980     1  0.0000000  0.6508444  3
   2958   2965   2968   2977     1  0.0000000  0.6508444  3
   2959   2958   2962   2974     1  180.0000771  2.0083200  2
   2959   2958   2962   2974     1  0.0000000  1.2552000  3
   2959   2958   2965   2968     1  180.0000771  2.0083200  2
   2959   2958   2965   2968     1  0.0000000  1.2552000  3
   2959   2971   2983   6031     1  0.0000000  0.6508444  3
   2962   2958   2959   2971     1  180.0000771  2.0083200  2
   2962   2958   2959   2971     1  0.0000000  1.2552000  3
   2962   2958   2965   2968     1  180.0000771  2.0083200  2
   2962   2958   2965   2968     1  0.0000000  1.2552000  3
   2962   2974   2980   6002     1  0.0000000  0.6508444  3
   2965   2958   2959   2971     1  180.0000771  2.0083200  2
   2965   2958   2959   2971     1  0.0000000  1.2552000  3
   2965   2958   2962   2974     1  180.0000771  2.0083200  2
   2965   2958   2962   2974     1  0.0000000  1.2552000  3
   2965   2968   2977   2986     1  0.0000000  0.6508444  3
   2971   2983   6031   6003     1  180.0000771  0.4184000  2
   2971   2983   6031   6003     1  0.0000000  1.6024720  3
   2974   2980   6002   5974     1  180.0000771  0.4184000  2
   2974   2980   6002   5974     1  0.0000000  1.6024720  3
   2980   6002   5974   5977     1  180.0000771  0.4184000  2
   2980   6002   5974   5977     1  0.0000000  1.6024720  3
   2983   6031   6003   6006     1  180.0000771  0.4184000  2
   2983   6031   6003   6006     1  0.0000000  1.6024720  3
   2987   2988   3000   3012     1  0.0000000  0.6508444  3
   2987   2991   3003   3009     1  0.0000000  0.6508444  3
   2987   2994   2997   3006     1  0.0000000  0.6508444  3
   2988   2987   2991   3003     1  180.0000771  2.0083200  2
   2988   2987   2991   3003     1  0.0000000  1.2552000  3
   2988   2987   2994   2997     1  180.0000771  2.0083200  2
   2988   2987   2994   2997     1  0.0000000  1.2552000  3
   2988   3000   3012   6089     1  0.0000000  0.6508444  3
   2991   2987   2988   3000     1  180.0000771  2.0083200  2
   2991   2987   2988   3000     1  0.0000000  1.2552000  3
   2991   2987   2994   2997     1  180.0000771  2.0083200  2
   2991   2987   2994   2997     1  0.0000000  1.2552000  3
   2991   3003   3009   6060     1  0.0000000  0.6508444  3
   2994   2987   2988   3000     1  180.0000771  2.0083200  2
   2994   2987   2988   3000     1  0.0000000  1.2552000  3
   2994   2987   2991   3003     1  180.0000771  2.0083200  2
   2994   2987   2991   3003     1  0.0000000  1.2552000  3
   2994   2997   3006   3015     1  0.0000000  0.6508444  3
   3000   3012   6089   6061     1  180.0000771  0.4184000  2
   3000   3012   6089   6061     1  0.0000000  1.6024720  3
   3003   3009   6060   6032     1  180.0000771  0.4184000  2
   3003   3009   6060   6032     1  0.0000000  1.6024720  3
   3009   6060   6032   6035     1  180.0000771  0.4184000  2
   3009   6060   6032   6035     1  0.0000000  1.6024720  3
   3012   6089   6061   6064     1  180.0000771  0.4184000  2
   3012   6089   6061   6064     1  0.0000000  1.6024720  3
   3016   3017   3029   3041     1  0.0000000  0.6508444  3
   3016   3020   3032   3038     1  0.0000000  0.6508444  3
   3016   3023   3026   3035     1  0.0000000  0.6508444  3
   3017   3016   3020   3032     1  180.0000771  2.0083200  2
   3017   3016   3020   3032     1  0.0000000  1.2552000  3
   3017   3016   3023   3026     1  180.0000771  2.0083200  2
   3017   3016   3023   3026     1  0.0000000  1.2552000  3
   3017   3029   3041   6147     1  0.0000000  0.6508444  3
   3020   3016   3017   3029     1  180.0000771  2.0083200  2
   3020   3016   3017   3029     1  0.0000000  1.2552000  3
   3020   3016   3023   3026     1  180.0000771  2.0083200  2
   3020   3016   3023   3026     1  0.0000000  1.2552000  3
   3020   3032   3038   6118     1  0.0000000  0.6508444  3
   3023   3016   3017   3029     1  180.0000771  2.0083200  2
   3023   3016   3017   3029     1  0.0000000  1.2552000  3
   3023   3016   3020   3032     1  180.0000771  2.0083200  2
   3023   3016   3020   3032     1  0.0000000  1.2552000  3
   3023   3026   3035   3044     1  0.0000000  0.6508444  3
   3029   3041   6147   6119     1  180.0000771  0.4184000  2
   3029   3041   6147   6119     1  0.0000000  1.6024720  3
   3032   3038   6118   6090     1  180.0000771  0.4184000  2
   3032   3038   6118   6090     1  0.0000000  1.6024720  3
   3038   6118   6090   6093     1  180.0000771  0.4184000  2
   3038   6118   6090   6093     1  0.0000000  1.6024720  3
   3041   6147   6119   6122     1  180.0000771  0.4184000  2
   3041   6147   6119   6122     1  0.0000000  1.6024720  3
   3045   3046   3058   3070     1  0.0000000  0.6508444  3
   3045   3049   3061   3067     1  0.0000000  0.6508444  3
   3045   3052   3055   3064     1  0.0000000  0.6508444  3
   3046   3045   3049   3061     1  180.0000771  2.0083200  2
   3046   3045   3049   3061     1  0.0000000  1.2552000  3
   3046   3045   3052   3055     1  180.0000771  2.0083200  2
   3046   3045   3052   3055     1  0.0000000  1.2552000  3
   3046   3058   3070   6205     1  0.0000000  0.6508444  3
   3049   3045   3046   3058     1  180.0000771  2.0083200  2
   3049   3045   3046   3058     1  0.0000000  1.2552000  3
   3049   3045   3052   3055     1  180.0000771  2.0083200  2
   3049   3045   3052   3055     1  0.0000000  1.2552000  3
   3049   3061   3067   6176     1  0.0000000  0.6508444  3
   3052   3045   3046   3058     1  180.0000771  2.0083200  2
   3052   3045   3046   3058     1  0.0000000  1.2552000  3
   3052   3045   3049   3061     1  180.0000771  2.0083200  2
   3052   3045   3049   3061     1  0.0000000  1.2552000  3
   3052   3055   3064   3073     1  0.0000000  0.6508444  3
   3058   3070   6205   6177     1  180.0000771  0.4184000  2
   3058   3070   6205   6177     1  0.0000000  1.6024720  3
   3061   3067   6176   6148     1  180.0000771  0.4184000  2
   3061   3067   6176   6148     1  0.0000000  1.6024720  3
   3067   6176   6148   6151     1  180.0000771  0.4184000  2
   3067   6176   6148   6151     1  0.0000000  1.6024720  3
   3070   6205   6177   6180     1  180.0000771  0.4184000  2
   3070   6205   6177   6180     1  0.0000000  1.6024720  3
   3074   3075   3087   3099     1  0.0000000  0.6508444  3
   3074   3078   3090   3096     1  0.0000000  0.6508444  3
   3074   3081   3084   3093     1  0.0000000  0.6508444  3
   3075   3074   3078   3090     1  180.0000771  2.0083200  2
   3075   3074   3078   3090     1  0.0000000  1.2552000  3
   3075   3074   3081   3084     1  180.0000771  2.0083200  2
   3075   3074   3081   3084     1  0.0000000  1.2552000  3
   3075   3087   3099   6263     1  0.0000000  0.6508444  3
   3078   3074   3075   3087     1  180.0000771  2.0083200  2
   3078   3074   3075   3087     1  0.0000000  1.2552000  3
   3078   3074   3081   3084     1  180.0000771  2.0083200  2
   3078   3074   3081   3084     1  0.0000000  1.2552000  3
   3078   3090   3096   6234     1  0.0000000  0.6508444  3
   3081   3074   3075   3087     1  180.0000771  2.0083200  2
   3081   3074   3075   3087     1  0.0000000  1.2552000  3
   3081   3074   3078   3090     1  180.0000771  2.0083200  2
   3081   3074   3078   3090     1  0.0000000  1.2552000  3
   3081   3084   3093   3102     1  0.0000000  0.6508444  3
   3087   3099   6263   6235     1  180.0000771  0.4184000  2
   3087   3099   6263   6235     1  0.0000000  1.6024720  3
   3090   3096   6234   6206     1  180.0000771  0.4184000  2
   3090   3096   6234   6206     1  0.0000000  1.6024720  3
   3096   6234   6206   6209     1  180.0000771  0.4184000  2
   3096   6234   6206   6209     1  0.0000000  1.6024720  3
   3099   6263   6235   6238     1  180.0000771  0.4184000  2
   3099   6263   6235   6238     1  0.0000000  1.6024720  3
   3103   3104   3116   3128     1  0.0000000  0.6508444  3
   3103   3107   3119   3125     1  0.0000000  0.6508444  3
   3103   3110   3113   3122     1  0.0000000  0.6508444  3
   3104   3103   3107   3119     1  180.0000771  2.0083200  2
   3104   3103   3107   3119     1  0.0000000  1.2552000  3
   3104   3103   3110   3113     1  180.0000771  2.0083200  2
   3104   3103   3110   3113     1  0.0000000  1.2552000  3
   3104   3116   3128   6321     1  0.0000000  0.6508444  3
   3107   3103   3104   3116     1  180.0000771  2.0083200  2
   3107   3103   3104   3116     1  0.0000000  1.2552000  3
   3107   3103   3110   3113     1  180.0000771  2.0083200  2
   3107   3103   3110   3113     1  0.0000000  1.2552000  3
   3107   3119   3125   6292     1  0.0000000  0.6508444  3
   3110   3103   3104   3116     1  180.0000771  2.0083200  2
   3110   3103   3104   3116     1  0.0000000  1.2552000  3
   3110   3103   3107   3119     1  180.0000771  2.0083200  2
   3110   3103   3107   3119     1  0.0000000  1.2552000  3
   3110   3113   3122   3131     1  0.0000000  0.6508444  3
   3116   3128   6321   6293     1  180.0000771  0.4184000  2
   3116   3128   6321   6293     1  0.0000000  1.6024720  3
   3119   3125   6292   6264     1  180.0000771  0.4184000  2
   3119   3125   6292   6264     1  0.0000000  1.6024720  3
   3125   6292   6264   6267     1  180.0000771  0.4184000  2
   3125   6292   6264   6267     1  0.0000000  1.6024720  3
   3128   6321   6293   6296     1  180.0000771  0.4184000  2
   3128   6321   6293   6296     1  0.0000000  1.6024720  3
   3132   3133   3145   3157     1  0.0000000  0.6508444  3
   3132   3136   3148   3154     1  0.0000000  0.6508444  3
   3132   3139   3142   3151     1  0.0000000  0.6508444  3
   3133   3132   3136   3148     1  180.0000771  2.0083200  2
   3133   3132   3136   3148     1  0.0000000  1.2552000  3
   3133   3132   3139   3142     1  180.0000771  2.0083200  2
   3133   3132   3139   3142     1  0.0000000  1.2552000  3
   3133   3145   3157   6379     1  0.0000000  0.6508444  3
   3136   3132   3133   3145     1  180.0000771  2.0083200  2
   3136   3132   3133   3145     1  0.0000000  1.2552000  3
   3136   3132   3139   3142     1  180.0000771  2.0083200  2
   3136   3132   3139   3142     1  0.0000000  1.2552000  3
   3136   3148   3154   6350     1  0.0000000  0.6508444  3
   3139   3132   3133   3145     1  180.0000771  2.0083200  2
   3139   3132   3133   3145     1  0.0000000  1.2552000  3
   3139   3132   3136   3148     1  180.0000771  2.0083200  2
   3139   3132   3136   3148     1  0.0000000  1.2552000  3
   3139   3142   3151   3160     1  0.0000000  0.6508444  3
   3145   3157   6379   6351     1  180.0000771  0.4184000  2
   3145   3157   6379   6351     1  0.0000000  1.6024720  3
   3148   3154   6350   6322     1  180.0000771  0.4184000  2
   3148   3154   6350   6322     1  0.0000000  1.6024720  3
   3154   6350   6322   6325     1  180.0000771  0.4184000  2
   3154   6350   6322   6325     1  0.0000000  1.6024720  3
   3157   6379   6351   6354     1  180.0000771  0.4184000  2
   3157   6379   6351   6354     1  0.0000000  1.6024720  3
   3161   3162   3174   3186     1  0.0000000  0.6508444  3
   3161   3165   3177   3183     1  0.0000000  0.6508444  3
   3161   3168   3171   3180     1  0.0000000  0.6508444  3
   3162   3161   3165   3177     1  180.0000771  2.0083200  2
   3162   3161   3165   3177     1  0.0000000  1.2552000  3
   3162   3161   3168   3171     1  180.0000771  2.0083200  2
   3162   3161   3168   3171     1  0.0000000  1.2552000  3
   3162   3174   3186   6437     1  0.0000000  0.6508444  3
   3165   3161   3162   3174     1  180.0000771  2.0083200  2
   3165   3161   3162   3174     1  0.0000000  1.2552000  3
   3165   3161   3168   3171     1  180.0000771  2.0083200  2
   3165   3161   3168   3171     1  0.0000000  1.2552000  3
   3165   3177   3183   6408     1  0.0000000  0.6508444  3
   3168   3161   3162   3174     1  180.0000771  2.0083200  2
   3168   3161   3162   3174     1  0.0000000  1.2552000  3
   3168   3161   3165   3177     1  180.0000771  2.0083200  2
   3168   3161   3165   3177     1  0.0000000  1.2552000  3
   3168   3171   3180   3189     1  0.0000000  0.6508444  3
   3174   3186   6437   6409     1  180.0000771  0.4184000  2
   3174   3186   6437   6409     1  0.0000000  1.6024720  3
   3177   3183   6408   6380     1  180.0000771  0.4184000  2
   3177   3183   6408   6380     1  0.0000000  1.6024720  3
   3183   6408   6380   6383     1  180.0000771  0.4184000  2
   3183   6408   6380   6383     1  0.0000000  1.6024720  3
   3186   6437   6409   6412     1  180.0000771  0.4184000  2
   3186   6437   6409   6412     1  0.0000000  1.6024720  3
   3190   3191   3203   3215     1  0.0000000  0.6508444  3
   3190   3194   3206   3212     1  0.0000000  0.6508444  3
   3190   3197   3200   3209     1  0.0000000  0.6508444  3
   3191   3190   3194   3206     1  180.0000771  2.0083200  2
   3191   3190   3194   3206     1  0.0000000  1.2552000  3
   3191   3190   3197   3200     1  180.0000771  2.0083200  2
   3191   3190   3197   3200     1  0.0000000  1.2552000  3
   3191   3203   3215   6495     1  0.0000000  0.6508444  3
   3194   3190   3191   3203     1  180.0000771  2.0083200  2
   3194   3190   3191   3203     1  0.0000000  1.2552000  3
   3194   3190   3197   3200     1  180.0000771  2.0083200  2
   3194   3190   3197   3200     1  0.0000000  1.2552000  3
   3194   3206   3212   6466     1  0.0000000  0.6508444  3
   3197   3190   3191   3203     1  180.0000771  2.0083200  2
   3197   3190   3191   3203     1  0.0000000  1.2552000  3
   3197   3190   3194   3206     1  180.0000771  2.0083200  2
   3197   3190   3194   3206     1  0.0000000  1.2552000  3
   3197   3200   3209   3218     1  0.0000000  0.6508444  3
   3203   3215   6495   6467     1  180.0000771  0.4184000  2
   3203   3215   6495   6467     1  0.0000000  1.6024720  3
   3206   3212   6466   6438     1  180.0000771  0.4184000  2
   3206   3212   6466   6438     1  0.0000000  1.6024720  3
   3212   6466   6438   6441     1  180.0000771  0.4184000  2
   3212   6466   6438   6441     1  0.0000000  1.6024720  3
   3215   6495   6467   6470     1  180.0000771  0.4184000  2
   3215   6495   6467   6470     1  0.0000000  1.6024720  3
   3219   3220   3232   3244     1  0.0000000  0.6508444  3
   3219   3223   3235   3241     1  0.0000000  0.6508444  3
   3219   3226   3229   3238     1  0.0000000  0.6508444  3
   3220   3219   3223   3235     1  180.0000771  2.0083200  2
   3220   3219   3223   3235     1  0.0000000  1.2552000  3
   3220   3219   3226   3229     1  180.0000771  2.0083200  2
   3220   3219   3226   3229     1  0.0000000  1.2552000  3
   3220   3232   3244   6553     1  0.0000000  0.6508444  3
   3223   3219   3220   3232     1  180.0000771  2.0083200  2
   3223   3219   3220   3232     1  0.0000000  1.2552000  3
   3223   3219   3226   3229     1  180.0000771  2.0083200  2
   3223   3219   3226   3229     1  0.0000000  1.2552000  3
   3223   3235   3241   6524     1  0.0000000  0.6508444  3
   3226   3219   3220   3232     1  180.0000771  2.0083200  2
   3226   3219   3220   3232     1  0.0000000  1.2552000  3
   3226   3219   3223   3235     1  180.0000771  2.0083200  2
   3226   3219   3223   3235     1  0.0000000  1.2552000  3
   3226   3229   3238   3247     1  0.0000000  0.6508444  3
   3232   3244   6553   6525     1  180.0000771  0.4184000  2
   3232   3244   6553   6525     1  0.0000000  1.6024720  3
   3235   3241   6524   6496     1  180.0000771  0.4184000  2
   3235   3241   6524   6496     1  0.0000000  1.6024720  3
   3241   6524   6496   6499     1  180.0000771  0.4184000  2
   3241   6524   6496   6499     1  0.0000000  1.6024720  3
   3244   6553   6525   6528     1  180.0000771  0.4184000  2
   3244   6553   6525   6528     1  0.0000000  1.6024720  3
   3248   3249   3261   3273     1  0.0000000  0.6508444  3
   3248   3252   3264   3270     1  0.0000000  0.6508444  3
   3248   3255   3258   3267     1  0.0000000  0.6508444  3
   3249   3248   3252   3264     1  180.0000771  2.0083200  2
   3249   3248   3252   3264     1  0.0000000  1.2552000  3
   3249   3248   3255   3258     1  180.0000771  2.0083200  2
   3249   3248   3255   3258     1  0.0000000  1.2552000  3
   3249   3261   3273   6611     1  0.0000000  0.6508444  3
   3252   3248   3249   3261     1  180.0000771  2.0083200  2
   3252   3248   3249   3261     1  0.0000000  1.2552000  3
   3252   3248   3255   3258     1  180.0000771  2.0083200  2
   3252   3248   3255   3258     1  0.0000000  1.2552000  3
   3252   3264   3270   6582     1  0.0000000  0.6508444  3
   3255   3248   3249   3261     1  180.0000771  2.0083200  2
   3255   3248   3249   3261     1  0.0000000  1.2552000  3
   3255   3248   3252   3264     1  180.0000771  2.0083200  2
   3255   3248   3252   3264     1  0.0000000  1.2552000  3
   3255   3258   3267   3276     1  0.0000000  0.6508444  3
   3261   3273   6611   6583     1  180.0000771  0.4184000  2
   3261   3273   6611   6583     1  0.0000000  1.6024720  3
   3264   3270   6582   6554     1  180.0000771  0.4184000  2
   3264   3270   6582   6554     1  0.0000000  1.6024720  3
   3270   6582   6554   6557     1  180.0000771  0.4184000  2
   3270   6582   6554   6557     1  0.0000000  1.6024720  3
   3273   6611   6583   6586     1  180.0000771  0.4184000  2
   3273   6611   6583   6586     1  0.0000000  1.6024720  3
   3277   3278   3290   3302     1  0.0000000  0.6508444  3
   3277   3281   3293   3299     1  0.0000000  0.6508444  3
   3277   3284   3287   3296     1  0.0000000  0.6508444  3
   3278   3277   3281   3293     1  180.0000771  2.0083200  2
   3278   3277   3281   3293     1  0.0000000  1.2552000  3
   3278   3277   3284   3287     1  180.0000771  2.0083200  2
   3278   3277   3284   3287     1  0.0000000  1.2552000  3
   3278   3290   3302   6669     1  0.0000000  0.6508444  3
   3281   3277   3278   3290     1  180.0000771  2.0083200  2
   3281   3277   3278   3290     1  0.0000000  1.2552000  3
   3281   3277   3284   3287     1  180.0000771  2.0083200  2
   3281   3277   3284   3287     1  0.0000000  1.2552000  3
   3281   3293   3299   6640     1  0.0000000  0.6508444  3
   3284   3277   3278   3290     1  180.0000771  2.0083200  2
   3284   3277   3278   3290     1  0.0000000  1.2552000  3
   3284   3277   3281   3293     1  180.0000771  2.0083200  2
   3284   3277   3281   3293     1  0.0000000  1.2552000  3
   3284   3287   3296   3305     1  0.0000000  0.6508444  3
   3290   3302   6669   6641     1  180.0000771  0.4184000  2
   3290   3302   6669   6641     1  0.0000000  1.6024720  3
   3293   3299   6640   6612     1  180.0000771  0.4184000  2
   3293   3299   6640   6612     1  0.0000000  1.6024720  3
   3299   6640   6612   6615     1  180.0000771  0.4184000  2
   3299   6640   6612   6615     1  0.0000000  1.6024720  3
   3302   6669   6641   6644     1  180.0000771  0.4184000  2
   3302   6669   6641   6644     1  0.0000000  1.6024720  3
   3306   3307   3319   3331     1  0.0000000  0.6508444  3
   3306   3310   3322   3328     1  0.0000000  0.6508444  3
   3306   3313   3316   3325     1  0.0000000  0.6508444  3
   3307   3306   3310   3322     1  180.0000771  2.0083200  2
   3307   3306   3310   3322     1  0.0000000  1.2552000  3
   3307   3306   3313   3316     1  180.0000771  2.0083200  2
   3307   3306   3313   3316     1  0.0000000  1.2552000  3
   3307   3319   3331   6727     1  0.0000000  0.6508444  3
   3310   3306   3307   3319     1  180.0000771  2.0083200  2
   3310   3306   3307   3319     1  0.0000000  1.2552000  3
   3310   3306   3313   3316     1  180.0000771  2.0083200  2
   3310   3306   3313   3316     1  0.0000000  1.2552000  3
   3310   3322   3328   6698     1  0.0000000  0.6508444  3
   3313   3306   3307   3319     1  180.0000771  2.0083200  2
   3313   3306   3307   3319     1  0.0000000  1.2552000  3
   3313   3306   3310   3322     1  180.0000771  2.0083200  2
   3313   3306   3310   3322     1  0.0000000  1.2552000  3
   3313   3316   3325   3334     1  0.0000000  0.6508444  3
   3319   3331   6727   6699     1  180.0000771  0.4184000  2
   3319   3331   6727   6699     1  0.0000000  1.6024720  3
   3322   3328   6698   6670     1  180.0000771  0.4184000  2
   3322   3328   6698   6670     1  0.0000000  1.6024720  3
   3328   6698   6670   6673     1  180.0000771  0.4184000  2
   3328   6698   6670   6673     1  0.0000000  1.6024720  3
   3331   6727   6699   6702     1  180.0000771  0.4184000  2
   3331   6727   6699   6702     1  0.0000000  1.6024720  3
   3335   3336   3348   3360     1  0.0000000  0.6508444  3
   3335   3339   3351   3357     1  0.0000000  0.6508444  3
   3335   3342   3345   3354     1  0.0000000  0.6508444  3
   3336   3335   3339   3351     1  180.0000771  2.0083200  2
   3336   3335   3339   3351     1  0.0000000  1.2552000  3
   3336   3335   3342   3345     1  180.0000771  2.0083200  2
   3336   3335   3342   3345     1  0.0000000  1.2552000  3
   3336   3348   3360   6785     1  0.0000000  0.6508444  3
   3339   3335   3336   3348     1  180.0000771  2.0083200  2
   3339   3335   3336   3348     1  0.0000000  1.2552000  3
   3339   3335   3342   3345     1  180.0000771  2.0083200  2
   3339   3335   3342   3345     1  0.0000000  1.2552000  3
   3339   3351   3357   6756     1  0.0000000  0.6508444  3
   3342   3335   3336   3348     1  180.0000771  2.0083200  2
   3342   3335   3336   3348     1  0.0000000  1.2552000  3
   3342   3335   3339   3351     1  180.0000771  2.0083200  2
   3342   3335   3339   3351     1  0.0000000  1.2552000  3
   3342   3345   3354   3363     1  0.0000000  0.6508444  3
   3348   3360   6785   6757     1  180.0000771  0.4184000  2
   3348   3360   6785   6757     1  0.0000000  1.6024720  3
   3351   3357   6756   6728     1  180.0000771  0.4184000  2
   3351   3357   6756   6728     1  0.0000000  1.6024720  3
   3357   6756   6728   6731     1  180.0000771  0.4184000  2
   3357   6756   6728   6731     1  0.0000000  1.6024720  3
   3360   6785   6757   6760     1  180.0000771  0.4184000  2
   3360   6785   6757   6760     1  0.0000000  1.6024720  3
   3364   3365   3377   3389     1  0.0000000  0.6508444  3
   3364   3368   3380   3386     1  0.0000000  0.6508444  3
   3364   3371   3374   3383     1  0.0000000  0.6508444  3
   3365   3364   3368   3380     1  180.0000771  2.0083200  2
   3365   3364   3368   3380     1  0.0000000  1.2552000  3
   3365   3364   3371   3374     1  180.0000771  2.0083200  2
   3365   3364   3371   3374     1  0.0000000  1.2552000  3
   3365   3377   3389   6843     1  0.0000000  0.6508444  3
   3368   3364   3365   3377     1  180.0000771  2.0083200  2
   3368   3364   3365   3377     1  0.0000000  1.2552000  3
   3368   3364   3371   3374     1  180.0000771  2.0083200  2
   3368   3364   3371   3374     1  0.0000000  1.2552000  3
   3368   3380   3386   6814     1  0.0000000  0.6508444  3
   3371   3364   3365   3377     1  180.0000771  2.0083200  2
   3371   3364   3365   3377     1  0.0000000  1.2552000  3
   3371   3364   3368   3380     1  180.0000771  2.0083200  2
   3371   3364   3368   3380     1  0.0000000  1.2552000  3
   3371   3374   3383   3392     1  0.0000000  0.6508444  3
   3377   3389   6843   6815     1  180.0000771  0.4184000  2
   3377   3389   6843   6815     1  0.0000000  1.6024720  3
   3380   3386   6814   6786     1  180.0000771  0.4184000  2
   3380   3386   6814   6786     1  0.0000000  1.6024720  3
   3386   6814   6786   6789     1  180.0000771  0.4184000  2
   3386   6814   6786   6789     1  0.0000000  1.6024720  3
   3389   6843   6815   6818     1  180.0000771  0.4184000  2
   3389   6843   6815   6818     1  0.0000000  1.6024720  3
   3393   3394   3406   3418     1  0.0000000  0.6508444  3
   3393   3397   3409   3415     1  0.0000000  0.6508444  3
   3393   3400   3403   3412     1  0.0000000  0.6508444  3
   3394   3393   3397   3409     1  180.0000771  2.0083200  2
   3394   3393   3397   3409     1  0.0000000  1.2552000  3
   3394   3393   3400   3403     1  180.0000771  2.0083200  2
   3394   3393   3400   3403     1  0.0000000  1.2552000  3
   3394   3406   3418   6901     1  0.0000000  0.6508444  3
   3397   3393   3394   3406     1  180.0000771  2.0083200  2
   3397   3393   3394   3406     1  0.0000000  1.2552000  3
   3397   3393   3400   3403     1  180.0000771  2.0083200  2
   3397   3393   3400   3403     1  0.0000000  1.2552000  3
   3397   3409   3415   6872     1  0.0000000  0.6508444  3
   3400   3393   3394   3406     1  180.0000771  2.0083200  2
   3400   3393   3394   3406     1  0.0000000  1.2552000  3
   3400   3393   3397   3409     1  180.0000771  2.0083200  2
   3400   3393   3397   3409     1  0.0000000  1.2552000  3
   3400   3403   3412   3421     1  0.0000000  0.6508444  3
   3406   3418   6901   6873     1  180.0000771  0.4184000  2
   3406   3418   6901   6873     1  0.0000000  1.6024720  3
   3409   3415   6872   6844     1  180.0000771  0.4184000  2
   3409   3415   6872   6844     1  0.0000000  1.6024720  3
   3415   6872   6844   6847     1  180.0000771  0.4184000  2
   3415   6872   6844   6847     1  0.0000000  1.6024720  3
   3418   6901   6873   6876     1  180.0000771  0.4184000  2
   3418   6901   6873   6876     1  0.0000000  1.6024720  3
   3422   3423   3435   3447     1  0.0000000  0.6508444  3
   3422   3426   3438   3444     1  0.0000000  0.6508444  3
   3422   3429   3432   3441     1  0.0000000  0.6508444  3
   3423   3422   3426   3438     1  180.0000771  2.0083200  2
   3423   3422   3426   3438     1  0.0000000  1.2552000  3
   3423   3422   3429   3432     1  180.0000771  2.0083200  2
   3423   3422   3429   3432     1  0.0000000  1.2552000  3
   3423   3435   3447   6959     1  0.0000000  0.6508444  3
   3426   3422   3423   3435     1  180.0000771  2.0083200  2
   3426   3422   3423   3435     1  0.0000000  1.2552000  3
   3426   3422   3429   3432     1  180.0000771  2.0083200  2
   3426   3422   3429   3432     1  0.0000000  1.2552000  3
   3426   3438   3444   6930     1  0.0000000  0.6508444  3
   3429   3422   3423   3435     1  180.0000771  2.0083200  2
   3429   3422   3423   3435     1  0.0000000  1.2552000  3
   3429   3422   3426   3438     1  180.0000771  2.0083200  2
   3429   3422   3426   3438     1  0.0000000  1.2552000  3
   3429   3432   3441   3450     1  0.0000000  0.6508444  3
   3435   3447   6959   6931     1  180.0000771  0.4184000  2
   3435   3447   6959   6931     1  0.0000000  1.6024720  3
   3438   3444   6930   6902     1  180.0000771  0.4184000  2
   3438   3444   6930   6902     1  0.0000000  1.6024720  3
   3444   6930   6902   6905     1  180.0000771  0.4184000  2
   3444   6930   6902   6905     1  0.0000000  1.6024720  3
   3447   6959   6931   6934     1  180.0000771  0.4184000  2
   3447   6959   6931   6934     1  0.0000000  1.6024720  3
   3451   3452   3464   3476     1  0.0000000  0.6508444  3
   3451   3455   3467   3473     1  0.0000000  0.6508444  3
   3451   3458   3461   3470     1  0.0000000  0.6508444  3
   3452   3451   3455   3467     1  180.0000771  2.0083200  2
   3452   3451   3455   3467     1  0.0000000  1.2552000  3
   3452   3451   3458   3461     1  180.0000771  2.0083200  2
   3452   3451   3458   3461     1  0.0000000  1.2552000  3
   3452   3464   3476   7017     1  0.0000000  0.6508444  3
   3455   3451   3452   3464     1  180.0000771  2.0083200  2
   3455   3451   3452   3464     1  0.0000000  1.2552000  3
   3455   3451   3458   3461     1  180.0000771  2.0083200  2
   3455   3451   3458   3461     1  0.0000000  1.2552000  3
   3455   3467   3473   6988     1  0.0000000  0.6508444  3
   3458   3451   3452   3464     1  180.0000771  2.0083200  2
   3458   3451   3452   3464     1  0.0000000  1.2552000  3
   3458   3451   3455   3467     1  180.0000771  2.0083200  2
   3458   3451   3455   3467     1  0.0000000  1.2552000  3
   3458   3461   3470   3479     1  0.0000000  0.6508444  3
   3464   3476   7017   6989     1  180.0000771  0.4184000  2
   3464   3476   7017   6989     1  0.0000000  1.6024720  3
   3467   3473   6988   6960     1  180.0000771  0.4184000  2
   3467   3473   6988   6960     1  0.0000000  1.6024720  3
   3473   6988   6960   6963     1  180.0000771  0.4184000  2
   3473   6988   6960   6963     1  0.0000000  1.6024720  3
   3476   7017   6989   6992     1  180.0000771  0.4184000  2
   3476   7017   6989   6992     1  0.0000000  1.6024720  3
   3480   3481   3493   3505     1  0.0000000  0.6508444  3
   3480   3484   3496   3502     1  0.0000000  0.6508444  3
   3480   3487   3490   3499     1  0.0000000  0.6508444  3
   3481   3480   3484   3496     1  180.0000771  2.0083200  2
   3481   3480   3484   3496     1  0.0000000  1.2552000  3
   3481   3480   3487   3490     1  180.0000771  2.0083200  2
   3481   3480   3487   3490     1  0.0000000  1.2552000  3
   3481   3493   3505   7075     1  0.0000000  0.6508444  3
   3484   3480   3481   3493     1  180.0000771  2.0083200  2
   3484   3480   3481   3493     1  0.0000000  1.2552000  3
   3484   3480   3487   3490     1  180.0000771  2.0083200  2
   3484   3480   3487   3490     1  0.0000000  1.2552000  3
   3484   3496   3502   7046     1  0.0000000  0.6508444  3
   3487   3480   3481   3493     1  180.0000771  2.0083200  2
   3487   3480   3481   3493     1  0.0000000  1.2552000  3
   3487   3480   3484   3496     1  180.0000771  2.0083200  2
   3487   3480   3484   3496     1  0.0000000  1.2552000  3
   3487   3490   3499   3508     1  0.0000000  0.6508444  3
   3493   3505   7075   7047     1  180.0000771  0.4184000  2
   3493   3505   7075   7047     1  0.0000000  1.6024720  3
   3496   3502   7046   7018     1  180.0000771  0.4184000  2
   3496   3502   7046   7018     1  0.0000000  1.6024720  3
   3502   7046   7018   7021     1  180.0000771  0.4184000  2
   3502   7046   7018   7021     1  0.0000000  1.6024720  3
   3505   7075   7047   7050     1  180.0000771  0.4184000  2
   3505   7075   7047   7050     1  0.0000000  1.6024720  3
   3509   3510   3522   3534     1  0.0000000  0.6508444  3
   3509   3513   3525   3531     1  0.0000000  0.6508444  3
   3509   3516   3519   3528     1  0.0000000  0.6508444  3
   3510   3509   3513   3525     1  180.0000771  2.0083200  2
   3510   3509   3513   3525     1  0.0000000  1.2552000  3
   3510   3509   3516   3519     1  180.0000771  2.0083200  2
   3510   3509   3516   3519     1  0.0000000  1.2552000  3
   3510   3522   3534   7133     1  0.0000000  0.6508444  3
   3513   3509   3510   3522     1  180.0000771  2.0083200  2
   3513   3509   3510   3522     1  0.0000000  1.2552000  3
   3513   3509   3516   3519     1  180.0000771  2.0083200  2
   3513   3509   3516   3519     1  0.0000000  1.2552000  3
   3513   3525   3531   7104     1  0.0000000  0.6508444  3
   3516   3509   3510   3522     1  180.0000771  2.0083200  2
   3516   3509   3510   3522     1  0.0000000  1.2552000  3
   3516   3509   3513   3525     1  180.0000771  2.0083200  2
   3516   3509   3513   3525     1  0.0000000  1.2552000  3
   3516   3519   3528   3537     1  0.0000000  0.6508444  3
   3522   3534   7133   7105     1  180.0000771  0.4184000  2
   3522   3534   7133   7105     1  0.0000000  1.6024720  3
   3525   3531   7104   7076     1  180.0000771  0.4184000  2
   3525   3531   7104   7076     1  0.0000000  1.6024720  3
   3531   7104   7076   7079     1  180.0000771  0.4184000  2
   3531   7104   7076   7079     1  0.0000000  1.6024720  3
   3534   7133   7105   7108     1  180.0000771  0.4184000  2
   3534   7133   7105   7108     1  0.0000000  1.6024720  3
   3538   3539   3551   3563     1  0.0000000  0.6508444  3
   3538   3542   3554   3560     1  0.0000000  0.6508444  3
   3538   3545   3548   3557     1  0.0000000  0.6508444  3
   3539   3538   3542   3554     1  180.0000771  2.0083200  2
   3539   3538   3542   3554     1  0.0000000  1.2552000  3
   3539   3538   3545   3548     1  180.0000771  2.0083200  2
   3539   3538   3545   3548     1  0.0000000  1.2552000  3
   3539   3551   3563   7191     1  0.0000000  0.6508444  3
   3542   3538   3539   3551     1  180.0000771  2.0083200  2
   3542   3538   3539   3551     1  0.0000000  1.2552000  3
   3542   3538   3545   3548     1  180.0000771  2.0083200  2
   3542   3538   3545   3548     1  0.0000000  1.2552000  3
   3542   3554   3560   7162     1  0.0000000  0.6508444  3
   3545   3538   3539   3551     1  180.0000771  2.0083200  2
   3545   3538   3539   3551     1  0.0000000  1.2552000  3
   3545   3538   3542   3554     1  180.0000771  2.0083200  2
   3545   3538   3542   3554     1  0.0000000  1.2552000  3
   3545   3548   3557   3566     1  0.0000000  0.6508444  3
   3551   3563   7191   7163     1  180.0000771  0.4184000  2
   3551   3563   7191   7163     1  0.0000000  1.6024720  3
   3554   3560   7162   7134     1  180.0000771  0.4184000  2
   3554   3560   7162   7134     1  0.0000000  1.6024720  3
   3560   7162   7134   7137     1  180.0000771  0.4184000  2
   3560   7162   7134   7137     1  0.0000000  1.6024720  3
   3563   7191   7163   7166     1  180.0000771  0.4184000  2
   3563   7191   7163   7166     1  0.0000000  1.6024720  3
   3567   3568   3580   3592     1  0.0000000  0.6508444  3
   3567   3571   3583   3589     1  0.0000000  0.6508444  3
   3567   3574   3577   3586     1  0.0000000  0.6508444  3
   3568   3567   3571   3583     1  180.0000771  2.0083200  2
   3568   3567   3571   3583     1  0.0000000  1.2552000  3
   3568   3567   3574   3577     1  180.0000771  2.0083200  2
   3568   3567   3574   3577     1  0.0000000  1.2552000  3
   3568   3580   3592   7249     1  0.0000000  0.6508444  3
   3571   3567   3568   3580     1  180.0000771  2.0083200  2
   3571   3567   3568   3580     1  0.0000000  1.2552000  3
   3571   3567   3574   3577     1  180.0000771  2.0083200  2
   3571   3567   3574   3577     1  0.0000000  1.2552000  3
   3571   3583   3589   7220     1  0.0000000  0.6508444  3
   3574   3567   3568   3580     1  180.0000771  2.0083200  2
   3574   3567   3568   3580     1  0.0000000  1.2552000  3
   3574   3567   3571   3583     1  180.0000771  2.0083200  2
   3574   3567   3571   3583     1  0.0000000  1.2552000  3
   3574   3577   3586   3595     1  0.0000000  0.6508444  3
   3580   3592   7249   7221     1  180.0000771  0.4184000  2
   3580   3592   7249   7221     1  0.0000000  1.6024720  3
   3583   3589   7220   7192     1  180.0000771  0.4184000  2
   3583   3589   7220   7192     1  0.0000000  1.6024720  3
   3589   7220   7192   7195     1  180.0000771  0.4184000  2
   3589   7220   7192   7195     1  0.0000000  1.6024720  3
   3592   7249   7221   7224     1  180.0000771  0.4184000  2
   3592   7249   7221   7224     1  0.0000000  1.6024720  3
   3596   3597   3609   3621     1  0.0000000  0.6508444  3
   3596   3600   3612   3618     1  0.0000000  0.6508444  3
   3596   3603   3606   3615     1  0.0000000  0.6508444  3
   3597   3596   3600   3612     1  180.0000771  2.0083200  2
   3597   3596   3600   3612     1  0.0000000  1.2552000  3
   3597   3596   3603   3606     1  180.0000771  2.0083200  2
   3597   3596   3603   3606     1  0.0000000  1.2552000  3
   3597   3609   3621   7307     1  0.0000000  0.6508444  3
   3600   3596   3597   3609     1  180.0000771  2.0083200  2
   3600   3596   3597   3609     1  0.0000000  1.2552000  3
   3600   3596   3603   3606     1  180.0000771  2.0083200  2
   3600   3596   3603   3606     1  0.0000000  1.2552000  3
   3600   3612   3618   7278     1  0.0000000  0.6508444  3
   3603   3596   3597   3609     1  180.0000771  2.0083200  2
   3603   3596   3597   3609     1  0.0000000  1.2552000  3
   3603   3596   3600   3612     1  180.0000771  2.0083200  2
   3603   3596   3600   3612     1  0.0000000  1.2552000  3
   3603   3606   3615   3624     1  0.0000000  0.6508444  3
   3609   3621   7307   7279     1  180.0000771  0.4184000  2
   3609   3621   7307   7279     1  0.0000000  1.6024720  3
   3612   3618   7278   7250     1  180.0000771  0.4184000  2
   3612   3618   7278   7250     1  0.0000000  1.6024720  3
   3618   7278   7250   7253     1  180.0000771  0.4184000  2
   3618   7278   7250   7253     1  0.0000000  1.6024720  3
   3621   7307   7279   7282     1  180.0000771  0.4184000  2
   3621   7307   7279   7282     1  0.0000000  1.6024720  3
   3625   3626   3638   3650     1  0.0000000  0.6508444  3
   3625   3629   3641   3647     1  0.0000000  0.6508444  3
   3625   3632   3635   3644     1  0.0000000  0.6508444  3
   3626   3625   3629   3641     1  180.0000771  2.0083200  2
   3626   3625   3629   3641     1  0.0000000  1.2552000  3
   3626   3625   3632   3635     1  180.0000771  2.0083200  2
   3626   3625   3632   3635     1  0.0000000  1.2552000  3
   3626   3638   3650   7365     1  0.0000000  0.6508444  3
   3629   3625   3626   3638     1  180.0000771  2.0083200  2
   3629   3625   3626   3638     1  0.0000000  1.2552000  3
   3629   3625   3632   3635     1  180.0000771  2.0083200  2
   3629   3625   3632   3635     1  0.0000000  1.2552000  3
   3629   3641   3647   7336     1  0.0000000  0.6508444  3
   3632   3625   3626   3638     1  180.0000771  2.0083200  2
   3632   3625   3626   3638     1  0.0000000  1.2552000  3
   3632   3625   3629   3641     1  180.0000771  2.0083200  2
   3632   3625   3629   3641     1  0.0000000  1.2552000  3
   3632   3635   3644   3653     1  0.0000000  0.6508444  3
   3638   3650   7365   7337     1  180.0000771  0.4184000  2
   3638   3650   7365   7337     1  0.0000000  1.6024720  3
   3641   3647   7336   7308     1  180.0000771  0.4184000  2
   3641   3647   7336   7308     1  0.0000000  1.6024720  3
   3647   7336   7308   7311     1  180.0000771  0.4184000  2
   3647   7336   7308   7311     1  0.0000000  1.6024720  3
   3650   7365   7337   7340     1  180.0000771  0.4184000  2
   3650   7365   7337   7340     1  0.0000000  1.6024720  3
   3654   3655   3667   3679     1  0.0000000  0.6508444  3
   3654   3658   3670   3676     1  0.0000000  0.6508444  3
   3654   3661   3664   3673     1  0.0000000  0.6508444  3
   3655   3654   3658   3670     1  180.0000771  2.0083200  2
   3655   3654   3658   3670     1  0.0000000  1.2552000  3
   3655   3654   3661   3664     1  180.0000771  2.0083200  2
   3655   3654   3661   3664     1  0.0000000  1.2552000  3
   3655   3667   3679   7423     1  0.0000000  0.6508444  3
   3658   3654   3655   3667     1  180.0000771  2.0083200  2
   3658   3654   3655   3667     1  0.0000000  1.2552000  3
   3658   3654   3661   3664     1  180.0000771  2.0083200  2
   3658   3654   3661   3664     1  0.0000000  1.2552000  3
   3658   3670   3676   7394     1  0.0000000  0.6508444  3
   3661   3654   3655   3667     1  180.0000771  2.0083200  2
   3661   3654   3655   3667     1  0.0000000  1.2552000  3
   3661   3654   3658   3670     1  180.0000771  2.0083200  2
   3661   3654   3658   3670     1  0.0000000  1.2552000  3
   3661   3664   3673   3682     1  0.0000000  0.6508444  3
   3667   3679   7423   7395     1  180.0000771  0.4184000  2
   3667   3679   7423   7395     1  0.0000000  1.6024720  3
   3670   3676   7394   7366     1  180.0000771  0.4184000  2
   3670   3676   7394   7366     1  0.0000000  1.6024720  3
   3676   7394   7366   7369     1  180.0000771  0.4184000  2
   3676   7394   7366   7369     1  0.0000000  1.6024720  3
   3679   7423   7395   7398     1  180.0000771  0.4184000  2
   3679   7423   7395   7398     1  0.0000000  1.6024720  3
   3683   3684   3696   3708     1  0.0000000  0.6508444  3
   3683   3687   3699   3705     1  0.0000000  0.6508444  3
   3683   3690   3693   3702     1  0.0000000  0.6508444  3
   3684   3683   3687   3699     1  180.0000771  2.0083200  2
   3684   3683   3687   3699     1  0.0000000  1.2552000  3
   3684   3683   3690   3693     1  180.0000771  2.0083200  2
   3684   3683   3690   3693     1  0.0000000  1.2552000  3
   3684   3696   3708   7481     1  0.0000000  0.6508444  3
   3687   3683   3684   3696     1  180.0000771  2.0083200  2
   3687   3683   3684   3696     1  0.0000000  1.2552000  3
   3687   3683   3690   3693     1  180.0000771  2.0083200  2
   3687   3683   3690   3693     1  0.0000000  1.2552000  3
   3687   3699   3705   7452     1  0.0000000  0.6508444  3
   3690   3683   3684   3696     1  180.0000771  2.0083200  2
   3690   3683   3684   3696     1  0.0000000  1.2552000  3
   3690   3683   3687   3699     1  180.0000771  2.0083200  2
   3690   3683   3687   3699     1  0.0000000  1.2552000  3
   3690   3693   3702   3711     1  0.0000000  0.6508444  3
   3696   3708   7481   7453     1  180.0000771  0.4184000  2
   3696   3708   7481   7453     1  0.0000000  1.6024720  3
   3699   3705   7452   7424     1  180.0000771  0.4184000  2
   3699   3705   7452   7424     1  0.0000000  1.6024720  3
   3705   7452   7424   7427     1  180.0000771  0.4184000  2
   3705   7452   7424   7427     1  0.0000000  1.6024720  3
   3708   7481   7453   7456     1  180.0000771  0.4184000  2
   3708   7481   7453   7456     1  0.0000000  1.6024720  3
   3712   3713   3725   3737     1  0.0000000  0.6508444  3
   3712   3716   3728   3734     1  0.0000000  0.6508444  3
   3712   3719   3722   3731     1  0.0000000  0.6508444  3
   3713   3712   3716   3728     1  180.0000771  2.0083200  2
   3713   3712   3716   3728     1  0.0000000  1.2552000  3
   3713   3712   3719   3722     1  180.0000771  2.0083200  2
   3713   3712   3719   3722     1  0.0000000  1.2552000  3
   3713   3725   3737   7539     1  0.0000000  0.6508444  3
   3716   3712   3713   3725     1  180.0000771  2.0083200  2
   3716   3712   3713   3725     1  0.0000000  1.2552000  3
   3716   3712   3719   3722     1  180.0000771  2.0083200  2
   3716   3712   3719   3722     1  0.0000000  1.2552000  3
   3716   3728   3734   7510     1  0.0000000  0.6508444  3
   3719   3712   3713   3725     1  180.0000771  2.0083200  2
   3719   3712   3713   3725     1  0.0000000  1.2552000  3
   3719   3712   3716   3728     1  180.0000771  2.0083200  2
   3719   3712   3716   3728     1  0.0000000  1.2552000  3
   3719   3722   3731   3740     1  0.0000000  0.6508444  3
   3725   3737   7539   7511     1  180.0000771  0.4184000  2
   3725   3737   7539   7511     1  0.0000000  1.6024720  3
   3728   3734   7510   7482     1  180.0000771  0.4184000  2
   3728   3734   7510   7482     1  0.0000000  1.6024720  3
   3734   7510   7482   7485     1  180.0000771  0.4184000  2
   3734   7510   7482   7485     1  0.0000000  1.6024720  3
   3737   7539   7511   7514     1  180.0000771  0.4184000  2
   3737   7539   7511   7514     1  0.0000000  1.6024720  3
   3741   3742   3754   3766     1  0.0000000  0.6508444  3
   3741   3745   3757   3763     1  0.0000000  0.6508444  3
   3741   3748   3751   3760     1  0.0000000  0.6508444  3
   3742   3741   3745   3757     1  180.0000771  2.0083200  2
   3742   3741   3745   3757     1  0.0000000  1.2552000  3
   3742   3741   3748   3751     1  180.0000771  2.0083200  2
   3742   3741   3748   3751     1  0.0000000  1.2552000  3
   3742   3754   3766   7597     1  0.0000000  0.6508444  3
   3745   3741   3742   3754     1  180.0000771  2.0083200  2
   3745   3741   3742   3754     1  0.0000000  1.2552000  3
   3745   3741   3748   3751     1  180.0000771  2.0083200  2
   3745   3741   3748   3751     1  0.0000000  1.2552000  3
   3745   3757   3763   7568     1  0.0000000  0.6508444  3
   3748   3741   3742   3754     1  180.0000771  2.0083200  2
   3748   3741   3742   3754     1  0.0000000  1.2552000  3
   3748   3741   3745   3757     1  180.0000771  2.0083200  2
   3748   3741   3745   3757     1  0.0000000  1.2552000  3
   3748   3751   3760   3769     1  0.0000000  0.6508444  3
   3754   3766   7597   7569     1  180.0000771  0.4184000  2
   3754   3766   7597   7569     1  0.0000000  1.6024720  3
   3757   3763   7568   7540     1  180.0000771  0.4184000  2
   3757   3763   7568   7540     1  0.0000000  1.6024720  3
   3763   7568   7540   7543     1  180.0000771  0.4184000  2
   3763   7568   7540   7543     1  0.0000000  1.6024720  3
   3766   7597   7569   7572     1  180.0000771  0.4184000  2
   3766   7597   7569   7572     1  0.0000000  1.6024720  3
   3770   3771   3783   3795     1  0.0000000  0.6508444  3
   3770   3774   3786   3792     1  0.0000000  0.6508444  3
   3770   3777   3780   3789     1  0.0000000  0.6508444  3
   3771   3770   3774   3786     1  180.0000771  2.0083200  2
   3771   3770   3774   3786     1  0.0000000  1.2552000  3
   3771   3770   3777   3780     1  180.0000771  2.0083200  2
   3771   3770   3777   3780     1  0.0000000  1.2552000  3
   3771   3783   3795   7655     1  0.0000000  0.6508444  3
   3774   3770   3771   3783     1  180.0000771  2.0083200  2
   3774   3770   3771   3783     1  0.0000000  1.2552000  3
   3774   3770   3777   3780     1  180.0000771  2.0083200  2
   3774   3770   3777   3780     1  0.0000000  1.2552000  3
   3774   3786   3792   7626     1  0.0000000  0.6508444  3
   3777   3770   3771   3783     1  180.0000771  2.0083200  2
   3777   3770   3771   3783     1  0.0000000  1.2552000  3
   3777   3770   3774   3786     1  180.0000771  2.0083200  2
   3777   3770   3774   3786     1  0.0000000  1.2552000  3
   3777   3780   3789   3798     1  0.0000000  0.6508444  3
   3783   3795   7655   7627     1  180.0000771  0.4184000  2
   3783   3795   7655   7627     1  0.0000000  1.6024720  3
   3786   3792   7626   7598     1  180.0000771  0.4184000  2
   3786   3792   7626   7598     1  0.0000000  1.6024720  3
   3792   7626   7598   7601     1  180.0000771  0.4184000  2
   3792   7626   7598   7601     1  0.0000000  1.6024720  3
   3795   7655   7627   7630     1  180.0000771  0.4184000  2
   3795   7655   7627   7630     1  0.0000000  1.6024720  3
   3799   3800   3812   3824     1  0.0000000  0.6508444  3
   3799   3803   3815   3821     1  0.0000000  0.6508444  3
   3799   3806   3809   3818     1  0.0000000  0.6508444  3
   3800   3799   3803   3815     1  180.0000771  2.0083200  2
   3800   3799   3803   3815     1  0.0000000  1.2552000  3
   3800   3799   3806   3809     1  180.0000771  2.0083200  2
   3800   3799   3806   3809     1  0.0000000  1.2552000  3
   3800   3812   3824   7713     1  0.0000000  0.6508444  3
   3803   3799   3800   3812     1  180.0000771  2.0083200  2
   3803   3799   3800   3812     1  0.0000000  1.2552000  3
   3803   3799   3806   3809     1  180.0000771  2.0083200  2
   3803   3799   3806   3809     1  0.0000000  1.2552000  3
   3803   3815   3821   7684     1  0.0000000  0.6508444  3
   3806   3799   3800   3812     1  180.0000771  2.0083200  2
   3806   3799   3800   3812     1  0.0000000  1.2552000  3
   3806   3799   3803   3815     1  180.0000771  2.0083200  2
   3806   3799   3803   3815     1  0.0000000  1.2552000  3
   3806   3809   3818   3827     1  0.0000000  0.6508444  3
   3812   3824   7713   7685     1  180.0000771  0.4184000  2
   3812   3824   7713   7685     1  0.0000000  1.6024720  3
   3815   3821   7684   7656     1  180.0000771  0.4184000  2
   3815   3821   7684   7656     1  0.0000000  1.6024720  3
   3821   7684   7656   7659     1  180.0000771  0.4184000  2
   3821   7684   7656   7659     1  0.0000000  1.6024720  3
   3824   7713   7685   7688     1  180.0000771  0.4184000  2
   3824   7713   7685   7688     1  0.0000000  1.6024720  3
   3828   3829   3841   3853     1  0.0000000  0.6508444  3
   3828   3832   3844   3850     1  0.0000000  0.6508444  3
   3828   3835   3838   3847     1  0.0000000  0.6508444  3
   3829   3828   3832   3844     1  180.0000771  2.0083200  2
   3829   3828   3832   3844     1  0.0000000  1.2552000  3
   3829   3828   3835   3838     1  180.0000771  2.0083200  2
   3829   3828   3835   3838     1  0.0000000  1.2552000  3
   3829   3841   3853   7771     1  0.0000000  0.6508444  3
   3832   3828   3829   3841     1  180.0000771  2.0083200  2
   3832   3828   3829   3841     1  0.0000000  1.2552000  3
   3832   3828   3835   3838     1  180.0000771  2.0083200  2
   3832   3828   3835   3838     1  0.0000000  1.2552000  3
   3832   3844   3850   7742     1  0.0000000  0.6508444  3
   3835   3828   3829   3841     1  180.0000771  2.0083200  2
   3835   3828   3829   3841     1  0.0000000  1.2552000  3
   3835   3828   3832   3844     1  180.0000771  2.0083200  2
   3835   3828   3832   3844     1  0.0000000  1.2552000  3
   3835   3838   3847   3856     1  0.0000000  0.6508444  3
   3841   3853   7771   7743     1  180.0000771  0.4184000  2
   3841   3853   7771   7743     1  0.0000000  1.6024720  3
   3844   3850   7742   7714     1  180.0000771  0.4184000  2
   3844   3850   7742   7714     1  0.0000000  1.6024720  3
   3850   7742   7714   7717     1  180.0000771  0.4184000  2
   3850   7742   7714   7717     1  0.0000000  1.6024720  3
   3853   7771   7743   7746     1  180.0000771  0.4184000  2
   3853   7771   7743   7746     1  0.0000000  1.6024720  3
   3857   3858   3870   3882     1  0.0000000  0.6508444  3
   3857   3861   3873   3879     1  0.0000000  0.6508444  3
   3857   3864   3867   3876     1  0.0000000  0.6508444  3
   3858   3857   3861   3873     1  180.0000771  2.0083200  2
   3858   3857   3861   3873     1  0.0000000  1.2552000  3
   3858   3857   3864   3867     1  180.0000771  2.0083200  2
   3858   3857   3864   3867     1  0.0000000  1.2552000  3
   3858   3870   3882   7829     1  0.0000000  0.6508444  3
   3861   3857   3858   3870     1  180.0000771  2.0083200  2
   3861   3857   3858   3870     1  0.0000000  1.2552000  3
   3861   3857   3864   3867     1  180.0000771  2.0083200  2
   3861   3857   3864   3867     1  0.0000000  1.2552000  3
   3861   3873   3879   7800     1  0.0000000  0.6508444  3
   3864   3857   3858   3870     1  180.0000771  2.0083200  2
   3864   3857   3858   3870     1  0.0000000  1.2552000  3
   3864   3857   3861   3873     1  180.0000771  2.0083200  2
   3864   3857   3861   3873     1  0.0000000  1.2552000  3
   3864   3867   3876   3885     1  0.0000000  0.6508444  3
   3870   3882   7829   7801     1  180.0000771  0.4184000  2
   3870   3882   7829   7801     1  0.0000000  1.6024720  3
   3873   3879   7800   7772     1  180.0000771  0.4184000  2
   3873   3879   7800   7772     1  0.0000000  1.6024720  3
   3879   7800   7772   7775     1  180.0000771  0.4184000  2
   3879   7800   7772   7775     1  0.0000000  1.6024720  3
   3882   7829   7801   7804     1  180.0000771  0.4184000  2
   3882   7829   7801   7804     1  0.0000000  1.6024720  3
   3886   3887   3899   3911     1  0.0000000  0.6508444  3
   3886   3890   3902   3908     1  0.0000000  0.6508444  3
   3886   3893   3896   3905     1  0.0000000  0.6508444  3
   3887   3886   3890   3902     1  180.0000771  2.0083200  2
   3887   3886   3890   3902     1  0.0000000  1.2552000  3
   3887   3886   3893   3896     1  180.0000771  2.0083200  2
   3887   3886   3893   3896     1  0.0000000  1.2552000  3
   3887   3899   3911   7887     1  0.0000000  0.6508444  3
   3890   3886   3887   3899     1  180.0000771  2.0083200  2
   3890   3886   3887   3899     1  0.0000000  1.2552000  3
   3890   3886   3893   3896     1  180.0000771  2.0083200  2
   3890   3886   3893   3896     1  0.0000000  1.2552000  3
   3890   3902   3908   7858     1  0.0000000  0.6508444  3
   3893   3886   3887   3899     1  180.0000771  2.0083200  2
   3893   3886   3887   3899     1  0.0000000  1.2552000  3
   3893   3886   3890   3902     1  180.0000771  2.0083200  2
   3893   3886   3890   3902     1  0.0000000  1.2552000  3
   3893   3896   3905   3914     1  0.0000000  0.6508444  3
   3899   3911   7887   7859     1  180.0000771  0.4184000  2
   3899   3911   7887   7859     1  0.0000000  1.6024720  3
   3902   3908   7858   7830     1  180.0000771  0.4184000  2
   3902   3908   7858   7830     1  0.0000000  1.6024720  3
   3908   7858   7830   7833     1  180.0000771  0.4184000  2
   3908   7858   7830   7833     1  0.0000000  1.6024720  3
   3911   7887   7859   7862     1  180.0000771  0.4184000  2
   3911   7887   7859   7862     1  0.0000000  1.6024720  3
   3915   3916   3928   3940     1  0.0000000  0.6508444  3
   3915   3919   3931   3937     1  0.0000000  0.6508444  3
   3915   3922   3925   3934     1  0.0000000  0.6508444  3
   3916   3915   3919   3931     1  180.0000771  2.0083200  2
   3916   3915   3919   3931     1  0.0000000  1.2552000  3
   3916   3915   3922   3925     1  180.0000771  2.0083200  2
   3916   3915   3922   3925     1  0.0000000  1.2552000  3
   3916   3928   3940   7945     1  0.0000000  0.6508444  3
   3919   3915   3916   3928     1  180.0000771  2.0083200  2
   3919   3915   3916   3928     1  0.0000000  1.2552000  3
   3919   3915   3922   3925     1  180.0000771  2.0083200  2
   3919   3915   3922   3925     1  0.0000000  1.2552000  3
   3919   3931   3937   7916     1  0.0000000  0.6508444  3
   3922   3915   3916   3928     1  180.0000771  2.0083200  2
   3922   3915   3916   3928     1  0.0000000  1.2552000  3
   3922   3915   3919   3931     1  180.0000771  2.0083200  2
   3922   3915   3919   3931     1  0.0000000  1.2552000  3
   3922   3925   3934   3943     1  0.0000000  0.6508444  3
   3928   3940   7945   7917     1  180.0000771  0.4184000  2
   3928   3940   7945   7917     1  0.0000000  1.6024720  3
   3931   3937   7916   7888     1  180.0000771  0.4184000  2
   3931   3937   7916   7888     1  0.0000000  1.6024720  3
   3937   7916   7888   7891     1  180.0000771  0.4184000  2
   3937   7916   7888   7891     1  0.0000000  1.6024720  3
   3940   7945   7917   7920     1  180.0000771  0.4184000  2
   3940   7945   7917   7920     1  0.0000000  1.6024720  3
   3944   3945   3957   3969     1  0.0000000  0.6508444  3
   3944   3948   3960   3966     1  0.0000000  0.6508444  3
   3944   3951   3954   3963     1  0.0000000  0.6508444  3
   3945   3944   3948   3960     1  180.0000771  2.0083200  2
   3945   3944   3948   3960     1  0.0000000  1.2552000  3
   3945   3944   3951   3954     1  180.0000771  2.0083200  2
   3945   3944   3951   3954     1  0.0000000  1.2552000  3
   3945   3957   3969   8003     1  0.0000000  0.6508444  3
   3948   3944   3945   3957     1  180.0000771  2.0083200  2
   3948   3944   3945   3957     1  0.0000000  1.2552000  3
   3948   3944   3951   3954     1  180.0000771  2.0083200  2
   3948   3944   3951   3954     1  0.0000000  1.2552000  3
   3948   3960   3966   7974     1  0.0000000  0.6508444  3
   3951   3944   3945   3957     1  180.0000771  2.0083200  2
   3951   3944   3945   3957     1  0.0000000  1.2552000  3
   3951   3944   3948   3960     1  180.0000771  2.0083200  2
   3951   3944   3948   3960     1  0.0000000  1.2552000  3
   3951   3954   3963   3972     1  0.0000000  0.6508444  3
   3957   3969   8003   7975     1  180.0000771  0.4184000  2
   3957   3969   8003   7975     1  0.0000000  1.6024720  3
   3960   3966   7974   7946     1  180.0000771  0.4184000  2
   3960   3966   7974   7946     1  0.0000000  1.6024720  3
   3966   7974   7946   7949     1  180.0000771  0.4184000  2
   3966   7974   7946   7949     1  0.0000000  1.6024720  3
   3969   8003   7975   7978     1  180.0000771  0.4184000  2
   3969   8003   7975   7978     1  0.0000000  1.6024720  3
   3973   3974   3986   3998     1  0.0000000  0.6508444  3
   3973   3977   3989   3995     1  0.0000000  0.6508444  3
   3973   3980   3983   3992     1  0.0000000  0.6508444  3
   3974   3973   3977   3989     1  180.0000771  2.0083200  2
   3974   3973   3977   3989     1  0.0000000  1.2552000  3
   3974   3973   3980   3983     1  180.0000771  2.0083200  2
   3974   3973   3980   3983     1  0.0000000  1.2552000  3
   3974   3986   3998   8061     1  0.0000000  0.6508444  3
   3977   3973   3974   3986     1  180.0000771  2.0083200  2
   3977   3973   3974   3986     1  0.0000000  1.2552000  3
   3977   3973   3980   3983     1  180.0000771  2.0083200  2
   3977   3973   3980   3983     1  0.0000000  1.2552000  3
   3977   3989   3995   8032     1  0.0000000  0.6508444  3
   3980   3973   3974   3986     1  180.0000771  2.0083200  2
   3980   3973   3974   3986     1  0.0000000  1.2552000  3
   3980   3973   3977   3989     1  180.0000771  2.0083200  2
   3980   3973   3977   3989     1  0.0000000  1.2552000  3
   3980   3983   3992   4001     1  0.0000000  0.6508444  3
   3986   3998   8061   8033     1  180.0000771  0.4184000  2
   3986   3998   8061   8033     1  0.0000000  1.6024720  3
   3989   3995   8032   8004     1  180.0000771  0.4184000  2
   3989   3995   8032   8004     1  0.0000000  1.6024720  3
   3995   8032   8004   8007     1  180.0000771  0.4184000  2
   3995   8032   8004   8007     1  0.0000000  1.6024720  3
   3998   8061   8033   8036     1  180.0000771  0.4184000  2
   3998   8061   8033   8036     1  0.0000000  1.6024720  3
   4002   4003   4015   4027     1  0.0000000  0.6508444  3
   4002   4006   4018   4024     1  0.0000000  0.6508444  3
   4002   4009   4012   4021     1  0.0000000  0.6508444  3
   4003   4002   4006   4018     1  180.0000771  2.0083200  2
   4003   4002   4006   4018     1  0.0000000  1.2552000  3
   4003   4002   4009   4012     1  180.0000771  2.0083200  2
   4003   4002   4009   4012     1  0.0000000  1.2552000  3
   4003   4015   4027   8119     1  0.0000000  0.6508444  3
   4006   4002   4003   4015     1  180.0000771  2.0083200  2
   4006   4002   4003   4015     1  0.0000000  1.2552000  3
   4006   4002   4009   4012     1  180.0000771  2.0083200  2
   4006   4002   4009   4012     1  0.0000000  1.2552000  3
   4006   4018   4024   8090     1  0.0000000  0.6508444  3
   4009   4002   4003   4015     1  180.0000771  2.0083200  2
   4009   4002   4003   4015     1  0.0000000  1.2552000  3
   4009   4002   4006   4018     1  180.0000771  2.0083200  2
   4009   4002   4006   4018     1  0.0000000  1.2552000  3
   4009   4012   4021   4030     1  0.0000000  0.6508444  3
   4015   4027   8119   8091     1  180.0000771  0.4184000  2
   4015   4027   8119   8091     1  0.0000000  1.6024720  3
   4018   4024   8090   8062     1  180.0000771  0.4184000  2
   4018   4024   8090   8062     1  0.0000000  1.6024720  3
   4024   8090   8062   8065     1  180.0000771  0.4184000  2
   4024   8090   8062   8065     1  0.0000000  1.6024720  3
   4027   8119   8091   8094     1  180.0000771  0.4184000  2
   4027   8119   8091   8094     1  0.0000000  1.6024720  3
   4031   4032   4044   4056     1  0.0000000  0.6508444  3
   4031   4035   4047   4053     1  0.0000000  0.6508444  3
   4031   4038   4041   4050     1  0.0000000  0.6508444  3
   4032   4031   4035   4047     1  180.0000771  2.0083200  2
   4032   4031   4035   4047     1  0.0000000  1.2552000  3
   4032   4031   4038   4041     1  180.0000771  2.0083200  2
   4032   4031   4038   4041     1  0.0000000  1.2552000  3
   4032   4044   4056   8177     1  0.0000000  0.6508444  3
   4035   4031   4032   4044     1  180.0000771  2.0083200  2
   4035   4031   4032   4044     1  0.0000000  1.2552000  3
   4035   4031   4038   4041     1  180.0000771  2.0083200  2
   4035   4031   4038   4041     1  0.0000000  1.2552000  3
   4035   4047   4053   8148     1  0.0000000  0.6508444  3
   4038   4031   4032   4044     1  180.0000771  2.0083200  2
   4038   4031   4032   4044     1  0.0000000  1.2552000  3
   4038   4031   4035   4047     1  180.0000771  2.0083200  2
   4038   4031   4035   4047     1  0.0000000  1.2552000  3
   4038   4041   4050   4059     1  0.0000000  0.6508444  3
   4044   4056   8177   8149     1  180.0000771  0.4184000  2
   4044   4056   8177   8149     1  0.0000000  1.6024720  3
   4047   4053   8148   8120     1  180.0000771  0.4184000  2
   4047   4053   8148   8120     1  0.0000000  1.6024720  3
   4053   8148   8120   8123     1  180.0000771  0.4184000  2
   4053   8148   8120   8123     1  0.0000000  1.6024720  3
   4056   8177   8149   8152     1  180.0000771  0.4184000  2
   4056   8177   8149   8152     1  0.0000000  1.6024720  3
   4060   4061   4073   4085     1  0.0000000  0.6508444  3
   4060   4064   4076   4082     1  0.0000000  0.6508444  3
   4060   4067   4070   4079     1  0.0000000  0.6508444  3
   4061   4060   4064   4076     1  180.0000771  2.0083200  2
   4061   4060   4064   4076     1  0.0000000  1.2552000  3
   4061   4060   4067   4070     1  180.0000771  2.0083200  2
   4061   4060   4067   4070     1  0.0000000  1.2552000  3
   4061   4073   4085   8235     1  0.0000000  0.6508444  3
   4064   4060   4061   4073     1  180.0000771  2.0083200  2
   4064   4060   4061   4073     1  0.0000000  1.2552000  3
   4064   4060   4067   4070     1  180.0000771  2.0083200  2
   4064   4060   4067   4070     1  0.0000000  1.2552000  3
   4064   4076   4082   8206     1  0.0000000  0.6508444  3
   4067   4060   4061   4073     1  180.0000771  2.0083200  2
   4067   4060   4061   4073     1  0.0000000  1.2552000  3
   4067   4060   4064   4076     1  180.0000771  2.0083200  2
   4067   4060   4064   4076     1  0.0000000  1.2552000  3
   4067   4070   4079   4088     1  0.0000000  0.6508444  3
   4073   4085   8235   8207     1  180.0000771  0.4184000  2
   4073   4085   8235   8207     1  0.0000000  1.6024720  3
   4076   4082   8206   8178     1  180.0000771  0.4184000  2
   4076   4082   8206   8178     1  0.0000000  1.6024720  3
   4082   8206   8178   8181     1  180.0000771  0.4184000  2
   4082   8206   8178   8181     1  0.0000000  1.6024720  3
   4085   8235   8207   8210     1  180.0000771  0.4184000  2
   4085   8235   8207   8210     1  0.0000000  1.6024720  3
   4089   4090   4102   4114     1  0.0000000  0.6508444  3
   4089   4093   4105   4111     1  0.0000000  0.6508444  3
   4089   4096   4099   4108     1  0.0000000  0.6508444  3
   4090   4089   4093   4105     1  180.0000771  2.0083200  2
   4090   4089   4093   4105     1  0.0000000  1.2552000  3
   4090   4089   4096   4099     1  180.0000771  2.0083200  2
   4090   4089   4096   4099     1  0.0000000  1.2552000  3
   4090   4102   4114   8293     1  0.0000000  0.6508444  3
   4093   4089   4090   4102     1  180.0000771  2.0083200  2
   4093   4089   4090   4102     1  0.0000000  1.2552000  3
   4093   4089   4096   4099     1  180.0000771  2.0083200  2
   4093   4089   4096   4099     1  0.0000000  1.2552000  3
   4093   4105   4111   8264     1  0.0000000  0.6508444  3
   4096   4089   4090   4102     1  180.0000771  2.0083200  2
   4096   4089   4090   4102     1  0.0000000  1.2552000  3
   4096   4089   4093   4105     1  180.0000771  2.0083200  2
   4096   4089   4093   4105     1  0.0000000  1.2552000  3
   4096   4099   4108   4117     1  0.0000000  0.6508444  3
   4102   4114   8293   8265     1  180.0000771  0.4184000  2
   4102   4114   8293   8265     1  0.0000000  1.6024720  3
   4105   4111   8264   8236     1  180.0000771  0.4184000  2
   4105   4111   8264   8236     1  0.0000000  1.6024720  3
   4111   8264   8236   8239     1  180.0000771  0.4184000  2
   4111   8264   8236   8239     1  0.0000000  1.6024720  3
   4114   8293   8265   8268     1  180.0000771  0.4184000  2
   4114   8293   8265   8268     1  0.0000000  1.6024720  3
   4118   4119   4131   4143     1  0.0000000  0.6508444  3
   4118   4122   4134   4140     1  0.0000000  0.6508444  3
   4118   4125   4128   4137     1  0.0000000  0.6508444  3
   4119   4118   4122   4134     1  180.0000771  2.0083200  2
   4119   4118   4122   4134     1  0.0000000  1.2552000  3
   4119   4118   4125   4128     1  180.0000771  2.0083200  2
   4119   4118   4125   4128     1  0.0000000  1.2552000  3
   4119   4131   4143   8351     1  0.0000000  0.6508444  3
   4122   4118   4119   4131     1  180.0000771  2.0083200  2
   4122   4118   4119   4131     1  0.0000000  1.2552000  3
   4122   4118   4125   4128     1  180.0000771  2.0083200  2
   4122   4118   4125   4128     1  0.0000000  1.2552000  3
   4122   4134   4140   8322     1  0.0000000  0.6508444  3
   4125   4118   4119   4131     1  180.0000771  2.0083200  2
   4125   4118   4119   4131     1  0.0000000  1.2552000  3
   4125   4118   4122   4134     1  180.0000771  2.0083200  2
   4125   4118   4122   4134     1  0.0000000  1.2552000  3
   4125   4128   4137   4146     1  0.0000000  0.6508444  3
   4131   4143   8351   8323     1  180.0000771  0.4184000  2
   4131   4143   8351   8323     1  0.0000000  1.6024720  3
   4134   4140   8322   8294     1  180.0000771  0.4184000  2
   4134   4140   8322   8294     1  0.0000000  1.6024720  3
   4140   8322   8294   8297     1  180.0000771  0.4184000  2
   4140   8322   8294   8297     1  0.0000000  1.6024720  3
   4143   8351   8323   8326     1  180.0000771  0.4184000  2
   4143   8351   8323   8326     1  0.0000000  1.6024720  3
   4147   4148   4160   4172     1  0.0000000  0.6508444  3
   4147   4151   4163   4169     1  0.0000000  0.6508444  3
   4147   4154   4157   4166     1  0.0000000  0.6508444  3
   4148   4147   4151   4163     1  180.0000771  2.0083200  2
   4148   4147   4151   4163     1  0.0000000  1.2552000  3
   4148   4147   4154   4157     1  180.0000771  2.0083200  2
   4148   4147   4154   4157     1  0.0000000  1.2552000  3
   4148   4160   4172   8409     1  0.0000000  0.6508444  3
   4151   4147   4148   4160     1  180.0000771  2.0083200  2
   4151   4147   4148   4160     1  0.0000000  1.2552000  3
   4151   4147   4154   4157     1  180.0000771  2.0083200  2
   4151   4147   4154   4157     1  0.0000000  1.2552000  3
   4151   4163   4169   8380     1  0.0000000  0.6508444  3
   4154   4147   4148   4160     1  180.0000771  2.0083200  2
   4154   4147   4148   4160     1  0.0000000  1.2552000  3
   4154   4147   4151   4163     1  180.0000771  2.0083200  2
   4154   4147   4151   4163     1  0.0000000  1.2552000  3
   4154   4157   4166   4175     1  0.0000000  0.6508444  3
   4160   4172   8409   8381     1  180.0000771  0.4184000  2
   4160   4172   8409   8381     1  0.0000000  1.6024720  3
   4163   4169   8380   8352     1  180.0000771  0.4184000  2
   4163   4169   8380   8352     1  0.0000000  1.6024720  3
   4169   8380   8352   8355     1  180.0000771  0.4184000  2
   4169   8380   8352   8355     1  0.0000000  1.6024720  3
   4172   8409   8381   8384     1  180.0000771  0.4184000  2
   4172   8409   8381   8384     1  0.0000000  1.6024720  3
   4176   4177   4189   4201     1  0.0000000  0.6508444  3
   4176   4180   4192   4198     1  0.0000000  0.6508444  3
   4176   4183   4186   4195     1  0.0000000  0.6508444  3
   4177   4176   4180   4192     1  180.0000771  2.0083200  2
   4177   4176   4180   4192     1  0.0000000  1.2552000  3
   4177   4176   4183   4186     1  180.0000771  2.0083200  2
   4177   4176   4183   4186     1  0.0000000  1.2552000  3
   4177   4189   4201   8467     1  0.0000000  0.6508444  3
   4180   4176   4177   4189     1  180.0000771  2.0083200  2
   4180   4176   4177   4189     1  0.0000000  1.2552000  3
   4180   4176   4183   4186     1  180.0000771  2.0083200  2
   4180   4176   4183   4186     1  0.0000000  1.2552000  3
   4180   4192   4198   8438     1  0.0000000  0.6508444  3
   4183   4176   4177   4189     1  180.0000771  2.0083200  2
   4183   4176   4177   4189     1  0.0000000  1.2552000  3
   4183   4176   4180   4192     1  180.0000771  2.0083200  2
   4183   4176   4180   4192     1  0.0000000  1.2552000  3
   4183   4186   4195   4204     1  0.0000000  0.6508444  3
   4189   4201   8467   8439     1  180.0000771  0.4184000  2
   4189   4201   8467   8439     1  0.0000000  1.6024720  3
   4192   4198   8438   8410     1  180.0000771  0.4184000  2
   4192   4198   8438   8410     1  0.0000000  1.6024720  3
   4198   8438   8410   8413     1  180.0000771  0.4184000  2
   4198   8438   8410   8413     1  0.0000000  1.6024720  3
   4201   8467   8439   8442     1  180.0000771  0.4184000  2
   4201   8467   8439   8442     1  0.0000000  1.6024720  3
   4205   4206   4218   4230     1  0.0000000  0.6508444  3
   4205   4209   4221   4227     1  0.0000000  0.6508444  3
   4205   4212   4215   4224     1  0.0000000  0.6508444  3
   4206   4205   4209   4221     1  180.0000771  2.0083200  2
   4206   4205   4209   4221     1  0.0000000  1.2552000  3
   4206   4205   4212   4215     1  180.0000771  2.0083200  2
   4206   4205   4212   4215     1  0.0000000  1.2552000  3
   4206   4218   4230   8525     1  0.0000000  0.6508444  3
   4209   4205   4206   4218     1  180.0000771  2.0083200  2
   4209   4205   4206   4218     1  0.0000000  1.2552000  3
   4209   4205   4212   4215     1  180.0000771  2.0083200  2
   4209   4205   4212   4215     1  0.0000000  1.2552000  3
   4209   4221   4227   8496     1  0.0000000  0.6508444  3
   4212   4205   4206   4218     1  180.0000771  2.0083200  2
   4212   4205   4206   4218     1  0.0000000  1.2552000  3
   4212   4205   4209   4221     1  180.0000771  2.0083200  2
   4212   4205   4209   4221     1  0.0000000  1.2552000  3
   4212   4215   4224   4233     1  0.0000000  0.6508444  3
   4218   4230   8525   8497     1  180.0000771  0.4184000  2
   4218   4230   8525   8497     1  0.0000000  1.6024720  3
   4221   4227   8496   8468     1  180.0000771  0.4184000  2
   4221   4227   8496   8468     1  0.0000000  1.6024720  3
   4227   8496   8468   8471     1  180.0000771  0.4184000  2
   4227   8496   8468   8471     1  0.0000000  1.6024720  3
   4230   8525   8497   8500     1  180.0000771  0.4184000  2
   4230   8525   8497   8500     1  0.0000000  1.6024720  3
   4234   4235   4247   4259     1  0.0000000  0.6508444  3
   4234   4238   4250   4256     1  0.0000000  0.6508444  3
   4234   4241   4244   4253     1  0.0000000  0.6508444  3
   4235   4234   4238   4250     1  180.0000771  2.0083200  2
   4235   4234   4238   4250     1  0.0000000  1.2552000  3
   4235   4234   4241   4244     1  180.0000771  2.0083200  2
   4235   4234   4241   4244     1  0.0000000  1.2552000  3
   4235   4247   4259   8583     1  0.0000000  0.6508444  3
   4238   4234   4235   4247     1  180.0000771  2.0083200  2
   4238   4234   4235   4247     1  0.0000000  1.2552000  3
   4238   4234   4241   4244     1  180.0000771  2.0083200  2
   4238   4234   4241   4244     1  0.0000000  1.2552000  3
   4238   4250   4256   8554     1  0.0000000  0.6508444  3
   4241   4234   4235   4247     1  180.0000771  2.0083200  2
   4241   4234   4235   4247     1  0.0000000  1.2552000  3
   4241   4234   4238   4250     1  180.0000771  2.0083200  2
   4241   4234   4238   4250     1  0.0000000  1.2552000  3
   4241   4244   4253   4262     1  0.0000000  0.6508444  3
   4247   4259   8583   8555     1  180.0000771  0.4184000  2
   4247   4259   8583   8555     1  0.0000000  1.6024720  3
   4250   4256   8554   8526     1  180.0000771  0.4184000  2
   4250   4256   8554   8526     1  0.0000000  1.6024720  3
   4256   8554   8526   8529     1  180.0000771  0.4184000  2
   4256   8554   8526   8529     1  0.0000000  1.6024720  3
   4259   8583   8555   8558     1  180.0000771  0.4184000  2
   4259   8583   8555   8558     1  0.0000000  1.6024720  3
   4263   4264   4276   4288     1  0.0000000  0.6508444  3
   4263   4267   4279   4285     1  0.0000000  0.6508444  3
   4263   4270   4273   4282     1  0.0000000  0.6508444  3
   4264   4263   4267   4279     1  180.0000771  2.0083200  2
   4264   4263   4267   4279     1  0.0000000  1.2552000  3
   4264   4263   4270   4273     1  180.0000771  2.0083200  2
   4264   4263   4270   4273     1  0.0000000  1.2552000  3
   4264   4276   4288   8641     1  0.0000000  0.6508444  3
   4267   4263   4264   4276     1  180.0000771  2.0083200  2
   4267   4263   4264   4276     1  0.0000000  1.2552000  3
   4267   4263   4270   4273     1  180.0000771  2.0083200  2
   4267   4263   4270   4273     1  0.0000000  1.2552000  3
   4267   4279   4285   8612     1  0.0000000  0.6508444  3
   4270   4263   4264   4276     1  180.0000771  2.0083200  2
   4270   4263   4264   4276     1  0.0000000  1.2552000  3
   4270   4263   4267   4279     1  180.0000771  2.0083200  2
   4270   4263   4267   4279     1  0.0000000  1.2552000  3
   4270   4273   4282   4291     1  0.0000000  0.6508444  3
   4276   4288   8641   8613     1  180.0000771  0.4184000  2
   4276   4288   8641   8613     1  0.0000000  1.6024720  3
   4279   4285   8612   8584     1  180.0000771  0.4184000  2
   4279   4285   8612   8584     1  0.0000000  1.6024720  3
   4285   8612   8584   8587     1  180.0000771  0.4184000  2
   4285   8612   8584   8587     1  0.0000000  1.6024720  3
   4288   8641   8613   8616     1  180.0000771  0.4184000  2
   4288   8641   8613   8616     1  0.0000000  1.6024720  3
   4292   4293   4305   4317     1  0.0000000  0.6508444  3
   4292   4296   4308   4314     1  0.0000000  0.6508444  3
   4292   4299   4302   4311     1  0.0000000  0.6508444  3
   4293   4292   4296   4308     1  180.0000771  2.0083200  2
   4293   4292   4296   4308     1  0.0000000  1.2552000  3
   4293   4292   4299   4302     1  180.0000771  2.0083200  2
   4293   4292   4299   4302     1  0.0000000  1.2552000  3
   4293   4305   4317   8699     1  0.0000000  0.6508444  3
   4296   4292   4293   4305     1  180.0000771  2.0083200  2
   4296   4292   4293   4305     1  0.0000000  1.2552000  3
   4296   4292   4299   4302     1  180.0000771  2.0083200  2
   4296   4292   4299   4302     1  0.0000000  1.2552000  3
   4296   4308   4314   8670     1  0.0000000  0.6508444  3
   4299   4292   4293   4305     1  180.0000771  2.0083200  2
   4299   4292   4293   4305     1  0.0000000  1.2552000  3
   4299   4292   4296   4308     1  180.0000771  2.0083200  2
   4299   4292   4296   4308     1  0.0000000  1.2552000  3
   4299   4302   4311   4320     1  0.0000000  0.6508444  3
   4305   4317   8699   8671     1  180.0000771  0.4184000  2
   4305   4317   8699   8671     1  0.0000000  1.6024720  3
   4308   4314   8670   8642     1  180.0000771  0.4184000  2
   4308   4314   8670   8642     1  0.0000000  1.6024720  3
   4314   8670   8642   8645     1  180.0000771  0.4184000  2
   4314   8670   8642   8645     1  0.0000000  1.6024720  3
   4317   8699   8671   8674     1  180.0000771  0.4184000  2
   4317   8699   8671   8674     1  0.0000000  1.6024720  3
   4321   4322   4334   4346     1  0.0000000  0.6508444  3
   4321   4325   4337   4343     1  0.0000000  0.6508444  3
   4321   4328   4331   4340     1  0.0000000  0.6508444  3
   4322   4321   4325   4337     1  180.0000771  2.0083200  2
   4322   4321   4325   4337     1  0.0000000  1.2552000  3
   4322   4321   4328   4331     1  180.0000771  2.0083200  2
   4322   4321   4328   4331     1  0.0000000  1.2552000  3
   4322   4334   4346   8757     1  0.0000000  0.6508444  3
   4325   4321   4322   4334     1  180.0000771  2.0083200  2
   4325   4321   4322   4334     1  0.0000000  1.2552000  3
   4325   4321   4328   4331     1  180.0000771  2.0083200  2
   4325   4321   4328   4331     1  0.0000000  1.2552000  3
   4325   4337   4343   8728     1  0.0000000  0.6508444  3
   4328   4321   4322   4334     1  180.0000771  2.0083200  2
   4328   4321   4322   4334     1  0.0000000  1.2552000  3
   4328   4321   4325   4337     1  180.0000771  2.0083200  2
   4328   4321   4325   4337     1  0.0000000  1.2552000  3
   4328   4331   4340   4349     1  0.0000000  0.6508444  3
   4334   4346   8757   8729     1  180.0000771  0.4184000  2
   4334   4346   8757   8729     1  0.0000000  1.6024720  3
   4337   4343   8728   8700     1  180.0000771  0.4184000  2
   4337   4343   8728   8700     1  0.0000000  1.6024720  3
   4343   8728   8700   8703     1  180.0000771  0.4184000  2
   4343   8728   8700   8703     1  0.0000000  1.6024720  3
   4346   8757   8729   8732     1  180.0000771  0.4184000  2
   4346   8757   8729   8732     1  0.0000000  1.6024720  3
   4350   4351   4363   4375     1  0.0000000  0.6508444  3
   4350   4354   4366   4372     1  0.0000000  0.6508444  3
   4350   4357   4360   4369     1  0.0000000  0.6508444  3
   4351   4350   4354   4366     1  180.0000771  2.0083200  2
   4351   4350   4354   4366     1  0.0000000  1.2552000  3
   4351   4350   4357   4360     1  180.0000771  2.0083200  2
   4351   4350   4357   4360     1  0.0000000  1.2552000  3
   4351   4363   4375   8815     1  0.0000000  0.6508444  3
   4354   4350   4351   4363     1  180.0000771  2.0083200  2
   4354   4350   4351   4363     1  0.0000000  1.2552000  3
   4354   4350   4357   4360     1  180.0000771  2.0083200  2
   4354   4350   4357   4360     1  0.0000000  1.2552000  3
   4354   4366   4372   8786     1  0.0000000  0.6508444  3
   4357   4350   4351   4363     1  180.0000771  2.0083200  2
   4357   4350   4351   4363     1  0.0000000  1.2552000  3
   4357   4350   4354   4366     1  180.0000771  2.0083200  2
   4357   4350   4354   4366     1  0.0000000  1.2552000  3
   4357   4360   4369   4378     1  0.0000000  0.6508444  3
   4363   4375   8815   8787     1  180.0000771  0.4184000  2
   4363   4375   8815   8787     1  0.0000000  1.6024720  3
   4366   4372   8786   8758     1  180.0000771  0.4184000  2
   4366   4372   8786   8758     1  0.0000000  1.6024720  3
   4372   8786   8758   8761     1  180.0000771  0.4184000  2
   4372   8786   8758   8761     1  0.0000000  1.6024720  3
   4375   8815   8787   8790     1  180.0000771  0.4184000  2
   4375   8815   8787   8790     1  0.0000000  1.6024720  3
   4379   4380   4392   4404     1  0.0000000  0.6508444  3
   4379   4383   4395   4401     1  0.0000000  0.6508444  3
   4379   4386   4389   4398     1  0.0000000  0.6508444  3
   4380   4379   4383   4395     1  180.0000771  2.0083200  2
   4380   4379   4383   4395     1  0.0000000  1.2552000  3
   4380   4379   4386   4389     1  180.0000771  2.0083200  2
   4380   4379   4386   4389     1  0.0000000  1.2552000  3
   4380   4392   4404   8873     1  0.0000000  0.6508444  3
   4383   4379   4380   4392     1  180.0000771  2.0083200  2
   4383   4379   4380   4392     1  0.0000000  1.2552000  3
   4383   4379   4386   4389     1  180.0000771  2.0083200  2
   4383   4379   4386   4389     1  0.0000000  1.2552000  3
   4383   4395   4401   8844     1  0.0000000  0.6508444  3
   4386   4379   4380   4392     1  180.0000771  2.0083200  2
   4386   4379   4380   4392     1  0.0000000  1.2552000  3
   4386   4379   4383   4395     1  180.0000771  2.0083200  2
   4386   4379   4383   4395     1  0.0000000  1.2552000  3
   4386   4389   4398   4407     1  0.0000000  0.6508444  3
   4392   4404   8873   8845     1  180.0000771  0.4184000  2
   4392   4404   8873   8845     1  0.0000000  1.6024720  3
   4395   4401   8844   8816     1  180.0000771  0.4184000  2
   4395   4401   8844   8816     1  0.0000000  1.6024720  3
   4401   8844   8816   8819     1  180.0000771  0.4184000  2
   4401   8844   8816   8819     1  0.0000000  1.6024720  3
   4404   8873   8845   8848     1  180.0000771  0.4184000  2
   4404   8873   8845   8848     1  0.0000000  1.6024720  3
   4408   4409   4421   4433     1  0.0000000  0.6508444  3
   4408   4412   4424   4430     1  0.0000000  0.6508444  3
   4408   4415   4418   4427     1  0.0000000  0.6508444  3
   4409   4408   4412   4424     1  180.0000771  2.0083200  2
   4409   4408   4412   4424     1  0.0000000  1.2552000  3
   4409   4408   4415   4418     1  180.0000771  2.0083200  2
   4409   4408   4415   4418     1  0.0000000  1.2552000  3
   4409   4421   4433   8931     1  0.0000000  0.6508444  3
   4412   4408   4409   4421     1  180.0000771  2.0083200  2
   4412   4408   4409   4421     1  0.0000000  1.2552000  3
   4412   4408   4415   4418     1  180.0000771  2.0083200  2
   4412   4408   4415   4418     1  0.0000000  1.2552000  3
   4412   4424   4430   8902     1  0.0000000  0.6508444  3
   4415   4408   4409   4421     1  180.0000771  2.0083200  2
   4415   4408   4409   4421     1  0.0000000  1.2552000  3
   4415   4408   4412   4424     1  180.0000771  2.0083200  2
   4415   4408   4412   4424     1  0.0000000  1.2552000  3
   4415   4418   4427   4436     1  0.0000000  0.6508444  3
   4421   4433   8931   8903     1  180.0000771  0.4184000  2
   4421   4433   8931   8903     1  0.0000000  1.6024720  3
   4424   4430   8902   8874     1  180.0000771  0.4184000  2
   4424   4430   8902   8874     1  0.0000000  1.6024720  3
   4430   8902   8874   8877     1  180.0000771  0.4184000  2
   4430   8902   8874   8877     1  0.0000000  1.6024720  3
   4433   8931   8903   8906     1  180.0000771  0.4184000  2
   4433   8931   8903   8906     1  0.0000000  1.6024720  3
   4437   4438   4450   4462     1  0.0000000  0.6508444  3
   4437   4441   4453   4459     1  0.0000000  0.6508444  3
   4437   4444   4447   4456     1  0.0000000  0.6508444  3
   4438   4437   4441   4453     1  180.0000771  2.0083200  2
   4438   4437   4441   4453     1  0.0000000  1.2552000  3
   4438   4437   4444   4447     1  180.0000771  2.0083200  2
   4438   4437   4444   4447     1  0.0000000  1.2552000  3
   4438   4450   4462   8989     1  0.0000000  0.6508444  3
   4441   4437   4438   4450     1  180.0000771  2.0083200  2
   4441   4437   4438   4450     1  0.0000000  1.2552000  3
   4441   4437   4444   4447     1  180.0000771  2.0083200  2
   4441   4437   4444   4447     1  0.0000000  1.2552000  3
   4441   4453   4459   8960     1  0.0000000  0.6508444  3
   4444   4437   4438   4450     1  180.0000771  2.0083200  2
   4444   4437   4438   4450     1  0.0000000  1.2552000  3
   4444   4437   4441   4453     1  180.0000771  2.0083200  2
   4444   4437   4441   4453     1  0.0000000  1.2552000  3
   4444   4447   4456   4465     1  0.0000000  0.6508444  3
   4450   4462   8989   8961     1  180.0000771  0.4184000  2
   4450   4462   8989   8961     1  0.0000000  1.6024720  3
   4453   4459   8960   8932     1  180.0000771  0.4184000  2
   4453   4459   8960   8932     1  0.0000000  1.6024720  3
   4459   8960   8932   8935     1  180.0000771  0.4184000  2
   4459   8960   8932   8935     1  0.0000000  1.6024720  3
   4462   8989   8961   8964     1  180.0000771  0.4184000  2
   4462   8989   8961   8964     1  0.0000000  1.6024720  3
   4466   4467   4479   4491     1  0.0000000  0.6508444  3
   4466   4470   4482   4488     1  0.0000000  0.6508444  3
   4466   4473   4476   4485     1  0.0000000  0.6508444  3
   4467   4466   4470   4482     1  180.0000771  2.0083200  2
   4467   4466   4470   4482     1  0.0000000  1.2552000  3
   4467   4466   4473   4476     1  180.0000771  2.0083200  2
   4467   4466   4473   4476     1  0.0000000  1.2552000  3
   4467   4479   4491   9047     1  0.0000000  0.6508444  3
   4470   4466   4467   4479     1  180.0000771  2.0083200  2
   4470   4466   4467   4479     1  0.0000000  1.2552000  3
   4470   4466   4473   4476     1  180.0000771  2.0083200  2
   4470   4466   4473   4476     1  0.0000000  1.2552000  3
   4470   4482   4488   9018     1  0.0000000  0.6508444  3
   4473   4466   4467   4479     1  180.0000771  2.0083200  2
   4473   4466   4467   4479     1  0.0000000  1.2552000  3
   4473   4466   4470   4482     1  180.0000771  2.0083200  2
   4473   4466   4470   4482     1  0.0000000  1.2552000  3
   4473   4476   4485   4494     1  0.0000000  0.6508444  3
   4479   4491   9047   9019     1  180.0000771  0.4184000  2
   4479   4491   9047   9019     1  0.0000000  1.6024720  3
   4482   4488   9018   8990     1  180.0000771  0.4184000  2
   4482   4488   9018   8990     1  0.0000000  1.6024720  3
   4488   9018   8990   8993     1  180.0000771  0.4184000  2
   4488   9018   8990   8993     1  0.0000000  1.6024720  3
   4491   9047   9019   9022     1  180.0000771  0.4184000  2
   4491   9047   9019   9022     1  0.0000000  1.6024720  3
   4495   4496   4508   4520     1  0.0000000  0.6508444  3
   4495   4499   4511   4517     1  0.0000000  0.6508444  3
   4495   4502   4505   4514     1  0.0000000  0.6508444  3
   4496   4495   4499   4511     1  180.0000771  2.0083200  2
   4496   4495   4499   4511     1  0.0000000  1.2552000  3
   4496   4495   4502   4505     1  180.0000771  2.0083200  2
   4496   4495   4502   4505     1  0.0000000  1.2552000  3
   4496   4508   4520   9105     1  0.0000000  0.6508444  3
   4499   4495   4496   4508     1  180.0000771  2.0083200  2
   4499   4495   4496   4508     1  0.0000000  1.2552000  3
   4499   4495   4502   4505     1  180.0000771  2.0083200  2
   4499   4495   4502   4505     1  0.0000000  1.2552000  3
   4499   4511   4517   9076     1  0.0000000  0.6508444  3
   4502   4495   4496   4508     1  180.0000771  2.0083200  2
   4502   4495   4496   4508     1  0.0000000  1.2552000  3
   4502   4495   4499   4511     1  180.0000771  2.0083200  2
   4502   4495   4499   4511     1  0.0000000  1.2552000  3
   4502   4505   4514   4523     1  0.0000000  0.6508444  3
   4508   4520   9105   9077     1  180.0000771  0.4184000  2
   4508   4520   9105   9077     1  0.0000000  1.6024720  3
   4511   4517   9076   9048     1  180.0000771  0.4184000  2
   4511   4517   9076   9048     1  0.0000000  1.6024720  3
   4517   9076   9048   9051     1  180.0000771  0.4184000  2
   4517   9076   9048   9051     1  0.0000000  1.6024720  3
   4520   9105   9077   9080     1  180.0000771  0.4184000  2
   4520   9105   9077   9080     1  0.0000000  1.6024720  3
   4524   4525   4537   4549     1  0.0000000  0.6508444  3
   4524   4528   4540   4546     1  0.0000000  0.6508444  3
   4524   4531   4534   4543     1  0.0000000  0.6508444  3
   4525   4524   4528   4540     1  180.0000771  2.0083200  2
   4525   4524   4528   4540     1  0.0000000  1.2552000  3
   4525   4524   4531   4534     1  180.0000771  2.0083200  2
   4525   4524   4531   4534     1  0.0000000  1.2552000  3
   4525   4537   4549   9163     1  0.0000000  0.6508444  3
   4528   4524   4525   4537     1  180.0000771  2.0083200  2
   4528   4524   4525   4537     1  0.0000000  1.2552000  3
   4528   4524   4531   4534     1  180.0000771  2.0083200  2
   4528   4524   4531   4534     1  0.0000000  1.2552000  3
   4528   4540   4546   9134     1  0.0000000  0.6508444  3
   4531   4524   4525   4537     1  180.0000771  2.0083200  2
   4531   4524   4525   4537     1  0.0000000  1.2552000  3
   4531   4524   4528   4540     1  180.0000771  2.0083200  2
   4531   4524   4528   4540     1  0.0000000  1.2552000  3
   4531   4534   4543   4552     1  0.0000000  0.6508444  3
   4537   4549   9163   9135     1  180.0000771  0.4184000  2
   4537   4549   9163   9135     1  0.0000000  1.6024720  3
   4540   4546   9134   9106     1  180.0000771  0.4184000  2
   4540   4546   9134   9106     1  0.0000000  1.6024720  3
   4546   9134   9106   9109     1  180.0000771  0.4184000  2
   4546   9134   9106   9109     1  0.0000000  1.6024720  3
   4549   9163   9135   9138     1  180.0000771  0.4184000  2
   4549   9163   9135   9138     1  0.0000000  1.6024720  3
   4553   4554   4566   4578     1  0.0000000  0.6508444  3
   4553   4557   4569   4575     1  0.0000000  0.6508444  3
   4553   4560   4563   4572     1  0.0000000  0.6508444  3
   4554   4553   4557   4569     1  180.0000771  2.0083200  2
   4554   4553   4557   4569     1  0.0000000  1.2552000  3
   4554   4553   4560   4563     1  180.0000771  2.0083200  2
   4554   4553   4560   4563     1  0.0000000  1.2552000  3
   4554   4566   4578   9221     1  0.0000000  0.6508444  3
   4557   4553   4554   4566     1  180.0000771  2.0083200  2
   4557   4553   4554   4566     1  0.0000000  1.2552000  3
   4557   4553   4560   4563     1  180.0000771  2.0083200  2
   4557   4553   4560   4563     1  0.0000000  1.2552000  3
   4557   4569   4575   9192     1  0.0000000  0.6508444  3
   4560   4553   4554   4566     1  180.0000771  2.0083200  2
   4560   4553   4554   4566     1  0.0000000  1.2552000  3
   4560   4553   4557   4569     1  180.0000771  2.0083200  2
   4560   4553   4557   4569     1  0.0000000  1.2552000  3
   4560   4563   4572   4581     1  0.0000000  0.6508444  3
   4566   4578   9221   9193     1  180.0000771  0.4184000  2
   4566   4578   9221   9193     1  0.0000000  1.6024720  3
   4569   4575   9192   9164     1  180.0000771  0.4184000  2
   4569   4575   9192   9164     1  0.0000000  1.6024720  3
   4575   9192   9164   9167     1  180.0000771  0.4184000  2
   4575   9192   9164   9167     1  0.0000000  1.6024720  3
   4578   9221   9193   9196     1  180.0000771  0.4184000  2
   4578   9221   9193   9196     1  0.0000000  1.6024720  3
   4582   4583   4595   4607     1  0.0000000  0.6508444  3
   4582   4586   4598   4604     1  0.0000000  0.6508444  3
   4582   4589   4592   4601     1  0.0000000  0.6508444  3
   4583   4582   4586   4598     1  180.0000771  2.0083200  2
   4583   4582   4586   4598     1  0.0000000  1.2552000  3
   4583   4582   4589   4592     1  180.0000771  2.0083200  2
   4583   4582   4589   4592     1  0.0000000  1.2552000  3
   4583   4595   4607   9279     1  0.0000000  0.6508444  3
   4586   4582   4583   4595     1  180.0000771  2.0083200  2
   4586   4582   4583   4595     1  0.0000000  1.2552000  3
   4586   4582   4589   4592     1  180.0000771  2.0083200  2
   4586   4582   4589   4592     1  0.0000000  1.2552000  3
   4586   4598   4604   9250     1  0.0000000  0.6508444  3
   4589   4582   4583   4595     1  180.0000771  2.0083200  2
   4589   4582   4583   4595     1  0.0000000  1.2552000  3
   4589   4582   4586   4598     1  180.0000771  2.0083200  2
   4589   4582   4586   4598     1  0.0000000  1.2552000  3
   4589   4592   4601   4610     1  0.0000000  0.6508444  3
   4595   4607   9279   9251     1  180.0000771  0.4184000  2
   4595   4607   9279   9251     1  0.0000000  1.6024720  3
   4598   4604   9250   9222     1  180.0000771  0.4184000  2
   4598   4604   9250   9222     1  0.0000000  1.6024720  3
   4604   9250   9222   9225     1  180.0000771  0.4184000  2
   4604   9250   9222   9225     1  0.0000000  1.6024720  3
   4607   9279   9251   9254     1  180.0000771  0.4184000  2
   4607   9279   9251   9254     1  0.0000000  1.6024720  3
   4611   4612   4624   4636     1  0.0000000  0.6508444  3
   4611   4615   4627   4633     1  0.0000000  0.6508444  3
   4611   4618   4621   4630     1  0.0000000  0.6508444  3
   4612   4611   4615   4627     1  180.0000771  2.0083200  2
   4612   4611   4615   4627     1  0.0000000  1.2552000  3
   4612   4611   4618   4621     1  180.0000771  2.0083200  2
   4612   4611   4618   4621     1  0.0000000  1.2552000  3
   4612   4624   4636   9337     1  0.0000000  0.6508444  3
   4615   4611   4612   4624     1  180.0000771  2.0083200  2
   4615   4611   4612   4624     1  0.0000000  1.2552000  3
   4615   4611   4618   4621     1  180.0000771  2.0083200  2
   4615   4611   4618   4621     1  0.0000000  1.2552000  3
   4615   4627   4633   9308     1  0.0000000  0.6508444  3
   4618   4611   4612   4624     1  180.0000771  2.0083200  2
   4618   4611   4612   4624     1  0.0000000  1.2552000  3
   4618   4611   4615   4627     1  180.0000771  2.0083200  2
   4618   4611   4615   4627     1  0.0000000  1.2552000  3
   4618   4621   4630   4639     1  0.0000000  0.6508444  3
   4624   4636   9337   9309     1  180.0000771  0.4184000  2
   4624   4636   9337   9309     1  0.0000000  1.6024720  3
   4627   4633   9308   9280     1  180.0000771  0.4184000  2
   4627   4633   9308   9280     1  0.0000000  1.6024720  3
   4633   9308   9280   9283     1  180.0000771  0.4184000  2
   4633   9308   9280   9283     1  0.0000000  1.6024720  3
   4636   9337   9309   9312     1  180.0000771  0.4184000  2
   4636   9337   9309   9312     1  0.0000000  1.6024720  3
   4640   4641   4653   4665     1  0.0000000  0.6508444  3
   4640   4644   4656   4662     1  0.0000000  0.6508444  3
   4640   4647   4650   4659     1  0.0000000  0.6508444  3
   4641   4640   4644   4656     1  180.0000771  2.0083200  2
   4641   4640   4644   4656     1  0.0000000  1.2552000  3
   4641   4640   4647   4650     1  180.0000771  2.0083200  2
   4641   4640   4647   4650     1  0.0000000  1.2552000  3
   4641   4653   4665   9395     1  0.0000000  0.6508444  3
   4644   4640   4641   4653     1  180.0000771  2.0083200  2
   4644   4640   4641   4653     1  0.0000000  1.2552000  3
   4644   4640   4647   4650     1  180.0000771  2.0083200  2
   4644   4640   4647   4650     1  0.0000000  1.2552000  3
   4644   4656   4662   9366     1  0.0000000  0.6508444  3
   4647   4640   4641   4653     1  180.0000771  2.0083200  2
   4647   4640   4641   4653     1  0.0000000  1.2552000  3
   4647   4640   4644   4656     1  180.0000771  2.0083200  2
   4647   4640   4644   4656     1  0.0000000  1.2552000  3
   4647   4650   4659   4668     1  0.0000000  0.6508444  3
   4653   4665   9395   9367     1  180.0000771  0.4184000  2
   4653   4665   9395   9367     1  0.0000000  1.6024720  3
   4656   4662   9366   9338     1  180.0000771  0.4184000  2
   4656   4662   9366   9338     1  0.0000000  1.6024720  3
   4662   9366   9338   9341     1  180.0000771  0.4184000  2
   4662   9366   9338   9341     1  0.0000000  1.6024720  3
   4665   9395   9367   9370     1  180.0000771  0.4184000  2
   4665   9395   9367   9370     1  0.0000000  1.6024720  3
   4669   4670   4682   4694     1  0.0000000  0.6508444  3
   4669   4673   4685   4691     1  0.0000000  0.6508444  3
   4669   4676   4679   4688     1  0.0000000  0.6508444  3
   4670   4669   4673   4685     1  180.0000771  2.0083200  2
   4670   4669   4673   4685     1  0.0000000  1.2552000  3
   4670   4669   4676   4679     1  180.0000771  2.0083200  2
   4670   4669   4676   4679     1  0.0000000  1.2552000  3
   4670   4682   4694   9453     1  0.0000000  0.6508444  3
   4673   4669   4670   4682     1  180.0000771  2.0083200  2
   4673   4669   4670   4682     1  0.0000000  1.2552000  3
   4673   4669   4676   4679     1  180.0000771  2.0083200  2
   4673   4669   4676   4679     1  0.0000000  1.2552000  3
   4673   4685   4691   9424     1  0.0000000  0.6508444  3
   4676   4669   4670   4682     1  180.0000771  2.0083200  2
   4676   4669   4670   4682     1  0.0000000  1.2552000  3
   4676   4669   4673   4685     1  180.0000771  2.0083200  2
   4676   4669   4673   4685     1  0.0000000  1.2552000  3
   4676   4679   4688   4697     1  0.0000000  0.6508444  3
   4682   4694   9453   9425     1  180.0000771  0.4184000  2
   4682   4694   9453   9425     1  0.0000000  1.6024720  3
   4685   4691   9424   9396     1  180.0000771  0.4184000  2
   4685   4691   9424   9396     1  0.0000000  1.6024720  3
   4691   9424   9396   9399     1  180.0000771  0.4184000  2
   4691   9424   9396   9399     1  0.0000000  1.6024720  3
   4694   9453   9425   9428     1  180.0000771  0.4184000  2
   4694   9453   9425   9428     1  0.0000000  1.6024720  3
   4698   4699   4711   4723     1  0.0000000  0.6508444  3
   4698   4702   4714   4720     1  0.0000000  0.6508444  3
   4698   4705   4708   4717     1  0.0000000  0.6508444  3
   4699   4698   4702   4714     1  180.0000771  2.0083200  2
   4699   4698   4702   4714     1  0.0000000  1.2552000  3
   4699   4698   4705   4708     1  180.0000771  2.0083200  2
   4699   4698   4705   4708     1  0.0000000  1.2552000  3
   4699   4711   4723   9511     1  0.0000000  0.6508444  3
   4702   4698   4699   4711     1  180.0000771  2.0083200  2
   4702   4698   4699   4711     1  0.0000000  1.2552000  3
   4702   4698   4705   4708     1  180.0000771  2.0083200  2
   4702   4698   4705   4708     1  0.0000000  1.2552000  3
   4702   4714   4720   9482     1  0.0000000  0.6508444  3
   4705   4698   4699   4711     1  180.0000771  2.0083200  2
   4705   4698   4699   4711     1  0.0000000  1.2552000  3
   4705   4698   4702   4714     1  180.0000771  2.0083200  2
   4705   4698   4702   4714     1  0.0000000  1.2552000  3
   4705   4708   4717   4726     1  0.0000000  0.6508444  3
   4711   4723   9511   9483     1  180.0000771  0.4184000  2
   4711   4723   9511   9483     1  0.0000000  1.6024720  3
   4714   4720   9482   9454     1  180.0000771  0.4184000  2
   4714   4720   9482   9454     1  0.0000000  1.6024720  3
   4720   9482   9454   9457     1  180.0000771  0.4184000  2
   4720   9482   9454   9457     1  0.0000000  1.6024720  3
   4723   9511   9483   9486     1  180.0000771  0.4184000  2
   4723   9511   9483   9486     1  0.0000000  1.6024720  3
   4727   4728   4740   4752     1  0.0000000  0.6508444  3
   4727   4731   4743   4749     1  0.0000000  0.6508444  3
   4727   4734   4737   4746     1  0.0000000  0.6508444  3
   4728   4727   4731   4743     1  180.0000771  2.0083200  2
   4728   4727   4731   4743     1  0.0000000  1.2552000  3
   4728   4727   4734   4737     1  180.0000771  2.0083200  2
   4728   4727   4734   4737     1  0.0000000  1.2552000  3
   4728   4740   4752   9569     1  0.0000000  0.6508444  3
   4731   4727   4728   4740     1  180.0000771  2.0083200  2
   4731   4727   4728   4740     1  0.0000000  1.2552000  3
   4731   4727   4734   4737     1  180.0000771  2.0083200  2
   4731   4727   4734   4737     1  0.0000000  1.2552000  3
   4731   4743   4749   9540     1  0.0000000  0.6508444  3
   4734   4727   4728   4740     1  180.0000771  2.0083200  2
   4734   4727   4728   4740     1  0.0000000  1.2552000  3
   4734   4727   4731   4743     1  180.0000771  2.0083200  2
   4734   4727   4731   4743     1  0.0000000  1.2552000  3
   4734   4737   4746   4755     1  0.0000000  0.6508444  3
   4740   4752   9569   9541     1  180.0000771  0.4184000  2
   4740   4752   9569   9541     1  0.0000000  1.6024720  3
   4743   4749   9540   9512     1  180.0000771  0.4184000  2
   4743   4749   9540   9512     1  0.0000000  1.6024720  3
   4749   9540   9512   9515     1  180.0000771  0.4184000  2
   4749   9540   9512   9515     1  0.0000000  1.6024720  3
   4752   9569   9541   9544     1  180.0000771  0.4184000  2
   4752   9569   9541   9544     1  0.0000000  1.6024720  3
   4756   4757   4769   4781     1  0.0000000  0.6508444  3
   4756   4760   4772   4778     1  0.0000000  0.6508444  3
   4756   4763   4766   4775     1  0.0000000  0.6508444  3
   4757   4756   4760   4772     1  180.0000771  2.0083200  2
   4757   4756   4760   4772     1  0.0000000  1.2552000  3
   4757   4756   4763   4766     1  180.0000771  2.0083200  2
   4757   4756   4763   4766     1  0.0000000  1.2552000  3
   4757   4769   4781   9627     1  0.0000000  0.6508444  3
   4760   4756   4757   4769     1  180.0000771  2.0083200  2
   4760   4756   4757   4769     1  0.0000000  1.2552000  3
   4760   4756   4763   4766     1  180.0000771  2.0083200  2
   4760   4756   4763   4766     1  0.0000000  1.2552000  3
   4760   4772   4778   9598     1  0.0000000  0.6508444  3
   4763   4756   4757   4769     1  180.0000771  2.0083200  2
   4763   4756   4757   4769     1  0.0000000  1.2552000  3
   4763   4756   4760   4772     1  180.0000771  2.0083200  2
   4763   4756   4760   4772     1  0.0000000  1.2552000  3
   4763   4766   4775   4784     1  0.0000000  0.6508444  3
   4769   4781   9627   9599     1  180.0000771  0.4184000  2
   4769   4781   9627   9599     1  0.0000000  1.6024720  3
   4772   4778   9598   9570     1  180.0000771  0.4184000  2
   4772   4778   9598   9570     1  0.0000000  1.6024720  3
   4778   9598   9570   9573     1  180.0000771  0.4184000  2
   4778   9598   9570   9573     1  0.0000000  1.6024720  3
   4781   9627   9599   9602     1  180.0000771  0.4184000  2
   4781   9627   9599   9602     1  0.0000000  1.6024720  3
   4785   4786   4798   4810     1  0.0000000  0.6508444  3
   4785   4789   4801   4807     1  0.0000000  0.6508444  3
   4785   4792   4795   4804     1  0.0000000  0.6508444  3
   4786   4785   4789   4801     1  180.0000771  2.0083200  2
   4786   4785   4789   4801     1  0.0000000  1.2552000  3
   4786   4785   4792   4795     1  180.0000771  2.0083200  2
   4786   4785   4792   4795     1  0.0000000  1.2552000  3
   4786   4798   4810   9685     1  0.0000000  0.6508444  3
   4789   4785   4786   4798     1  180.0000771  2.0083200  2
   4789   4785   4786   4798     1  0.0000000  1.2552000  3
   4789   4785   4792   4795     1  180.0000771  2.0083200  2
   4789   4785   4792   4795     1  0.0000000  1.2552000  3
   4789   4801   4807   9656     1  0.0000000  0.6508444  3
   4792   4785   4786   4798     1  180.0000771  2.0083200  2
   4792   4785   4786   4798     1  0.0000000  1.2552000  3
   4792   4785   4789   4801     1  180.0000771  2.0083200  2
   4792   4785   4789   4801     1  0.0000000  1.2552000  3
   4792   4795   4804   4813     1  0.0000000  0.6508444  3
   4798   4810   9685   9657     1  180.0000771  0.4184000  2
   4798   4810   9685   9657     1  0.0000000  1.6024720  3
   4801   4807   9656   9628     1  180.0000771  0.4184000  2
   4801   4807   9656   9628     1  0.0000000  1.6024720  3
   4807   9656   9628   9631     1  180.0000771  0.4184000  2
   4807   9656   9628   9631     1  0.0000000  1.6024720  3
   4810   9685   9657   9660     1  180.0000771  0.4184000  2
   4810   9685   9657   9660     1  0.0000000  1.6024720  3
   4814   4815   4827   4839     1  0.0000000  0.6508444  3
   4814   4818   4830   4836     1  0.0000000  0.6508444  3
   4814   4821   4824   4833     1  0.0000000  0.6508444  3
   4815   4814   4818   4830     1  180.0000771  2.0083200  2
   4815   4814   4818   4830     1  0.0000000  1.2552000  3
   4815   4814   4821   4824     1  180.0000771  2.0083200  2
   4815   4814   4821   4824     1  0.0000000  1.2552000  3
   4815   4827   4839   9743     1  0.0000000  0.6508444  3
   4818   4814   4815   4827     1  180.0000771  2.0083200  2
   4818   4814   4815   4827     1  0.0000000  1.2552000  3
   4818   4814   4821   4824     1  180.0000771  2.0083200  2
   4818   4814   4821   4824     1  0.0000000  1.2552000  3
   4818   4830   4836   9714     1  0.0000000  0.6508444  3
   4821   4814   4815   4827     1  180.0000771  2.0083200  2
   4821   4814   4815   4827     1  0.0000000  1.2552000  3
   4821   4814   4818   4830     1  180.0000771  2.0083200  2
   4821   4814   4818   4830     1  0.0000000  1.2552000  3
   4821   4824   4833   4842     1  0.0000000  0.6508444  3
   4827   4839   9743   9715     1  180.0000771  0.4184000  2
   4827   4839   9743   9715     1  0.0000000  1.6024720  3
   4830   4836   9714   9686     1  180.0000771  0.4184000  2
   4830   4836   9714   9686     1  0.0000000  1.6024720  3
   4836   9714   9686   9689     1  180.0000771  0.4184000  2
   4836   9714   9686   9689     1  0.0000000  1.6024720  3
   4839   9743   9715   9718     1  180.0000771  0.4184000  2
   4839   9743   9715   9718     1  0.0000000  1.6024720  3
   4843   4844   4856   4868     1  0.0000000  0.6508444  3
   4843   4847   4859   4865     1  0.0000000  0.6508444  3
   4843   4850   4853   4862     1  0.0000000  0.6508444  3
   4844   4843   4847   4859     1  180.0000771  2.0083200  2
   4844   4843   4847   4859     1  0.0000000  1.2552000  3
   4844   4843   4850   4853     1  180.0000771  2.0083200  2
   4844   4843   4850   4853     1  0.0000000  1.2552000  3
   4844   4856   4868   9801     1  0.0000000  0.6508444  3
   4847   4843   4844   4856     1  180.0000771  2.0083200  2
   4847   4843   4844   4856     1  0.0000000  1.2552000  3
   4847   4843   4850   4853     1  180.0000771  2.0083200  2
   4847   4843   4850   4853     1  0.0000000  1.2552000  3
   4847   4859   4865   9772     1  0.0000000  0.6508444  3
   4850   4843   4844   4856     1  180.0000771  2.0083200  2
   4850   4843   4844   4856     1  0.0000000  1.2552000  3
   4850   4843   4847   4859     1  180.0000771  2.0083200  2
   4850   4843   4847   4859     1  0.0000000  1.2552000  3
   4850   4853   4862   4871     1  0.0000000  0.6508444  3
   4856   4868   9801   9773     1  180.0000771  0.4184000  2
   4856   4868   9801   9773     1  0.0000000  1.6024720  3
   4859   4865   9772   9744     1  180.0000771  0.4184000  2
   4859   4865   9772   9744     1  0.0000000  1.6024720  3
   4865   9772   9744   9747     1  180.0000771  0.4184000  2
   4865   9772   9744   9747     1  0.0000000  1.6024720  3
   4868   9801   9773   9776     1  180.0000771  0.4184000  2
   4868   9801   9773   9776     1  0.0000000  1.6024720  3
   4872   4873   4885   4897     1  0.0000000  0.6508444  3
   4872   4876   4888   4894     1  0.0000000  0.6508444  3
   4872   4879   4882   4891     1  0.0000000  0.6508444  3
   4873   4872   4876   4888     1  180.0000771  2.0083200  2
   4873   4872   4876   4888     1  0.0000000  1.2552000  3
   4873   4872   4879   4882     1  180.0000771  2.0083200  2
   4873   4872   4879   4882     1  0.0000000  1.2552000  3
   4873   4885   4897   9859     1  0.0000000  0.6508444  3
   4876   4872   4873   4885     1  180.0000771  2.0083200  2
   4876   4872   4873   4885     1  0.0000000  1.2552000  3
   4876   4872   4879   4882     1  180.0000771  2.0083200  2
   4876   4872   4879   4882     1  0.0000000  1.2552000  3
   4876   4888   4894   9830     1  0.0000000  0.6508444  3
   4879   4872   4873   4885     1  180.0000771  2.0083200  2
   4879   4872   4873   4885     1  0.0000000  1.2552000  3
   4879   4872   4876   4888     1  180.0000771  2.0083200  2
   4879   4872   4876   4888     1  0.0000000  1.2552000  3
   4879   4882   4891   4900     1  0.0000000  0.6508444  3
   4885   4897   9859   9831     1  180.0000771  0.4184000  2
   4885   4897   9859   9831     1  0.0000000  1.6024720  3
   4888   4894   9830   9802     1  180.0000771  0.4184000  2
   4888   4894   9830   9802     1  0.0000000  1.6024720  3
   4894   9830   9802   9805     1  180.0000771  0.4184000  2
   4894   9830   9802   9805     1  0.0000000  1.6024720  3
   4897   9859   9831   9834     1  180.0000771  0.4184000  2
   4897   9859   9831   9834     1  0.0000000  1.6024720  3
   4901   4902   4914   4926     1  0.0000000  0.6508444  3
   4901   4905   4917   4923     1  0.0000000  0.6508444  3
   4901   4908   4911   4920     1  0.0000000  0.6508444  3
   4902   4901   4905   4917     1  180.0000771  2.0083200  2
   4902   4901   4905   4917     1  0.0000000  1.2552000  3
   4902   4901   4908   4911     1  180.0000771  2.0083200  2
   4902   4901   4908   4911     1  0.0000000  1.2552000  3
   4902   4914   4926   9917     1  0.0000000  0.6508444  3
   4905   4901   4902   4914     1  180.0000771  2.0083200  2
   4905   4901   4902   4914     1  0.0000000  1.2552000  3
   4905   4901   4908   4911     1  180.0000771  2.0083200  2
   4905   4901   4908   4911     1  0.0000000  1.2552000  3
   4905   4917   4923   9888     1  0.0000000  0.6508444  3
   4908   4901   4902   4914     1  180.0000771  2.0083200  2
   4908   4901   4902   4914     1  0.0000000  1.2552000  3
   4908   4901   4905   4917     1  180.0000771  2.0083200  2
   4908   4901   4905   4917     1  0.0000000  1.2552000  3
   4908   4911   4920   4929     1  0.0000000  0.6508444  3
   4914   4926   9917   9889     1  180.0000771  0.4184000  2
   4914   4926   9917   9889     1  0.0000000  1.6024720  3
   4917   4923   9888   9860     1  180.0000771  0.4184000  2
   4917   4923   9888   9860     1  0.0000000  1.6024720  3
   4923   9888   9860   9863     1  180.0000771  0.4184000  2
   4923   9888   9860   9863     1  0.0000000  1.6024720  3
   4926   9917   9889   9892     1  180.0000771  0.4184000  2
   4926   9917   9889   9892     1  0.0000000  1.6024720  3
   4930   4931   4943   4955     1  0.0000000  0.6508444  3
   4930   4934   4946   4952     1  0.0000000  0.6508444  3
   4930   4937   4940   4949     1  0.0000000  0.6508444  3
   4931   4930   4934   4946     1  180.0000771  2.0083200  2
   4931   4930   4934   4946     1  0.0000000  1.2552000  3
   4931   4930   4937   4940     1  180.0000771  2.0083200  2
   4931   4930   4937   4940     1  0.0000000  1.2552000  3
   4931   4943   4955   9975     1  0.0000000  0.6508444  3
   4934   4930   4931   4943     1  180.0000771  2.0083200  2
   4934   4930   4931   4943     1  0.0000000  1.2552000  3
   4934   4930   4937   4940     1  180.0000771  2.0083200  2
   4934   4930   4937   4940     1  0.0000000  1.2552000  3
   4934   4946   4952   9946     1  0.0000000  0.6508444  3
   4937   4930   4931   4943     1  180.0000771  2.0083200  2
   4937   4930   4931   4943     1  0.0000000  1.2552000  3
   4937   4930   4934   4946     1  180.0000771  2.0083200  2
   4937   4930   4934   4946     1  0.0000000  1.2552000  3
   4937   4940   4949   4958     1  0.0000000  0.6508444  3
   4943   4955   9975   9947     1  180.0000771  0.4184000  2
   4943   4955   9975   9947     1  0.0000000  1.6024720  3
   4946   4952   9946   9918     1  180.0000771  0.4184000  2
   4946   4952   9946   9918     1  0.0000000  1.6024720  3
   4952   9946   9918   9921     1  180.0000771  0.4184000  2
   4952   9946   9918   9921     1  0.0000000  1.6024720  3
   4955   9975   9947   9950     1  180.0000771  0.4184000  2
   4955   9975   9947   9950     1  0.0000000  1.6024720  3
   4959   4960   4972   4984     1  0.0000000  0.6508444  3
   4959   4963   4975   4981     1  0.0000000  0.6508444  3
   4959   4966   4969   4978     1  0.0000000  0.6508444  3
   4960   4959   4963   4975     1  180.0000771  2.0083200  2
   4960   4959   4963   4975     1  0.0000000  1.2552000  3
   4960   4959   4966   4969     1  180.0000771  2.0083200  2
   4960   4959   4966   4969     1  0.0000000  1.2552000  3
   4960   4972   4984  10033     1  0.0000000  0.6508444  3
   4963   4959   4960   4972     1  180.0000771  2.0083200  2
   4963   4959   4960   4972     1  0.0000000  1.2552000  3
   4963   4959   4966   4969     1  180.0000771  2.0083200  2
   4963   4959   4966   4969     1  0.0000000  1.2552000  3
   4963   4975   4981  10004     1  0.0000000  0.6508444  3
   4966   4959   4960   4972     1  180.0000771  2.0083200  2
   4966   4959   4960   4972     1  0.0000000  1.2552000  3
   4966   4959   4963   4975     1  180.0000771  2.0083200  2
   4966   4959   4963   4975     1  0.0000000  1.2552000  3
   4966   4969   4978   4987     1  0.0000000  0.6508444  3
   4972   4984  10033  10005     1  180.0000771  0.4184000  2
   4972   4984  10033  10005     1  0.0000000  1.6024720  3
   4975   4981  10004   9976     1  180.0000771  0.4184000  2
   4975   4981  10004   9976     1  0.0000000  1.6024720  3
   4981  10004   9976   9979     1  180.0000771  0.4184000  2
   4981  10004   9976   9979     1  0.0000000  1.6024720  3
   4984  10033  10005  10008     1  180.0000771  0.4184000  2
   4984  10033  10005  10008     1  0.0000000  1.6024720  3
   4988   4989   5001   5013     1  0.0000000  0.6508444  3
   4988   4992   5004   5010     1  0.0000000  0.6508444  3
   4988   4995   4998   5007     1  0.0000000  0.6508444  3
   4989   4988   4992   5004     1  180.0000771  2.0083200  2
   4989   4988   4992   5004     1  0.0000000  1.2552000  3
   4989   4988   4995   4998     1  180.0000771  2.0083200  2
   4989   4988   4995   4998     1  0.0000000  1.2552000  3
   4989   5001   5013  10091     1  0.0000000  0.6508444  3
   4992   4988   4989   5001     1  180.0000771  2.0083200  2
   4992   4988   4989   5001     1  0.0000000  1.2552000  3
   4992   4988   4995   4998     1  180.0000771  2.0083200  2
   4992   4988   4995   4998     1  0.0000000  1.2552000  3
   4992   5004   5010  10062     1  0.0000000  0.6508444  3
   4995   4988   4989   5001     1  180.0000771  2.0083200  2
   4995   4988   4989   5001     1  0.0000000  1.2552000  3
   4995   4988   4992   5004     1  180.0000771  2.0083200  2
   4995   4988   4992   5004     1  0.0000000  1.2552000  3
   4995   4998   5007   5016     1  0.0000000  0.6508444  3
   5001   5013  10091  10063     1  180.0000771  0.4184000  2
   5001   5013  10091  10063     1  0.0000000  1.6024720  3
   5004   5010  10062  10034     1  180.0000771  0.4184000  2
   5004   5010  10062  10034     1  0.0000000  1.6024720  3
   5010  10062  10034  10037     1  180.0000771  0.4184000  2
   5010  10062  10034  10037     1  0.0000000  1.6024720  3
   5013  10091  10063  10066     1  180.0000771  0.4184000  2
   5013  10091  10063  10066     1  0.0000000  1.6024720  3
   5017   5018   5030   5042     1  0.0000000  0.6508444  3
   5017   5021   5033   5039     1  0.0000000  0.6508444  3
   5017   5024   5027   5036     1  0.0000000  0.6508444  3
   5018   5017   5021   5033     1  180.0000771  2.0083200  2
   5018   5017   5021   5033     1  0.0000000  1.2552000  3
   5018   5017   5024   5027     1  180.0000771  2.0083200  2
   5018   5017   5024   5027     1  0.0000000  1.2552000  3
   5018   5030   5042  10149     1  0.0000000  0.6508444  3
   5021   5017   5018   5030     1  180.0000771  2.0083200  2
   5021   5017   5018   5030     1  0.0000000  1.2552000  3
   5021   5017   5024   5027     1  180.0000771  2.0083200  2
   5021   5017   5024   5027     1  0.0000000  1.2552000  3
   5021   5033   5039  10120     1  0.0000000  0.6508444  3
   5024   5017   5018   5030     1  180.0000771  2.0083200  2
   5024   5017   5018   5030     1  0.0000000  1.2552000  3
   5024   5017   5021   5033     1  180.0000771  2.0083200  2
   5024   5017   5021   5033     1  0.0000000  1.2552000  3
   5024   5027   5036   5045     1  0.0000000  0.6508444  3
   5030   5042  10149  10121     1  180.0000771  0.4184000  2
   5030   5042  10149  10121     1  0.0000000  1.6024720  3
   5033   5039  10120  10092     1  180.0000771  0.4184000  2
   5033   5039  10120  10092     1  0.0000000  1.6024720  3
   5039  10120  10092  10095     1  180.0000771  0.4184000  2
   5039  10120  10092  10095     1  0.0000000  1.6024720  3
   5042  10149  10121  10124     1  180.0000771  0.4184000  2
   5042  10149  10121  10124     1  0.0000000  1.6024720  3
   5046   5047   5059   5071     1  0.0000000  0.6508444  3
   5046   5050   5062   5068     1  0.0000000  0.6508444  3
   5046   5053   5056   5065     1  0.0000000  0.6508444  3
   5047   5046   5050   5062     1  180.0000771  2.0083200  2
   5047   5046   5050   5062     1  0.0000000  1.2552000  3
   5047   5046   5053   5056     1  180.0000771  2.0083200  2
   5047   5046   5053   5056     1  0.0000000  1.2552000  3
   5047   5059   5071  10207     1  0.0000000  0.6508444  3
   5050   5046   5047   5059     1  180.0000771  2.0083200  2
   5050   5046   5047   5059     1  0.0000000  1.2552000  3
   5050   5046   5053   5056     1  180.0000771  2.0083200  2
   5050   5046   5053   5056     1  0.0000000  1.2552000  3
   5050   5062   5068  10178     1  0.0000000  0.6508444  3
   5053   5046   5047   5059     1  180.0000771  2.0083200  2
   5053   5046   5047   5059     1  0.0000000  1.2552000  3
   5053   5046   5050   5062     1  180.0000771  2.0083200  2
   5053   5046   5050   5062     1  0.0000000  1.2552000  3
   5053   5056   5065   5074     1  0.0000000  0.6508444  3
   5059   5071  10207  10179     1  180.0000771  0.4184000  2
   5059   5071  10207  10179     1  0.0000000  1.6024720  3
   5062   5068  10178  10150     1  180.0000771  0.4184000  2
   5062   5068  10178  10150     1  0.0000000  1.6024720  3
   5068  10178  10150  10153     1  180.0000771  0.4184000  2
   5068  10178  10150  10153     1  0.0000000  1.6024720  3
   5071  10207  10179  10182     1  180.0000771  0.4184000  2
   5071  10207  10179  10182     1  0.0000000  1.6024720  3
   5075   5076   5088   5100     1  0.0000000  0.6508444  3
   5075   5079   5091   5097     1  0.0000000  0.6508444  3
   5075   5082   5085   5094     1  0.0000000  0.6508444  3
   5076   5075   5079   5091     1  180.0000771  2.0083200  2
   5076   5075   5079   5091     1  0.0000000  1.2552000  3
   5076   5075   5082   5085     1  180.0000771  2.0083200  2
   5076   5075   5082   5085     1  0.0000000  1.2552000  3
   5076   5088   5100  10265     1  0.0000000  0.6508444  3
   5079   5075   5076   5088     1  180.0000771  2.0083200  2
   5079   5075   5076   5088     1  0.0000000  1.2552000  3
   5079   5075   5082   5085     1  180.0000771  2.0083200  2
   5079   5075   5082   5085     1  0.0000000  1.2552000  3
   5079   5091   5097  10236     1  0.0000000  0.6508444  3
   5082   5075   5076   5088     1  180.0000771  2.0083200  2
   5082   5075   5076   5088     1  0.0000000  1.2552000  3
   5082   5075   5079   5091     1  180.0000771  2.0083200  2
   5082   5075   5079   5091     1  0.0000000  1.2552000  3
   5082   5085   5094   5103     1  0.0000000  0.6508444  3
   5088   5100  10265  10237     1  180.0000771  0.4184000  2
   5088   5100  10265  10237     1  0.0000000  1.6024720  3
   5091   5097  10236  10208     1  180.0000771  0.4184000  2
   5091   5097  10236  10208     1  0.0000000  1.6024720  3
   5097  10236  10208  10211     1  180.0000771  0.4184000  2
   5097  10236  10208  10211     1  0.0000000  1.6024720  3
   5100  10265  10237  10240     1  180.0000771  0.4184000  2
   5100  10265  10237  10240     1  0.0000000  1.6024720  3
   5104   5105   5117   5129     1  0.0000000  0.6508444  3
   5104   5108   5120   5126     1  0.0000000  0.6508444  3
   5104   5111   5114   5123     1  0.0000000  0.6508444  3
   5105   5104   5108   5120     1  180.0000771  2.0083200  2
   5105   5104   5108   5120     1  0.0000000  1.2552000  3
   5105   5104   5111   5114     1  180.0000771  2.0083200  2
   5105   5104   5111   5114     1  0.0000000  1.2552000  3
   5105   5117   5129  10323     1  0.0000000  0.6508444  3
   5108   5104   5105   5117     1  180.0000771  2.0083200  2
   5108   5104   5105   5117     1  0.0000000  1.2552000  3
   5108   5104   5111   5114     1  180.0000771  2.0083200  2
   5108   5104   5111   5114     1  0.0000000  1.2552000  3
   5108   5120   5126  10294     1  0.0000000  0.6508444  3
   5111   5104   5105   5117     1  180.0000771  2.0083200  2
   5111   5104   5105   5117     1  0.0000000  1.2552000  3
   5111   5104   5108   5120     1  180.0000771  2.0083200  2
   5111   5104   5108   5120     1  0.0000000  1.2552000  3
   5111   5114   5123   5132     1  0.0000000  0.6508444  3
   5117   5129  10323  10295     1  180.0000771  0.4184000  2
   5117   5129  10323  10295     1  0.0000000  1.6024720  3
   5120   5126  10294  10266     1  180.0000771  0.4184000  2
   5120   5126  10294  10266     1  0.0000000  1.6024720  3
   5126  10294  10266  10269     1  180.0000771  0.4184000  2
   5126  10294  10266  10269     1  0.0000000  1.6024720  3
   5129  10323  10295  10298     1  180.0000771  0.4184000  2
   5129  10323  10295  10298     1  0.0000000  1.6024720  3
   5133   5134   5146   5158     1  0.0000000  0.6508444  3
   5133   5137   5149   5155     1  0.0000000  0.6508444  3
   5133   5140   5143   5152     1  0.0000000  0.6508444  3
   5134   5133   5137   5149     1  180.0000771  2.0083200  2
   5134   5133   5137   5149     1  0.0000000  1.2552000  3
   5134   5133   5140   5143     1  180.0000771  2.0083200  2
   5134   5133   5140   5143     1  0.0000000  1.2552000  3
   5134   5146   5158  10381     1  0.0000000  0.6508444  3
   5137   5133   5134   5146     1  180.0000771  2.0083200  2
   5137   5133   5134   5146     1  0.0000000  1.2552000  3
   5137   5133   5140   5143     1  180.0000771  2.0083200  2
   5137   5133   5140   5143     1  0.0000000  1.2552000  3
   5137   5149   5155  10352     1  0.0000000  0.6508444  3
   5140   5133   5134   5146     1  180.0000771  2.0083200  2
   5140   5133   5134   5146     1  0.0000000  1.2552000  3
   5140   5133   5137   5149     1  180.0000771  2.0083200  2
   5140   5133   5137   5149     1  0.0000000  1.2552000  3
   5140   5143   5152   5161     1  0.0000000  0.6508444  3
   5146   5158  10381  10353     1  180.0000771  0.4184000  2
   5146   5158  10381  10353     1  0.0000000  1.6024720  3
   5149   5155  10352  10324     1  180.0000771  0.4184000  2
   5149   5155  10352  10324     1  0.0000000  1.6024720  3
   5155  10352  10324  10327     1  180.0000771  0.4184000  2
   5155  10352  10324  10327     1  0.0000000  1.6024720  3
   5158  10381  10353  10356     1  180.0000771  0.4184000  2
   5158  10381  10353  10356     1  0.0000000  1.6024720  3
   5162   5163   5175   5187     1  0.0000000  0.6508444  3
   5162   5166   5178   5184     1  0.0000000  0.6508444  3
   5162   5169   5172   5181     1  0.0000000  0.6508444  3
   5163   5162   5166   5178     1  180.0000771  2.0083200  2
   5163   5162   5166   5178     1  0.0000000  1.2552000  3
   5163   5162   5169   5172     1  180.0000771  2.0083200  2
   5163   5162   5169   5172     1  0.0000000  1.2552000  3
   5163   5175   5187  10439     1  0.0000000  0.6508444  3
   5166   5162   5163   5175     1  180.0000771  2.0083200  2
   5166   5162   5163   5175     1  0.0000000  1.2552000  3
   5166   5162   5169   5172     1  180.0000771  2.0083200  2
   5166   5162   5169   5172     1  0.0000000  1.2552000  3
   5166   5178   5184  10410     1  0.0000000  0.6508444  3
   5169   5162   5163   5175     1  180.0000771  2.0083200  2
   5169   5162   5163   5175     1  0.0000000  1.2552000  3
   5169   5162   5166   5178     1  180.0000771  2.0083200  2
   5169   5162   5166   5178     1  0.0000000  1.2552000  3
   5169   5172   5181   5190     1  0.0000000  0.6508444  3
   5175   5187  10439  10411     1  180.0000771  0.4184000  2
   5175   5187  10439  10411     1  0.0000000  1.6024720  3
   5178   5184  10410  10382     1  180.0000771  0.4184000  2
   5178   5184  10410  10382     1  0.0000000  1.6024720  3
   5184  10410  10382  10385     1  180.0000771  0.4184000  2
   5184  10410  10382  10385     1  0.0000000  1.6024720  3
   5187  10439  10411  10414     1  180.0000771  0.4184000  2
   5187  10439  10411  10414     1  0.0000000  1.6024720  3
   5191   5192   5204   5216     1  0.0000000  0.6508444  3
   5191   5195   5207   5213     1  0.0000000  0.6508444  3
   5191   5198   5201   5210     1  0.0000000  0.6508444  3
   5192   5191   5195   5207     1  180.0000771  2.0083200  2
   5192   5191   5195   5207     1  0.0000000  1.2552000  3
   5192   5191   5198   5201     1  180.0000771  2.0083200  2
   5192   5191   5198   5201     1  0.0000000  1.2552000  3
   5192   5204   5216  10497     1  0.0000000  0.6508444  3
   5195   5191   5192   5204     1  180.0000771  2.0083200  2
   5195   5191   5192   5204     1  0.0000000  1.2552000  3
   5195   5191   5198   5201     1  180.0000771  2.0083200  2
   5195   5191   5198   5201     1  0.0000000  1.2552000  3
   5195   5207   5213  10468     1  0.0000000  0.6508444  3
   5198   5191   5192   5204     1  180.0000771  2.0083200  2
   5198   5191   5192   5204     1  0.0000000  1.2552000  3
   5198   5191   5195   5207     1  180.0000771  2.0083200  2
   5198   5191   5195   5207     1  0.0000000  1.2552000  3
   5198   5201   5210   5219     1  0.0000000  0.6508444  3
   5204   5216  10497  10469     1  180.0000771  0.4184000  2
   5204   5216  10497  10469     1  0.0000000  1.6024720  3
   5207   5213  10468  10440     1  180.0000771  0.4184000  2
   5207   5213  10468  10440     1  0.0000000  1.6024720  3
   5213  10468  10440  10443     1  180.0000771  0.4184000  2
   5213  10468  10440  10443     1  0.0000000  1.6024720  3
   5216  10497  10469  10472     1  180.0000771  0.4184000  2
   5216  10497  10469  10472     1  0.0000000  1.6024720  3
   5220   5221   5233   5245     1  0.0000000  0.6508444  3
   5220   5224   5236   5242     1  0.0000000  0.6508444  3
   5220   5227   5230   5239     1  0.0000000  0.6508444  3
   5221   5220   5224   5236     1  180.0000771  2.0083200  2
   5221   5220   5224   5236     1  0.0000000  1.2552000  3
   5221   5220   5227   5230     1  180.0000771  2.0083200  2
   5221   5220   5227   5230     1  0.0000000  1.2552000  3
   5221   5233   5245  10555     1  0.0000000  0.6508444  3
   5224   5220   5221   5233     1  180.0000771  2.0083200  2
   5224   5220   5221   5233     1  0.0000000  1.2552000  3
   5224   5220   5227   5230     1  180.0000771  2.0083200  2
   5224   5220   5227   5230     1  0.0000000  1.2552000  3
   5224   5236   5242  10526     1  0.0000000  0.6508444  3
   5227   5220   5221   5233     1  180.0000771  2.0083200  2
   5227   5220   5221   5233     1  0.0000000  1.2552000  3
   5227   5220   5224   5236     1  180.0000771  2.0083200  2
   5227   5220   5224   5236     1  0.0000000  1.2552000  3
   5227   5230   5239   5248     1  0.0000000  0.6508444  3
   5233   5245  10555  10527     1  180.0000771  0.4184000  2
   5233   5245  10555  10527     1  0.0000000  1.6024720  3
   5236   5242  10526  10498     1  180.0000771  0.4184000  2
   5236   5242  10526  10498     1  0.0000000  1.6024720  3
   5242  10526  10498  10501     1  180.0000771  0.4184000  2
   5242  10526  10498  10501     1  0.0000000  1.6024720  3
   5245  10555  10527  10530     1  180.0000771  0.4184000  2
   5245  10555  10527  10530     1  0.0000000  1.6024720  3
   5249   5250   5262   5274     1  0.0000000  0.6508444  3
   5249   5253   5265   5271     1  0.0000000  0.6508444  3
   5249   5256   5259   5268     1  0.0000000  0.6508444  3
   5250   5249   5253   5265     1  180.0000771  2.0083200  2
   5250   5249   5253   5265     1  0.0000000  1.2552000  3
   5250   5249   5256   5259     1  180.0000771  2.0083200  2
   5250   5249   5256   5259     1  0.0000000  1.2552000  3
   5250   5262   5274  10613     1  0.0000000  0.6508444  3
   5253   5249   5250   5262     1  180.0000771  2.0083200  2
   5253   5249   5250   5262     1  0.0000000  1.2552000  3
   5253   5249   5256   5259     1  180.0000771  2.0083200  2
   5253   5249   5256   5259     1  0.0000000  1.2552000  3
   5253   5265   5271  10584     1  0.0000000  0.6508444  3
   5256   5249   5250   5262     1  180.0000771  2.0083200  2
   5256   5249   5250   5262     1  0.0000000  1.2552000  3
   5256   5249   5253   5265     1  180.0000771  2.0083200  2
   5256   5249   5253   5265     1  0.0000000  1.2552000  3
   5256   5259   5268   5277     1  0.0000000  0.6508444  3
   5262   5274  10613  10585     1  180.0000771  0.4184000  2
   5262   5274  10613  10585     1  0.0000000  1.6024720  3
   5265   5271  10584  10556     1  180.0000771  0.4184000  2
   5265   5271  10584  10556     1  0.0000000  1.6024720  3
   5271  10584  10556  10559     1  180.0000771  0.4184000  2
   5271  10584  10556  10559     1  0.0000000  1.6024720  3
   5274  10613  10585  10588     1  180.0000771  0.4184000  2
   5274  10613  10585  10588     1  0.0000000  1.6024720  3
   5278   5279   5291   5303     1  0.0000000  0.6508444  3
   5278   5282   5294   5300     1  0.0000000  0.6508444  3
   5278   5285   5288   5297     1  0.0000000  0.6508444  3
   5279   5278   5282   5294     1  180.0000771  2.0083200  2
   5279   5278   5282   5294     1  0.0000000  1.2552000  3
   5279   5278   5285   5288     1  180.0000771  2.0083200  2
   5279   5278   5285   5288     1  0.0000000  1.2552000  3
   5279   5291   5303  10671     1  0.0000000  0.6508444  3
   5282   5278   5279   5291     1  180.0000771  2.0083200  2
   5282   5278   5279   5291     1  0.0000000  1.2552000  3
   5282   5278   5285   5288     1  180.0000771  2.0083200  2
   5282   5278   5285   5288     1  0.0000000  1.2552000  3
   5282   5294   5300  10642     1  0.0000000  0.6508444  3
   5285   5278   5279   5291     1  180.0000771  2.0083200  2
   5285   5278   5279   5291     1  0.0000000  1.2552000  3
   5285   5278   5282   5294     1  180.0000771  2.0083200  2
   5285   5278   5282   5294     1  0.0000000  1.2552000  3
   5285   5288   5297   5306     1  0.0000000  0.6508444  3
   5291   5303  10671  10643     1  180.0000771  0.4184000  2
   5291   5303  10671  10643     1  0.0000000  1.6024720  3
   5294   5300  10642  10614     1  180.0000771  0.4184000  2
   5294   5300  10642  10614     1  0.0000000  1.6024720  3
   5300  10642  10614  10617     1  180.0000771  0.4184000  2
   5300  10642  10614  10617     1  0.0000000  1.6024720  3
   5303  10671  10643  10646     1  180.0000771  0.4184000  2
   5303  10671  10643  10646     1  0.0000000  1.6024720  3
   5307   5308   5320   5332     1  0.0000000  0.6508444  3
   5307   5311   5323   5329     1  0.0000000  0.6508444  3
   5307   5314   5317   5326     1  0.0000000  0.6508444  3
   5308   5307   5311   5323     1  180.0000771  2.0083200  2
   5308   5307   5311   5323     1  0.0000000  1.2552000  3
   5308   5307   5314   5317     1  180.0000771  2.0083200  2
   5308   5307   5314   5317     1  0.0000000  1.2552000  3
   5308   5320   5332  10729     1  0.0000000  0.6508444  3
   5311   5307   5308   5320     1  180.0000771  2.0083200  2
   5311   5307   5308   5320     1  0.0000000  1.2552000  3
   5311   5307   5314   5317     1  180.0000771  2.0083200  2
   5311   5307   5314   5317     1  0.0000000  1.2552000  3
   5311   5323   5329  10700     1  0.0000000  0.6508444  3
   5314   5307   5308   5320     1  180.0000771  2.0083200  2
   5314   5307   5308   5320     1  0.0000000  1.2552000  3
   5314   5307   5311   5323     1  180.0000771  2.0083200  2
   5314   5307   5311   5323     1  0.0000000  1.2552000  3
   5314   5317   5326   5335     1  0.0000000  0.6508444  3
   5320   5332  10729  10701     1  180.0000771  0.4184000  2
   5320   5332  10729  10701     1  0.0000000  1.6024720  3
   5323   5329  10700  10672     1  180.0000771  0.4184000  2
   5323   5329  10700  10672     1  0.0000000  1.6024720  3
   5329  10700  10672  10675     1  180.0000771  0.4184000  2
   5329  10700  10672  10675     1  0.0000000  1.6024720  3
   5332  10729  10701  10704     1  180.0000771  0.4184000  2
   5332  10729  10701  10704     1  0.0000000  1.6024720  3
   5336   5337   5349   5361     1  0.0000000  0.6508444  3
   5336   5340   5352   5358     1  0.0000000  0.6508444  3
   5336   5343   5346   5355     1  0.0000000  0.6508444  3
   5337   5336   5340   5352     1  180.0000771  2.0083200  2
   5337   5336   5340   5352     1  0.0000000  1.2552000  3
   5337   5336   5343   5346     1  180.0000771  2.0083200  2
   5337   5336   5343   5346     1  0.0000000  1.2552000  3
   5337   5349   5361  10787     1  0.0000000  0.6508444  3
   5340   5336   5337   5349     1  180.0000771  2.0083200  2
   5340   5336   5337   5349     1  0.0000000  1.2552000  3
   5340   5336   5343   5346     1  180.0000771  2.0083200  2
   5340   5336   5343   5346     1  0.0000000  1.2552000  3
   5340   5352   5358  10758     1  0.0000000  0.6508444  3
   5343   5336   5337   5349     1  180.0000771  2.0083200  2
   5343   5336   5337   5349     1  0.0000000  1.2552000  3
   5343   5336   5340   5352     1  180.0000771  2.0083200  2
   5343   5336   5340   5352     1  0.0000000  1.2552000  3
   5343   5346   5355   5364     1  0.0000000  0.6508444  3
   5349   5361  10787  10759     1  180.0000771  0.4184000  2
   5349   5361  10787  10759     1  0.0000000  1.6024720  3
   5352   5358  10758  10730     1  180.0000771  0.4184000  2
   5352   5358  10758  10730     1  0.0000000  1.6024720  3
   5358  10758  10730  10733     1  180.0000771  0.4184000  2
   5358  10758  10730  10733     1  0.0000000  1.6024720  3
   5361  10787  10759  10762     1  180.0000771  0.4184000  2
   5361  10787  10759  10762     1  0.0000000  1.6024720  3
   5365   5366   5378   5390     1  0.0000000  0.6508444  3
   5365   5369   5381   5387     1  0.0000000  0.6508444  3
   5365   5372   5375   5384     1  0.0000000  0.6508444  3
   5366   5365   5369   5381     1  180.0000771  2.0083200  2
   5366   5365   5369   5381     1  0.0000000  1.2552000  3
   5366   5365   5372   5375     1  180.0000771  2.0083200  2
   5366   5365   5372   5375     1  0.0000000  1.2552000  3
   5366   5378   5390  10845     1  0.0000000  0.6508444  3
   5369   5365   5366   5378     1  180.0000771  2.0083200  2
   5369   5365   5366   5378     1  0.0000000  1.2552000  3
   5369   5365   5372   5375     1  180.0000771  2.0083200  2
   5369   5365   5372   5375     1  0.0000000  1.2552000  3
   5369   5381   5387  10816     1  0.0000000  0.6508444  3
   5372   5365   5366   5378     1  180.0000771  2.0083200  2
   5372   5365   5366   5378     1  0.0000000  1.2552000  3
   5372   5365   5369   5381     1  180.0000771  2.0083200  2
   5372   5365   5369   5381     1  0.0000000  1.2552000  3
   5372   5375   5384   5393     1  0.0000000  0.6508444  3
   5378   5390  10845  10817     1  180.0000771  0.4184000  2
   5378   5390  10845  10817     1  0.0000000  1.6024720  3
   5381   5387  10816  10788     1  180.0000771  0.4184000  2
   5381   5387  10816  10788     1  0.0000000  1.6024720  3
   5387  10816  10788  10791     1  180.0000771  0.4184000  2
   5387  10816  10788  10791     1  0.0000000  1.6024720  3
   5390  10845  10817  10820     1  180.0000771  0.4184000  2
   5390  10845  10817  10820     1  0.0000000  1.6024720  3
   5394   5395   5407   5419     1  0.0000000  0.6508444  3
   5394   5398   5410   5416     1  0.0000000  0.6508444  3
   5394   5401   5404   5413     1  0.0000000  0.6508444  3
   5395   5394   5398   5410     1  180.0000771  2.0083200  2
   5395   5394   5398   5410     1  0.0000000  1.2552000  3
   5395   5394   5401   5404     1  180.0000771  2.0083200  2
   5395   5394   5401   5404     1  0.0000000  1.2552000  3
   5395   5407   5419  10903     1  0.0000000  0.6508444  3
   5398   5394   5395   5407     1  180.0000771  2.0083200  2
   5398   5394   5395   5407     1  0.0000000  1.2552000  3
   5398   5394   5401   5404     1  180.0000771  2.0083200  2
   5398   5394   5401   5404     1  0.0000000  1.2552000  3
   5398   5410   5416  10874     1  0.0000000  0.6508444  3
   5401   5394   5395   5407     1  180.0000771  2.0083200  2
   5401   5394   5395   5407     1  0.0000000  1.2552000  3
   5401   5394   5398   5410     1  180.0000771  2.0083200  2
   5401   5394   5398   5410     1  0.0000000  1.2552000  3
   5401   5404   5413   5422     1  0.0000000  0.6508444  3
   5407   5419  10903  10875     1  180.0000771  0.4184000  2
   5407   5419  10903  10875     1  0.0000000  1.6024720  3
   5410   5416  10874  10846     1  180.0000771  0.4184000  2
   5410   5416  10874  10846     1  0.0000000  1.6024720  3
   5416  10874  10846  10849     1  180.0000771  0.4184000  2
   5416  10874  10846  10849     1  0.0000000  1.6024720  3
   5419  10903  10875  10878     1  180.0000771  0.4184000  2
   5419  10903  10875  10878     1  0.0000000  1.6024720  3
   5423   5424   5436   5448     1  0.0000000  0.6508444  3
   5423   5427   5439   5445     1  0.0000000  0.6508444  3
   5423   5430   5433   5442     1  0.0000000  0.6508444  3
   5424   5423   5427   5439     1  180.0000771  2.0083200  2
   5424   5423   5427   5439     1  0.0000000  1.2552000  3
   5424   5423   5430   5433     1  180.0000771  2.0083200  2
   5424   5423   5430   5433     1  0.0000000  1.2552000  3
   5424   5436   5448  10961     1  0.0000000  0.6508444  3
   5427   5423   5424   5436     1  180.0000771  2.0083200  2
   5427   5423   5424   5436     1  0.0000000  1.2552000  3
   5427   5423   5430   5433     1  180.0000771  2.0083200  2
   5427   5423   5430   5433     1  0.0000000  1.2552000  3
   5427   5439   5445  10932     1  0.0000000  0.6508444  3
   5430   5423   5424   5436     1  180.0000771  2.0083200  2
   5430   5423   5424   5436     1  0.0000000  1.2552000  3
   5430   5423   5427   5439     1  180.0000771  2.0083200  2
   5430   5423   5427   5439     1  0.0000000  1.2552000  3
   5430   5433   5442   5451     1  0.0000000  0.6508444  3
   5436   5448  10961  10933     1  180.0000771  0.4184000  2
   5436   5448  10961  10933     1  0.0000000  1.6024720  3
   5439   5445  10932  10904     1  180.0000771  0.4184000  2
   5439   5445  10932  10904     1  0.0000000  1.6024720  3
   5445  10932  10904  10907     1  180.0000771  0.4184000  2
   5445  10932  10904  10907     1  0.0000000  1.6024720  3
   5448  10961  10933  10936     1  180.0000771  0.4184000  2
   5448  10961  10933  10936     1  0.0000000  1.6024720  3
   5452   5453   5465   5477     1  0.0000000  0.6508444  3
   5452   5456   5468   5474     1  0.0000000  0.6508444  3
   5452   5459   5462   5471     1  0.0000000  0.6508444  3
   5453   5452   5456   5468     1  180.0000771  2.0083200  2
   5453   5452   5456   5468     1  0.0000000  1.2552000  3
   5453   5452   5459   5462     1  180.0000771  2.0083200  2
   5453   5452   5459   5462     1  0.0000000  1.2552000  3
   5453   5465   5477  11019     1  0.0000000  0.6508444  3
   5456   5452   5453   5465     1  180.0000771  2.0083200  2
   5456   5452   5453   5465     1  0.0000000  1.2552000  3
   5456   5452   5459   5462     1  180.0000771  2.0083200  2
   5456   5452   5459   5462     1  0.0000000  1.2552000  3
   5456   5468   5474  10990     1  0.0000000  0.6508444  3
   5459   5452   5453   5465     1  180.0000771  2.0083200  2
   5459   5452   5453   5465     1  0.0000000  1.2552000  3
   5459   5452   5456   5468     1  180.0000771  2.0083200  2
   5459   5452   5456   5468     1  0.0000000  1.2552000  3
   5459   5462   5471   5480     1  0.0000000  0.6508444  3
   5465   5477  11019  10991     1  180.0000771  0.4184000  2
   5465   5477  11019  10991     1  0.0000000  1.6024720  3
   5468   5474  10990  10962     1  180.0000771  0.4184000  2
   5468   5474  10990  10962     1  0.0000000  1.6024720  3
   5474  10990  10962  10965     1  180.0000771  0.4184000  2
   5474  10990  10962  10965     1  0.0000000  1.6024720  3
   5477  11019  10991  10994     1  180.0000771  0.4184000  2
   5477  11019  10991  10994     1  0.0000000  1.6024720  3
   5481   5482   5494   5506     1  0.0000000  0.6508444  3
   5481   5485   5497   5503     1  0.0000000  0.6508444  3
   5481   5488   5491   5500     1  0.0000000  0.6508444  3
   5482   5481   5485   5497     1  180.0000771  2.0083200  2
   5482   5481   5485   5497     1  0.0000000  1.2552000  3
   5482   5481   5488   5491     1  180.0000771  2.0083200  2
   5482   5481   5488   5491     1  0.0000000  1.2552000  3
   5482   5494   5506  11077     1  0.0000000  0.6508444  3
   5485   5481   5482   5494     1  180.0000771  2.0083200  2
   5485   5481   5482   5494     1  0.0000000  1.2552000  3
   5485   5481   5488   5491     1  180.0000771  2.0083200  2
   5485   5481   5488   5491     1  0.0000000  1.2552000  3
   5485   5497   5503  11048     1  0.0000000  0.6508444  3
   5488   5481   5482   5494     1  180.0000771  2.0083200  2
   5488   5481   5482   5494     1  0.0000000  1.2552000  3
   5488   5481   5485   5497     1  180.0000771  2.0083200  2
   5488   5481   5485   5497     1  0.0000000  1.2552000  3
   5488   5491   5500   5509     1  0.0000000  0.6508444  3
   5494   5506  11077  11049     1  180.0000771  0.4184000  2
   5494   5506  11077  11049     1  0.0000000  1.6024720  3
   5497   5503  11048  11020     1  180.0000771  0.4184000  2
   5497   5503  11048  11020     1  0.0000000  1.6024720  3
   5503  11048  11020  11023     1  180.0000771  0.4184000  2
   5503  11048  11020  11023     1  0.0000000  1.6024720  3
   5506  11077  11049  11052     1  180.0000771  0.4184000  2
   5506  11077  11049  11052     1  0.0000000  1.6024720  3
   5510   5513   5516   5519     1  0.0000000  0.6508444  3
   5513   5516   5519   5520     1  180.0000771  2.0083200  2
   5513   5516   5519   5520     1  0.0000000  1.2552000  3
   5513   5516   5519   5529     1  180.0000771  2.0083200  2
   5513   5516   5519   5529     1  0.0000000  1.2552000  3
   5516   5513   5510   5538     1  0.0000000  0.6508444  3
   5516   5519   5520   5523     1  180.0000771  2.0083200  2
   5516   5519   5520   5523     1  0.0000000  1.2552000  3
   5516   5519   5529   5532     1  180.0000771  2.0083200  2
   5516   5519   5529   5532     1  0.0000000  1.2552000  3
   5519   5520   5523   5526     1  0.0000000  0.6508444  3
   5519   5529   5532   5535     1  0.0000000  0.6508444  3
   5520   5519   5529   5532     1  180.0000771  2.0083200  2
   5520   5519   5529   5532     1  0.0000000  1.2552000  3
   5520   5523   5526   5527     1  180.0000771  0.0000000  2
   5520   5523   5526   5528     1  180.0000771  0.0000000  2
   5523   5520   5519   5529     1  180.0000771  2.0083200  2
   5523   5520   5519   5529     1  0.0000000  1.2552000  3
   5529   5532   5535   5536     1  180.0000771  0.0000000  2
   5529   5532   5535   5537     1  180.0000771  0.0000000  2
   5539   5542   5545   5548     1  0.0000000  0.6508444  3
   5542   5545   5548   5549     1  180.0000771  2.0083200  2
   5542   5545   5548   5549     1  0.0000000  1.2552000  3
   5542   5545   5548   5558     1  180.0000771  2.0083200  2
   5542   5545   5548   5558     1  0.0000000  1.2552000  3
   5545   5548   5549   5552     1  180.0000771  2.0083200  2
   5545   5548   5549   5552     1  0.0000000  1.2552000  3
   5545   5548   5558   5561     1  180.0000771  2.0083200  2
   5545   5548   5558   5561     1  0.0000000  1.2552000  3
   5545   5542   5539   5567     1  0.0000000  0.6508444  3
   5548   5549   5552   5555     1  0.0000000  0.6508444  3
   5548   5558   5561   5564     1  0.0000000  0.6508444  3
   5549   5552   5555   5556     1  180.0000771  0.0000000  2
   5549   5552   5555   5557     1  180.0000771  0.0000000  2
   5549   5548   5558   5561     1  180.0000771  2.0083200  2
   5549   5548   5558   5561     1  0.0000000  1.2552000  3
   5552   5549   5548   5558     1  180.0000771  2.0083200  2
   5552   5549   5548   5558     1  0.0000000  1.2552000  3
   5558   5561   5564   5565     1  180.0000771  0.0000000  2
   5558   5561   5564   5566     1  180.0000771  0.0000000  2
   5568   5571   5574   5577     1  0.0000000  0.6508444  3
   5571   5574   5577   5578     1  180.0000771  2.0083200  2
   5571   5574   5577   5578     1  0.0000000  1.2552000  3
   5571   5574   5577   5587     1  180.0000771  2.0083200  2
   5571   5574   5577   5587     1  0.0000000  1.2552000  3
   5574   5571   5568   5596     1  0.0000000  0.6508444  3
   5574   5577   5578   5581     1  180.0000771  2.0083200  2
   5574   5577   5578   5581     1  0.0000000  1.2552000  3
   5574   5577   5587   5590     1  180.0000771  2.0083200  2
   5574   5577   5587   5590     1  0.0000000  1.2552000  3
   5577   5578   5581   5584     1  0.0000000  0.6508444  3
   5577   5587   5590   5593     1  0.0000000  0.6508444  3
   5578   5577   5587   5590     1  180.0000771  2.0083200  2
   5578   5577   5587   5590     1  0.0000000  1.2552000  3
   5578   5581   5584   5585     1  180.0000771  0.0000000  2
   5578   5581   5584   5586     1  180.0000771  0.0000000  2
   5581   5578   5577   5587     1  180.0000771  2.0083200  2
   5581   5578   5577   5587     1  0.0000000  1.2552000  3
   5587   5590   5593   5594     1  180.0000771  0.0000000  2
   5587   5590   5593   5595     1  180.0000771  0.0000000  2
   5597   5600   5603   5606     1  0.0000000  0.6508444  3
   5600   5603   5606   5607     1  180.0000771  2.0083200  2
   5600   5603   5606   5607     1  0.0000000  1.2552000  3
   5600   5603   5606   5616     1  180.0000771  2.0083200  2
   5600   5603   5606   5616     1  0.0000000  1.2552000  3
   5603   5606   5607   5610     1  180.0000771  2.0083200  2
   5603   5606   5607   5610     1  0.0000000  1.2552000  3
   5603   5606   5616   5619     1  180.0000771  2.0083200  2
   5603   5606   5616   5619     1  0.0000000  1.2552000  3
   5603   5600   5597   5625     1  0.0000000  0.6508444  3
   5606   5607   5610   5613     1  0.0000000  0.6508444  3
   5606   5616   5619   5622     1  0.0000000  0.6508444  3
   5607   5610   5613   5614     1  180.0000771  0.0000000  2
   5607   5610   5613   5615     1  180.0000771  0.0000000  2
   5607   5606   5616   5619     1  180.0000771  2.0083200  2
   5607   5606   5616   5619     1  0.0000000  1.2552000  3
   5610   5607   5606   5616     1  180.0000771  2.0083200  2
   5610   5607   5606   5616     1  0.0000000  1.2552000  3
   5616   5619   5622   5623     1  180.0000771  0.0000000  2
   5616   5619   5622   5624     1  180.0000771  0.0000000  2
   5626   5629   5632   5635     1  0.0000000  0.6508444  3
   5629   5632   5635   5636     1  180.0000771  2.0083200  2
   5629   5632   5635   5636     1  0.0000000  1.2552000  3
   5629   5632   5635   5645     1  180.0000771  2.0083200  2
   5629   5632   5635   5645     1  0.0000000  1.2552000  3
   5632   5629   5626   5654     1  0.0000000  0.6508444  3
   5632   5635   5636   5639     1  180.0000771  2.0083200  2
   5632   5635   5636   5639     1  0.0000000  1.2552000  3
   5632   5635   5645   5648     1  180.0000771  2.0083200  2
   5632   5635   5645   5648     1  0.0000000  1.2552000  3
   5635   5636   5639   5642     1  0.0000000  0.6508444  3
   5635   5645   5648   5651     1  0.0000000  0.6508444  3
   5636   5635   5645   5648     1  180.0000771  2.0083200  2
   5636   5635   5645   5648     1  0.0000000  1.2552000  3
   5636   5639   5642   5643     1  180.0000771  0.0000000  2
   5636   5639   5642   5644     1  180.0000771  0.0000000  2
   5639   5636   5635   5645     1  180.0000771  2.0083200  2
   5639   5636   5635   5645     1  0.0000000  1.2552000  3
   5645   5648   5651   5652     1  180.0000771  0.0000000  2
   5645   5648   5651   5653     1  180.0000771  0.0000000  2
   5655   5658   5661   5664     1  0.0000000  0.6508444  3
   5658   5661   5664   5665     1  180.0000771  2.0083200  2
   5658   5661   5664   5665     1  0.0000000  1.2552000  3
   5658   5661   5664   5674     1  180.0000771  2.0083200  2
   5658   5661   5664   5674     1  0.0000000  1.2552000  3
   5661   5664   5665   5668     1  180.0000771  2.0083200  2
   5661   5664   5665   5668     1  0.0000000  1.2552000  3
   5661   5664   5674   5677     1  180.0000771  2.0083200  2
   5661   5664   5674   5677     1  0.0000000  1.2552000  3
   5661   5658   5655   5683     1  0.0000000  0.6508444  3
   5664   5665   5668   5671     1  0.0000000  0.6508444  3
   5664   5674   5677   5680     1  0.0000000  0.6508444  3
   5665   5668   5671   5672     1  180.0000771  0.0000000  2
   5665   5668   5671   5673     1  180.0000771  0.0000000  2
   5665   5664   5674   5677     1  180.0000771  2.0083200  2
   5665   5664   5674   5677     1  0.0000000  1.2552000  3
   5668   5665   5664   5674     1  180.0000771  2.0083200  2
   5668   5665   5664   5674     1  0.0000000  1.2552000  3
   5674   5677   5680   5681     1  180.0000771  0.0000000  2
   5674   5677   5680   5682     1  180.0000771  0.0000000  2
   5684   5687   5690   5693     1  0.0000000  0.6508444  3
   5687   5690   5693   5694     1  180.0000771  2.0083200  2
   5687   5690   5693   5694     1  0.0000000  1.2552000  3
   5687   5690   5693   5703     1  180.0000771  2.0083200  2
   5687   5690   5693   5703     1  0.0000000  1.2552000  3
   5690   5687   5684   5712     1  0.0000000  0.6508444  3
   5690   5693   5694   5697     1  180.0000771  2.0083200  2
   5690   5693   5694   5697     1  0.0000000  1.2552000  3
   5690   5693   5703   5706     1  180.0000771  2.0083200  2
   5690   5693   5703   5706     1  0.0000000  1.2552000  3
   5693   5694   5697   5700     1  0.0000000  0.6508444  3
   5693   5703   5706   5709     1  0.0000000  0.6508444  3
   5694   5693   5703   5706     1  180.0000771  2.0083200  2
   5694   5693   5703   5706     1  0.0000000  1.2552000  3
   5694   5697   5700   5701     1  180.0000771  0.0000000  2
   5694   5697   5700   5702     1  180.0000771  0.0000000  2
   5697   5694   5693   5703     1  180.0000771  2.0083200  2
   5697   5694   5693   5703     1  0.0000000  1.2552000  3
   5703   5706   5709   5710     1  180.0000771  0.0000000  2
   5703   5706   5709   5711     1  180.0000771  0.0000000  2
   5713   5716   5719   5722     1  0.0000000  0.6508444  3
   5716   5719   5722   5723     1  180.0000771  2.0083200  2
   5716   5719   5722   5723     1  0.0000000  1.2552000  3
   5716   5719   5722   5732     1  180.0000771  2.0083200  2
   5716   5719   5722   5732     1  0.0000000  1.2552000  3
   5719   5722   5723   5726     1  180.0000771  2.0083200  2
   5719   5722   5723   5726     1  0.0000000  1.2552000  3
   5719   5722   5732   5735     1  180.0000771  2.0083200  2
   5719   5722   5732   5735     1  0.0000000  1.2552000  3
   5719   5716   5713   5741     1  0.0000000  0.6508444  3
   5722   5723   5726   5729     1  0.0000000  0.6508444  3
   5722   5732   5735   5738     1  0.0000000  0.6508444  3
   5723   5726   5729   5730     1  180.0000771  0.0000000  2
   5723   5726   5729   5731     1  180.0000771  0.0000000  2
   5723   5722   5732   5735     1  180.0000771  2.0083200  2
   5723   5722   5732   5735     1  0.0000000  1.2552000  3
   5726   5723   5722   5732     1  180.0000771  2.0083200  2
   5726   5723   5722   5732     1  0.0000000  1.2552000  3
   5732   5735   5738   5739     1  180.0000771  0.0000000  2
   5732   5735   5738   5740     1  180.0000771  0.0000000  2
   5742   5745   5748   5751     1  0.0000000  0.6508444  3
   5745   5748   5751   5752     1  180.0000771  2.0083200  2
   5745   5748   5751   5752     1  0.0000000  1.2552000  3
   5745   5748   5751   5761     1  180.0000771  2.0083200  2
   5745   5748   5751   5761     1  0.0000000  1.2552000  3
   5748   5745   5742   5770     1  0.0000000  0.6508444  3
   5748   5751   5752   5755     1  180.0000771  2.0083200  2
   5748   5751   5752   5755     1  0.0000000  1.2552000  3
   5748   5751   5761   5764     1  180.0000771  2.0083200  2
   5748   5751   5761   5764     1  0.0000000  1.2552000  3
   5751   5752   5755   5758     1  0.0000000  0.6508444  3
   5751   5761   5764   5767     1  0.0000000  0.6508444  3
   5752   5751   5761   5764     1  180.0000771  2.0083200  2
   5752   5751   5761   5764     1  0.0000000  1.2552000  3
   5752   5755   5758   5759     1  180.0000771  0.0000000  2
   5752   5755   5758   5760     1  180.0000771  0.0000000  2
   5755   5752   5751   5761     1  180.0000771  2.0083200  2
   5755   5752   5751   5761     1  0.0000000  1.2552000  3
   5761   5764   5767   5768     1  180.0000771  0.0000000  2
   5761   5764   5767   5769     1  180.0000771  0.0000000  2
   5771   5774   5777   5780     1  0.0000000  0.6508444  3
   5774   5777   5780   5781     1  180.0000771  2.0083200  2
   5774   5777   5780   5781     1  0.0000000  1.2552000  3
   5774   5777   5780   5790     1  180.0000771  2.0083200  2
   5774   5777   5780   5790     1  0.0000000  1.2552000  3
   5777   5780   5781   5784     1  180.0000771  2.0083200  2
   5777   5780   5781   5784     1  0.0000000  1.2552000  3
   5777   5780   5790   5793     1  180.0000771  2.0083200  2
   5777   5780   5790   5793     1  0.0000000  1.2552000  3
   5777   5774   5771   5799     1  0.0000000  0.6508444  3
   5780   5781   5784   5787     1  0.0000000  0.6508444  3
   5780   5790   5793   5796     1  0.0000000  0.6508444  3
   5781   5784   5787   5788     1  180.0000771  0.0000000  2
   5781   5784   5787   5789     1  180.0000771  0.0000000  2
   5781   5780   5790   5793     1  180.0000771  2.0083200  2
   5781   5780   5790   5793     1  0.0000000  1.2552000  3
   5784   5781   5780   5790     1  180.0000771  2.0083200  2
   5784   5781   5780   5790     1  0.0000000  1.2552000  3
   5790   5793   5796   5797     1  180.0000771  0.0000000  2
   5790   5793   5796   5798     1  180.0000771  0.0000000  2
   5800   5803   5806   5809     1  0.0000000  0.6508444  3
   5803   5806   5809   5810     1  180.0000771  2.0083200  2
   5803   5806   5809   5810     1  0.0000000  1.2552000  3
   5803   5806   5809   5819     1  180.0000771  2.0083200  2
   5803   5806   5809   5819     1  0.0000000  1.2552000  3
   5806   5803   5800   5828     1  0.0000000  0.6508444  3
   5806   5809   5810   5813     1  180.0000771  2.0083200  2
   5806   5809   5810   5813     1  0.0000000  1.2552000  3
   5806   5809   5819   5822     1  180.0000771  2.0083200  2
   5806   5809   5819   5822     1  0.0000000  1.2552000  3
   5809   5810   5813   5816     1  0.0000000  0.6508444  3
   5809   5819   5822   5825     1  0.0000000  0.6508444  3
   5810   5809   5819   5822     1  180.0000771  2.0083200  2
   5810   5809   5819   5822     1  0.0000000  1.2552000  3
   5810   5813   5816   5817     1  180.0000771  0.0000000  2
   5810   5813   5816   5818     1  180.0000771  0.0000000  2
   5813   5810   5809   5819     1  180.0000771  2.0083200  2
   5813   5810   5809   5819     1  0.0000000  1.2552000  3
   5819   5822   5825   5826     1  180.0000771  0.0000000  2
   5819   5822   5825   5827     1  180.0000771  0.0000000  2
   5829   5832   5835   5838     1  0.0000000  0.6508444  3
   5832   5835   5838   5839     1  180.0000771  2.0083200  2
   5832   5835   5838   5839     1  0.0000000  1.2552000  3
   5832   5835   5838   5848     1  180.0000771  2.0083200  2
   5832   5835   5838   5848     1  0.0000000  1.2552000  3
   5835   5838   5839   5842     1  180.0000771  2.0083200  2
   5835   5838   5839   5842     1  0.0000000  1.2552000  3
   5835   5838   5848   5851     1  180.0000771  2.0083200  2
   5835   5838   5848   5851     1  0.0000000  1.2552000  3
   5835   5832   5829   5857     1  0.0000000  0.6508444  3
   5838   5839   5842   5845     1  0.0000000  0.6508444  3
   5838   5848   5851   5854     1  0.0000000  0.6508444  3
   5839   5842   5845   5846     1  180.0000771  0.0000000  2
   5839   5842   5845   5847     1  180.0000771  0.0000000  2
   5839   5838   5848   5851     1  180.0000771  2.0083200  2
   5839   5838   5848   5851     1  0.0000000  1.2552000  3
   5842   5839   5838   5848     1  180.0000771  2.0083200  2
   5842   5839   5838   5848     1  0.0000000  1.2552000  3
   5848   5851   5854   5855     1  180.0000771  0.0000000  2
   5848   5851   5854   5856     1  180.0000771  0.0000000  2
   5858   5861   5864   5867     1  0.0000000  0.6508444  3
   5861   5864   5867   5868     1  180.0000771  2.0083200  2
   5861   5864   5867   5868     1  0.0000000  1.2552000  3
   5861   5864   5867   5877     1  180.0000771  2.0083200  2
   5861   5864   5867   5877     1  0.0000000  1.2552000  3
   5864   5861   5858   5886     1  0.0000000  0.6508444  3
   5864   5867   5868   5871     1  180.0000771  2.0083200  2
   5864   5867   5868   5871     1  0.0000000  1.2552000  3
   5864   5867   5877   5880     1  180.0000771  2.0083200  2
   5864   5867   5877   5880     1  0.0000000  1.2552000  3
   5867   5868   5871   5874     1  0.0000000  0.6508444  3
   5867   5877   5880   5883     1  0.0000000  0.6508444  3
   5868   5867   5877   5880     1  180.0000771  2.0083200  2
   5868   5867   5877   5880     1  0.0000000  1.2552000  3
   5868   5871   5874   5875     1  180.0000771  0.0000000  2
   5868   5871   5874   5876     1  180.0000771  0.0000000  2
   5871   5868   5867   5877     1  180.0000771  2.0083200  2
   5871   5868   5867   5877     1  0.0000000  1.2552000  3
   5877   5880   5883   5884     1  180.0000771  0.0000000  2
   5877   5880   5883   5885     1  180.0000771  0.0000000  2
   5887   5890   5893   5896     1  0.0000000  0.6508444  3
   5890   5893   5896   5897     1  180.0000771  2.0083200  2
   5890   5893   5896   5897     1  0.0000000  1.2552000  3
   5890   5893   5896   5906     1  180.0000771  2.0083200  2
   5890   5893   5896   5906     1  0.0000000  1.2552000  3
   5893   5896   5897   5900     1  180.0000771  2.0083200  2
   5893   5896   5897   5900     1  0.0000000  1.2552000  3
   5893   5896   5906   5909     1  180.0000771  2.0083200  2
   5893   5896   5906   5909     1  0.0000000  1.2552000  3
   5893   5890   5887   5915     1  0.0000000  0.6508444  3
   5896   5897   5900   5903     1  0.0000000  0.6508444  3
   5896   5906   5909   5912     1  0.0000000  0.6508444  3
   5897   5900   5903   5904     1  180.0000771  0.0000000  2
   5897   5900   5903   5905     1  180.0000771  0.0000000  2
   5897   5896   5906   5909     1  180.0000771  2.0083200  2
   5897   5896   5906   5909     1  0.0000000  1.2552000  3
   5900   5897   5896   5906     1  180.0000771  2.0083200  2
   5900   5897   5896   5906     1  0.0000000  1.2552000  3
   5906   5909   5912   5913     1  180.0000771  0.0000000  2
   5906   5909   5912   5914     1  180.0000771  0.0000000  2
   5916   5919   5922   5925     1  0.0000000  0.6508444  3
   5919   5922   5925   5926     1  180.0000771  2.0083200  2
   5919   5922   5925   5926     1  0.0000000  1.2552000  3
   5919   5922   5925   5935     1  180.0000771  2.0083200  2
   5919   5922   5925   5935     1  0.0000000  1.2552000  3
   5922   5919   5916   5944     1  0.0000000  0.6508444  3
   5922   5925   5926   5929     1  180.0000771  2.0083200  2
   5922   5925   5926   5929     1  0.0000000  1.2552000  3
   5922   5925   5935   5938     1  180.0000771  2.0083200  2
   5922   5925   5935   5938     1  0.0000000  1.2552000  3
   5925   5926   5929   5932     1  0.0000000  0.6508444  3
   5925   5935   5938   5941     1  0.0000000  0.6508444  3
   5926   5925   5935   5938     1  180.0000771  2.0083200  2
   5926   5925   5935   5938     1  0.0000000  1.2552000  3
   5926   5929   5932   5933     1  180.0000771  0.0000000  2
   5926   5929   5932   5934     1  180.0000771  0.0000000  2
   5929   5926   5925   5935     1  180.0000771  2.0083200  2
   5929   5926   5925   5935     1  0.0000000  1.2552000  3
   5935   5938   5941   5942     1  180.0000771  0.0000000  2
   5935   5938   5941   5943     1  180.0000771  0.0000000  2
   5945   5948   5951   5954     1  0.0000000  0.6508444  3
   5948   5951   5954   5955     1  180.0000771  2.0083200  2
   5948   5951   5954   5955     1  0.0000000  1.2552000  3
   5948   5951   5954   5964     1  180.0000771  2.0083200  2
   5948   5951   5954   5964     1  0.0000000  1.2552000  3
   5951   5954   5955   5958     1  180.0000771  2.0083200  2
   5951   5954   5955   5958     1  0.0000000  1.2552000  3
   5951   5954   5964   5967     1  180.0000771  2.0083200  2
   5951   5954   5964   5967     1  0.0000000  1.2552000  3
   5951   5948   5945   5973     1  0.0000000  0.6508444  3
   5954   5955   5958   5961     1  0.0000000  0.6508444  3
   5954   5964   5967   5970     1  0.0000000  0.6508444  3
   5955   5958   5961   5962     1  180.0000771  0.0000000  2
   5955   5958   5961   5963     1  180.0000771  0.0000000  2
   5955   5954   5964   5967     1  180.0000771  2.0083200  2
   5955   5954   5964   5967     1  0.0000000  1.2552000  3
   5958   5955   5954   5964     1  180.0000771  2.0083200  2
   5958   5955   5954   5964     1  0.0000000  1.2552000  3
   5964   5967   5970   5971     1  180.0000771  0.0000000  2
   5964   5967   5970   5972     1  180.0000771  0.0000000  2
   5974   5977   5980   5983     1  0.0000000  0.6508444  3
   5977   5980   5983   5984     1  180.0000771  2.0083200  2
   5977   5980   5983   5984     1  0.0000000  1.2552000  3
   5977   5980   5983   5993     1  180.0000771  2.0083200  2
   5977   5980   5983   5993     1  0.0000000  1.2552000  3
   5980   5977   5974   6002     1  0.0000000  0.6508444  3
   5980   5983   5984   5987     1  180.0000771  2.0083200  2
   5980   5983   5984   5987     1  0.0000000  1.2552000  3
   5980   5983   5993   5996     1  180.0000771  2.0083200  2
   5980   5983   5993   5996     1  0.0000000  1.2552000  3
   5983   5984   5987   5990     1  0.0000000  0.6508444  3
   5983   5993   5996   5999     1  0.0000000  0.6508444  3
   5984   5983   5993   5996     1  180.0000771  2.0083200  2
   5984   5983   5993   5996     1  0.0000000  1.2552000  3
   5984   5987   5990   5991     1  180.0000771  0.0000000  2
   5984   5987   5990   5992     1  180.0000771  0.0000000  2
   5987   5984   5983   5993     1  180.0000771  2.0083200  2
   5987   5984   5983   5993     1  0.0000000  1.2552000  3
   5993   5996   5999   6000     1  180.0000771  0.0000000  2
   5993   5996   5999   6001     1  180.0000771  0.0000000  2
   6003   6006   6009   6012     1  0.0000000  0.6508444  3
   6006   6009   6012   6013     1  180.0000771  2.0083200  2
   6006   6009   6012   6013     1  0.0000000  1.2552000  3
   6006   6009   6012   6022     1  180.0000771  2.0083200  2
   6006   6009   6012   6022     1  0.0000000  1.2552000  3
   6009   6012   6013   6016     1  180.0000771  2.0083200  2
   6009   6012   6013   6016     1  0.0000000  1.2552000  3
   6009   6012   6022   6025     1  180.0000771  2.0083200  2
   6009   6012   6022   6025     1  0.0000000  1.2552000  3
   6009   6006   6003   6031     1  0.0000000  0.6508444  3
   6012   6013   6016   6019     1  0.0000000  0.6508444  3
   6012   6022   6025   6028     1  0.0000000  0.6508444  3
   6013   6016   6019   6020     1  180.0000771  0.0000000  2
   6013   6016   6019   6021     1  180.0000771  0.0000000  2
   6013   6012   6022   6025     1  180.0000771  2.0083200  2
   6013   6012   6022   6025     1  0.0000000  1.2552000  3
   6016   6013   6012   6022     1  180.0000771  2.0083200  2
   6016   6013   6012   6022     1  0.0000000  1.2552000  3
   6022   6025   6028   6029     1  180.0000771  0.0000000  2
   6022   6025   6028   6030     1  180.0000771  0.0000000  2
   6032   6035   6038   6041     1  0.0000000  0.6508444  3
   6035   6038   6041   6042     1  180.0000771  2.0083200  2
   6035   6038   6041   6042     1  0.0000000  1.2552000  3
   6035   6038   6041   6051     1  180.0000771  2.0083200  2
   6035   6038   6041   6051     1  0.0000000  1.2552000  3
   6038   6035   6032   6060     1  0.0000000  0.6508444  3
   6038   6041   6042   6045     1  180.0000771  2.0083200  2
   6038   6041   6042   6045     1  0.0000000  1.2552000  3
   6038   6041   6051   6054     1  180.0000771  2.0083200  2
   6038   6041   6051   6054     1  0.0000000  1.2552000  3
   6041   6042   6045   6048     1  0.0000000  0.6508444  3
   6041   6051   6054   6057     1  0.0000000  0.6508444  3
   6042   6041   6051   6054     1  180.0000771  2.0083200  2
   6042   6041   6051   6054     1  0.0000000  1.2552000  3
   6042   6045   6048   6049     1  180.0000771  0.0000000  2
   6042   6045   6048   6050     1  180.0000771  0.0000000  2
   6045   6042   6041   6051     1  180.0000771  2.0083200  2
   6045   6042   6041   6051     1  0.0000000  1.2552000  3
   6051   6054   6057   6058     1  180.0000771  0.0000000  2
   6051   6054   6057   6059     1  180.0000771  0.0000000  2
   6061   6064   6067   6070     1  0.0000000  0.6508444  3
   6064   6067   6070   6071     1  180.0000771  2.0083200  2
   6064   6067   6070   6071     1  0.0000000  1.2552000  3
   6064   6067   6070   6080     1  180.0000771  2.0083200  2
   6064   6067   6070   6080     1  0.0000000  1.2552000  3
   6067   6070   6071   6074     1  180.0000771  2.0083200  2
   6067   6070   6071   6074     1  0.0000000  1.2552000  3
   6067   6070   6080   6083     1  180.0000771  2.0083200  2
   6067   6070   6080   6083     1  0.0000000  1.2552000  3
   6067   6064   6061   6089     1  0.0000000  0.6508444  3
   6070   6071   6074   6077     1  0.0000000  0.6508444  3
   6070   6080   6083   6086     1  0.0000000  0.6508444  3
   6071   6074   6077   6078     1  180.0000771  0.0000000  2
   6071   6074   6077   6079     1  180.0000771  0.0000000  2
   6071   6070   6080   6083     1  180.0000771  2.0083200  2
   6071   6070   6080   6083     1  0.0000000  1.2552000  3
   6074   6071   6070   6080     1  180.0000771  2.0083200  2
   6074   6071   6070   6080     1  0.0000000  1.2552000  3
   6080   6083   6086   6087     1  180.0000771  0.0000000  2
   6080   6083   6086   6088     1  180.0000771  0.0000000  2
   6090   6093   6096   6099     1  0.0000000  0.6508444  3
   6093   6096   6099   6100     1  180.0000771  2.0083200  2
   6093   6096   6099   6100     1  0.0000000  1.2552000  3
   6093   6096   6099   6109     1  180.0000771  2.0083200  2
   6093   6096   6099   6109     1  0.0000000  1.2552000  3
   6096   6093   6090   6118     1  0.0000000  0.6508444  3
   6096   6099   6100   6103     1  180.0000771  2.0083200  2
   6096   6099   6100   6103     1  0.0000000  1.2552000  3
   6096   6099   6109   6112     1  180.0000771  2.0083200  2
   6096   6099   6109   6112     1  0.0000000  1.2552000  3
   6099   6100   6103   6106     1  0.0000000  0.6508444  3
   6099   6109   6112   6115     1  0.0000000  0.6508444  3
   6100   6099   6109   6112     1  180.0000771  2.0083200  2
   6100   6099   6109   6112     1  0.0000000  1.2552000  3
   6100   6103   6106   6107     1  180.0000771  0.0000000  2
   6100   6103   6106   6108     1  180.0000771  0.0000000  2
   6103   6100   6099   6109     1  180.0000771  2.0083200  2
   6103   6100   6099   6109     1  0.0000000  1.2552000  3
   6109   6112   6115   6116     1  180.0000771  0.0000000  2
   6109   6112   6115   6117     1  180.0000771  0.0000000  2
   6119   6122   6125   6128     1  0.0000000  0.6508444  3
   6122   6125   6128   6129     1  180.0000771  2.0083200  2
   6122   6125   6128   6129     1  0.0000000  1.2552000  3
   6122   6125   6128   6138     1  180.0000771  2.0083200  2
   6122   6125   6128   6138     1  0.0000000  1.2552000  3
   6125   6128   6129   6132     1  180.0000771  2.0083200  2
   6125   6128   6129   6132     1  0.0000000  1.2552000  3
   6125   6128   6138   6141     1  180.0000771  2.0083200  2
   6125   6128   6138   6141     1  0.0000000  1.2552000  3
   6125   6122   6119   6147     1  0.0000000  0.6508444  3
   6128   6129   6132   6135     1  0.0000000  0.6508444  3
   6128   6138   6141   6144     1  0.0000000  0.6508444  3
   6129   6132   6135   6136     1  180.0000771  0.0000000  2
   6129   6132   6135   6137     1  180.0000771  0.0000000  2
   6129   6128   6138   6141     1  180.0000771  2.0083200  2
   6129   6128   6138   6141     1  0.0000000  1.2552000  3
   6132   6129   6128   6138     1  180.0000771  2.0083200  2
   6132   6129   6128   6138     1  0.0000000  1.2552000  3
   6138   6141   6144   6145     1  180.0000771  0.0000000  2
   6138   6141   6144   6146     1  180.0000771  0.0000000  2
   6148   6151   6154   6157     1  0.0000000  0.6508444  3
   6151   6154   6157   6158     1  180.0000771  2.0083200  2
   6151   6154   6157   6158     1  0.0000000  1.2552000  3
   6151   6154   6157   6167     1  180.0000771  2.0083200  2
   6151   6154   6157   6167     1  0.0000000  1.2552000  3
   6154   6151   6148   6176     1  0.0000000  0.6508444  3
   6154   6157   6158   6161     1  180.0000771  2.0083200  2
   6154   6157   6158   6161     1  0.0000000  1.2552000  3
   6154   6157   6167   6170     1  180.0000771  2.0083200  2
   6154   6157   6167   6170     1  0.0000000  1.2552000  3
   6157   6158   6161   6164     1  0.0000000  0.6508444  3
   6157   6167   6170   6173     1  0.0000000  0.6508444  3
   6158   6157   6167   6170     1  180.0000771  2.0083200  2
   6158   6157   6167   6170     1  0.0000000  1.2552000  3
   6158   6161   6164   6165     1  180.0000771  0.0000000  2
   6158   6161   6164   6166     1  180.0000771  0.0000000  2
   6161   6158   6157   6167     1  180.0000771  2.0083200  2
   6161   6158   6157   6167     1  0.0000000  1.2552000  3
   6167   6170   6173   6174     1  180.0000771  0.0000000  2
   6167   6170   6173   6175     1  180.0000771  0.0000000  2
   6177   6180   6183   6186     1  0.0000000  0.6508444  3
   6180   6183   6186   6187     1  180.0000771  2.0083200  2
   6180   6183   6186   6187     1  0.0000000  1.2552000  3
   6180   6183   6186   6196     1  180.0000771  2.0083200  2
   6180   6183   6186   6196     1  0.0000000  1.2552000  3
   6183   6186   6187   6190     1  180.0000771  2.0083200  2
   6183   6186   6187   6190     1  0.0000000  1.2552000  3
   6183   6186   6196   6199     1  180.0000771  2.0083200  2
   6183   6186   6196   6199     1  0.0000000  1.2552000  3
   6183   6180   6177   6205     1  0.0000000  0.6508444  3
   6186   6187   6190   6193     1  0.0000000  0.6508444  3
   6186   6196   6199   6202     1  0.0000000  0.6508444  3
   6187   6190   6193   6194     1  180.0000771  0.0000000  2
   6187   6190   6193   6195     1  180.0000771  0.0000000  2
   6187   6186   6196   6199     1  180.0000771  2.0083200  2
   6187   6186   6196   6199     1  0.0000000  1.2552000  3
   6190   6187   6186   6196     1  180.0000771  2.0083200  2
   6190   6187   6186   6196     1  0.0000000  1.2552000  3
   6196   6199   6202   6203     1  180.0000771  0.0000000  2
   6196   6199   6202   6204     1  180.0000771  0.0000000  2
   6206   6209   6212   6215     1  0.0000000  0.6508444  3
   6209   6212   6215   6216     1  180.0000771  2.0083200  2
   6209   6212   6215   6216     1  0.0000000  1.2552000  3
   6209   6212   6215   6225     1  180.0000771  2.0083200  2
   6209   6212   6215   6225     1  0.0000000  1.2552000  3
   6212   6209   6206   6234     1  0.0000000  0.6508444  3
   6212   6215   6216   6219     1  180.0000771  2.0083200  2
   6212   6215   6216   6219     1  0.0000000  1.2552000  3
   6212   6215   6225   6228     1  180.0000771  2.0083200  2
   6212   6215   6225   6228     1  0.0000000  1.2552000  3
   6215   6216   6219   6222     1  0.0000000  0.6508444  3
   6215   6225   6228   6231     1  0.0000000  0.6508444  3
   6216   6215   6225   6228     1  180.0000771  2.0083200  2
   6216   6215   6225   6228     1  0.0000000  1.2552000  3
   6216   6219   6222   6223     1  180.0000771  0.0000000  2
   6216   6219   6222   6224     1  180.0000771  0.0000000  2
   6219   6216   6215   6225     1  180.0000771  2.0083200  2
   6219   6216   6215   6225     1  0.0000000  1.2552000  3
   6225   6228   6231   6232     1  180.0000771  0.0000000  2
   6225   6228   6231   6233     1  180.0000771  0.0000000  2
   6235   6238   6241   6244     1  0.0000000  0.6508444  3
   6238   6241   6244   6245     1  180.0000771  2.0083200  2
   6238   6241   6244   6245     1  0.0000000  1.2552000  3
   6238   6241   6244   6254     1  180.0000771  2.0083200  2
   6238   6241   6244   6254     1  0.0000000  1.2552000  3
   6241   6244   6245   6248     1  180.0000771  2.0083200  2
   6241   6244   6245   6248     1  0.0000000  1.2552000  3
   6241   6244   6254   6257     1  180.0000771  2.0083200  2
   6241   6244   6254   6257     1  0.0000000  1.2552000  3
   6241   6238   6235   6263     1  0.0000000  0.6508444  3
   6244   6245   6248   6251     1  0.0000000  0.6508444  3
   6244   6254   6257   6260     1  0.0000000  0.6508444  3
   6245   6248   6251   6252     1  180.0000771  0.0000000  2
   6245   6248   6251   6253     1  180.0000771  0.0000000  2
   6245   6244   6254   6257     1  180.0000771  2.0083200  2
   6245   6244   6254   6257     1  0.0000000  1.2552000  3
   6248   6245   6244   6254     1  180.0000771  2.0083200  2
   6248   6245   6244   6254     1  0.0000000  1.2552000  3
   6254   6257   6260   6261     1  180.0000771  0.0000000  2
   6254   6257   6260   6262     1  180.0000771  0.0000000  2
   6264   6267   6270   6273     1  0.0000000  0.6508444  3
   6267   6270   6273   6274     1  180.0000771  2.0083200  2
   6267   6270   6273   6274     1  0.0000000  1.2552000  3
   6267   6270   6273   6283     1  180.0000771  2.0083200  2
   6267   6270   6273   6283     1  0.0000000  1.2552000  3
   6270   6267   6264   6292     1  0.0000000  0.6508444  3
   6270   6273   6274   6277     1  180.0000771  2.0083200  2
   6270   6273   6274   6277     1  0.0000000  1.2552000  3
   6270   6273   6283   6286     1  180.0000771  2.0083200  2
   6270   6273   6283   6286     1  0.0000000  1.2552000  3
   6273   6274   6277   6280     1  0.0000000  0.6508444  3
   6273   6283   6286   6289     1  0.0000000  0.6508444  3
   6274   6273   6283   6286     1  180.0000771  2.0083200  2
   6274   6273   6283   6286     1  0.0000000  1.2552000  3
   6274   6277   6280   6281     1  180.0000771  0.0000000  2
   6274   6277   6280   6282     1  180.0000771  0.0000000  2
   6277   6274   6273   6283     1  180.0000771  2.0083200  2
   6277   6274   6273   6283     1  0.0000000  1.2552000  3
   6283   6286   6289   6290     1  180.0000771  0.0000000  2
   6283   6286   6289   6291     1  180.0000771  0.0000000  2
   6293   6296   6299   6302     1  0.0000000  0.6508444  3
   6296   6299   6302   6303     1  180.0000771  2.0083200  2
   6296   6299   6302   6303     1  0.0000000  1.2552000  3
   6296   6299   6302   6312     1  180.0000771  2.0083200  2
   6296   6299   6302   6312     1  0.0000000  1.2552000  3
   6299   6302   6303   6306     1  180.0000771  2.0083200  2
   6299   6302   6303   6306     1  0.0000000  1.2552000  3
   6299   6302   6312   6315     1  180.0000771  2.0083200  2
   6299   6302   6312   6315     1  0.0000000  1.2552000  3
   6299   6296   6293   6321     1  0.0000000  0.6508444  3
   6302   6303   6306   6309     1  0.0000000  0.6508444  3
   6302   6312   6315   6318     1  0.0000000  0.6508444  3
   6303   6306   6309   6310     1  180.0000771  0.0000000  2
   6303   6306   6309   6311     1  180.0000771  0.0000000  2
   6303   6302   6312   6315     1  180.0000771  2.0083200  2
   6303   6302   6312   6315     1  0.0000000  1.2552000  3
   6306   6303   6302   6312     1  180.0000771  2.0083200  2
   6306   6303   6302   6312     1  0.0000000  1.2552000  3
   6312   6315   6318   6319     1  180.0000771  0.0000000  2
   6312   6315   6318   6320     1  180.0000771  0.0000000  2
   6322   6325   6328   6331     1  0.0000000  0.6508444  3
   6325   6328   6331   6332     1  180.0000771  2.0083200  2
   6325   6328   6331   6332     1  0.0000000  1.2552000  3
   6325   6328   6331   6341     1  180.0000771  2.0083200  2
   6325   6328   6331   6341     1  0.0000000  1.2552000  3
   6328   6325   6322   6350     1  0.0000000  0.6508444  3
   6328   6331   6332   6335     1  180.0000771  2.0083200  2
   6328   6331   6332   6335     1  0.0000000  1.2552000  3
   6328   6331   6341   6344     1  180.0000771  2.0083200  2
   6328   6331   6341   6344     1  0.0000000  1.2552000  3
   6331   6332   6335   6338     1  0.0000000  0.6508444  3
   6331   6341   6344   6347     1  0.0000000  0.6508444  3
   6332   6331   6341   6344     1  180.0000771  2.0083200  2
   6332   6331   6341   6344     1  0.0000000  1.2552000  3
   6332   6335   6338   6339     1  180.0000771  0.0000000  2
   6332   6335   6338   6340     1  180.0000771  0.0000000  2
   6335   6332   6331   6341     1  180.0000771  2.0083200  2
   6335   6332   6331   6341     1  0.0000000  1.2552000  3
   6341   6344   6347   6348     1  180.0000771  0.0000000  2
   6341   6344   6347   6349     1  180.0000771  0.0000000  2
   6351   6354   6357   6360     1  0.0000000  0.6508444  3
   6354   6357   6360   6361     1  180.0000771  2.0083200  2
   6354   6357   6360   6361     1  0.0000000  1.2552000  3
   6354   6357   6360   6370     1  180.0000771  2.0083200  2
   6354   6357   6360   6370     1  0.0000000  1.2552000  3
   6357   6360   6361   6364     1  180.0000771  2.0083200  2
   6357   6360   6361   6364     1  0.0000000  1.2552000  3
   6357   6360   6370   6373     1  180.0000771  2.0083200  2
   6357   6360   6370   6373     1  0.0000000  1.2552000  3
   6357   6354   6351   6379     1  0.0000000  0.6508444  3
   6360   6361   6364   6367     1  0.0000000  0.6508444  3
   6360   6370   6373   6376     1  0.0000000  0.6508444  3
   6361   6364   6367   6368     1  180.0000771  0.0000000  2
   6361   6364   6367   6369     1  180.0000771  0.0000000  2
   6361   6360   6370   6373     1  180.0000771  2.0083200  2
   6361   6360   6370   6373     1  0.0000000  1.2552000  3
   6364   6361   6360   6370     1  180.0000771  2.0083200  2
   6364   6361   6360   6370     1  0.0000000  1.2552000  3
   6370   6373   6376   6377     1  180.0000771  0.0000000  2
   6370   6373   6376   6378     1  180.0000771  0.0000000  2
   6380   6383   6386   6389     1  0.0000000  0.6508444  3
   6383   6386   6389   6390     1  180.0000771  2.0083200  2
   6383   6386   6389   6390     1  0.0000000  1.2552000  3
   6383   6386   6389   6399     1  180.0000771  2.0083200  2
   6383   6386   6389   6399     1  0.0000000  1.2552000  3
   6386   6383   6380   6408     1  0.0000000  0.6508444  3
   6386   6389   6390   6393     1  180.0000771  2.0083200  2
   6386   6389   6390   6393     1  0.0000000  1.2552000  3
   6386   6389   6399   6402     1  180.0000771  2.0083200  2
   6386   6389   6399   6402     1  0.0000000  1.2552000  3
   6389   6390   6393   6396     1  0.0000000  0.6508444  3
   6389   6399   6402   6405     1  0.0000000  0.6508444  3
   6390   6389   6399   6402     1  180.0000771  2.0083200  2
   6390   6389   6399   6402     1  0.0000000  1.2552000  3
   6390   6393   6396   6397     1  180.0000771  0.0000000  2
   6390   6393   6396   6398     1  180.0000771  0.0000000  2
   6393   6390   6389   6399     1  180.0000771  2.0083200  2
   6393   6390   6389   6399     1  0.0000000  1.2552000  3
   6399   6402   6405   6406     1  180.0000771  0.0000000  2
   6399   6402   6405   6407     1  180.0000771  0.0000000  2
   6409   6412   6415   6418     1  0.0000000  0.6508444  3
   6412   6415   6418   6419     1  180.0000771  2.0083200  2
   6412   6415   6418   6419     1  0.0000000  1.2552000  3
   6412   6415   6418   6428     1  180.0000771  2.0083200  2
   6412   6415   6418   6428     1  0.0000000  1.2552000  3
   6415   6418   6419   6422     1  180.0000771  2.0083200  2
   6415   6418   6419   6422     1  0.0000000  1.2552000  3
   6415   6418   6428   6431     1  180.0000771  2.0083200  2
   6415   6418   6428   6431     1  0.0000000  1.2552000  3
   6415   6412   6409   6437     1  0.0000000  0.6508444  3
   6418   6419   6422   6425     1  0.0000000  0.6508444  3
   6418   6428   6431   6434     1  0.0000000  0.6508444  3
   6419   6422   6425   6426     1  180.0000771  0.0000000  2
   6419   6422   6425   6427     1  180.0000771  0.0000000  2
   6419   6418   6428   6431     1  180.0000771  2.0083200  2
   6419   6418   6428   6431     1  0.0000000  1.2552000  3
   6422   6419   6418   6428     1  180.0000771  2.0083200  2
   6422   6419   6418   6428     1  0.0000000  1.2552000  3
   6428   6431   6434   6435     1  180.0000771  0.0000000  2
   6428   6431   6434   6436     1  180.0000771  0.0000000  2
   6438   6441   6444   6447     1  0.0000000  0.6508444  3
   6441   6444   6447   6448     1  180.0000771  2.0083200  2
   6441   6444   6447   6448     1  0.0000000  1.2552000  3
   6441   6444   6447   6457     1  180.0000771  2.0083200  2
   6441   6444   6447   6457     1  0.0000000  1.2552000  3
   6444   6441   6438   6466     1  0.0000000  0.6508444  3
   6444   6447   6448   6451     1  180.0000771  2.0083200  2
   6444   6447   6448   6451     1  0.0000000  1.2552000  3
   6444   6447   6457   6460     1  180.0000771  2.0083200  2
   6444   6447   6457   6460     1  0.0000000  1.2552000  3
   6447   6448   6451   6454     1  0.0000000  0.6508444  3
   6447   6457   6460   6463     1  0.0000000  0.6508444  3
   6448   6447   6457   6460     1  180.0000771  2.0083200  2
   6448   6447   6457   6460     1  0.0000000  1.2552000  3
   6448   6451   6454   6455     1  180.0000771  0.0000000  2
   6448   6451   6454   6456     1  180.0000771  0.0000000  2
   6451   6448   6447   6457     1  180.0000771  2.0083200  2
   6451   6448   6447   6457     1  0.0000000  1.2552000  3
   6457   6460   6463   6464     1  180.0000771  0.0000000  2
   6457   6460   6463   6465     1  180.0000771  0.0000000  2
   6467   6470   6473   6476     1  0.0000000  0.6508444  3
   6470   6473   6476   6477     1  180.0000771  2.0083200  2
   6470   6473   6476   6477     1  0.0000000  1.2552000  3
   6470   6473   6476   6486     1  180.0000771  2.0083200  2
   6470   6473   6476   6486     1  0.0000000  1.2552000  3
   6473   6476   6477   6480     1  180.0000771  2.0083200  2
   6473   6476   6477   6480     1  0.0000000  1.2552000  3
   6473   6476   6486   6489     1  180.0000771  2.0083200  2
   6473   6476   6486   6489     1  0.0000000  1.2552000  3
   6473   6470   6467   6495     1  0.0000000  0.6508444  3
   6476   6477   6480   6483     1  0.0000000  0.6508444  3
   6476   6486   6489   6492     1  0.0000000  0.6508444  3
   6477   6480   6483   6484     1  180.0000771  0.0000000  2
   6477   6480   6483   6485     1  180.0000771  0.0000000  2
   6477   6476   6486   6489     1  180.0000771  2.0083200  2
   6477   6476   6486   6489     1  0.0000000  1.2552000  3
   6480   6477   6476   6486     1  180.0000771  2.0083200  2
   6480   6477   6476   6486     1  0.0000000  1.2552000  3
   6486   6489   6492   6493     1  180.0000771  0.0000000  2
   6486   6489   6492   6494     1  180.0000771  0.0000000  2
   6496   6499   6502   6505     1  0.0000000  0.6508444  3
   6499   6502   6505   6506     1  180.0000771  2.0083200  2
   6499   6502   6505   6506     1  0.0000000  1.2552000  3
   6499   6502   6505   6515     1  180.0000771  2.0083200  2
   6499   6502   6505   6515     1  0.0000000  1.2552000  3
   6502   6499   6496   6524     1  0.0000000  0.6508444  3
   6502   6505   6506   6509     1  180.0000771  2.0083200  2
   6502   6505   6506   6509     1  0.0000000  1.2552000  3
   6502   6505   6515   6518     1  180.0000771  2.0083200  2
   6502   6505   6515   6518     1  0.0000000  1.2552000  3
   6505   6506   6509   6512     1  0.0000000  0.6508444  3
   6505   6515   6518   6521     1  0.0000000  0.6508444  3
   6506   6505   6515   6518     1  180.0000771  2.0083200  2
   6506   6505   6515   6518     1  0.0000000  1.2552000  3
   6506   6509   6512   6513     1  180.0000771  0.0000000  2
   6506   6509   6512   6514     1  180.0000771  0.0000000  2
   6509   6506   6505   6515     1  180.0000771  2.0083200  2
   6509   6506   6505   6515     1  0.0000000  1.2552000  3
   6515   6518   6521   6522     1  180.0000771  0.0000000  2
   6515   6518   6521   6523     1  180.0000771  0.0000000  2
   6525   6528   6531   6534     1  0.0000000  0.6508444  3
   6528   6531   6534   6535     1  180.0000771  2.0083200  2
   6528   6531   6534   6535     1  0.0000000  1.2552000  3
   6528   6531   6534   6544     1  180.0000771  2.0083200  2
   6528   6531   6534   6544     1  0.0000000  1.2552000  3
   6531   6534   6535   6538     1  180.0000771  2.0083200  2
   6531   6534   6535   6538     1  0.0000000  1.2552000  3
   6531   6534   6544   6547     1  180.0000771  2.0083200  2
   6531   6534   6544   6547     1  0.0000000  1.2552000  3
   6531   6528   6525   6553     1  0.0000000  0.6508444  3
   6534   6535   6538   6541     1  0.0000000  0.6508444  3
   6534   6544   6547   6550     1  0.0000000  0.6508444  3
   6535   6538   6541   6542     1  180.0000771  0.0000000  2
   6535   6538   6541   6543     1  180.0000771  0.0000000  2
   6535   6534   6544   6547     1  180.0000771  2.0083200  2
   6535   6534   6544   6547     1  0.0000000  1.2552000  3
   6538   6535   6534   6544     1  180.0000771  2.0083200  2
   6538   6535   6534   6544     1  0.0000000  1.2552000  3
   6544   6547   6550   6551     1  180.0000771  0.0000000  2
   6544   6547   6550   6552     1  180.0000771  0.0000000  2
   6554   6557   6560   6563     1  0.0000000  0.6508444  3
   6557   6560   6563   6564     1  180.0000771  2.0083200  2
   6557   6560   6563   6564     1  0.0000000  1.2552000  3
   6557   6560   6563   6573     1  180.0000771  2.0083200  2
   6557   6560   6563   6573     1  0.0000000  1.2552000  3
   6560   6557   6554   6582     1  0.0000000  0.6508444  3
   6560   6563   6564   6567     1  180.0000771  2.0083200  2
   6560   6563   6564   6567     1  0.0000000  1.2552000  3
   6560   6563   6573   6576     1  180.0000771  2.0083200  2
   6560   6563   6573   6576     1  0.0000000  1.2552000  3
   6563   6564   6567   6570     1  0.0000000  0.6508444  3
   6563   6573   6576   6579     1  0.0000000  0.6508444  3
   6564   6563   6573   6576     1  180.0000771  2.0083200  2
   6564   6563   6573   6576     1  0.0000000  1.2552000  3
   6564   6567   6570   6571     1  180.0000771  0.0000000  2
   6564   6567   6570   6572     1  180.0000771  0.0000000  2
   6567   6564   6563   6573     1  180.0000771  2.0083200  2
   6567   6564   6563   6573     1  0.0000000  1.2552000  3
   6573   6576   6579   6580     1  180.0000771  0.0000000  2
   6573   6576   6579   6581     1  180.0000771  0.0000000  2
   6583   6586   6589   6592     1  0.0000000  0.6508444  3
   6586   6589   6592   6593     1  180.0000771  2.0083200  2
   6586   6589   6592   6593     1  0.0000000  1.2552000  3
   6586   6589   6592   6602     1  180.0000771  2.0083200  2
   6586   6589   6592   6602     1  0.0000000  1.2552000  3
   6589   6592   6593   6596     1  180.0000771  2.0083200  2
   6589   6592   6593   6596     1  0.0000000  1.2552000  3
   6589   6592   6602   6605     1  180.0000771  2.0083200  2
   6589   6592   6602   6605     1  0.0000000  1.2552000  3
   6589   6586   6583   6611     1  0.0000000  0.6508444  3
   6592   6593   6596   6599     1  0.0000000  0.6508444  3
   6592   6602   6605   6608     1  0.0000000  0.6508444  3
   6593   6596   6599   6600     1  180.0000771  0.0000000  2
   6593   6596   6599   6601     1  180.0000771  0.0000000  2
   6593   6592   6602   6605     1  180.0000771  2.0083200  2
   6593   6592   6602   6605     1  0.0000000  1.2552000  3
   6596   6593   6592   6602     1  180.0000771  2.0083200  2
   6596   6593   6592   6602     1  0.0000000  1.2552000  3
   6602   6605   6608   6609     1  180.0000771  0.0000000  2
   6602   6605   6608   6610     1  180.0000771  0.0000000  2
   6612   6615   6618   6621     1  0.0000000  0.6508444  3
   6615   6618   6621   6622     1  180.0000771  2.0083200  2
   6615   6618   6621   6622     1  0.0000000  1.2552000  3
   6615   6618   6621   6631     1  180.0000771  2.0083200  2
   6615   6618   6621   6631     1  0.0000000  1.2552000  3
   6618   6615   6612   6640     1  0.0000000  0.6508444  3
   6618   6621   6622   6625     1  180.0000771  2.0083200  2
   6618   6621   6622   6625     1  0.0000000  1.2552000  3
   6618   6621   6631   6634     1  180.0000771  2.0083200  2
   6618   6621   6631   6634     1  0.0000000  1.2552000  3
   6621   6622   6625   6628     1  0.0000000  0.6508444  3
   6621   6631   6634   6637     1  0.0000000  0.6508444  3
   6622   6621   6631   6634     1  180.0000771  2.0083200  2
   6622   6621   6631   6634     1  0.0000000  1.2552000  3
   6622   6625   6628   6629     1  180.0000771  0.0000000  2
   6622   6625   6628   6630     1  180.0000771  0.0000000  2
   6625   6622   6621   6631     1  180.0000771  2.0083200  2
   6625   6622   6621   6631     1  0.0000000  1.2552000  3
   6631   6634   6637   6638     1  180.0000771  0.0000000  2
   6631   6634   6637   6639     1  180.0000771  0.0000000  2
   6641   6644   6647   6650     1  0.0000000  0.6508444  3
   6644   6647   6650   6651     1  180.0000771  2.0083200  2
   6644   6647   6650   6651     1  0.0000000  1.2552000  3
   6644   6647   6650   6660     1  180.0000771  2.0083200  2
   6644   6647   6650   6660     1  0.0000000  1.2552000  3
   6647   6650   6651   6654     1  180.0000771  2.0083200  2
   6647   6650   6651   6654     1  0.0000000  1.2552000  3
   6647   6650   6660   6663     1  180.0000771  2.0083200  2
   6647   6650   6660   6663     1  0.0000000  1.2552000  3
   6647   6644   6641   6669     1  0.0000000  0.6508444  3
   6650   6651   6654   6657     1  0.0000000  0.6508444  3
   6650   6660   6663   6666     1  0.0000000  0.6508444  3
   6651   6654   6657   6658     1  180.0000771  0.0000000  2
   6651   6654   6657   6659     1  180.0000771  0.0000000  2
   6651   6650   6660   6663     1  180.0000771  2.0083200  2
   6651   6650   6660   6663     1  0.0000000  1.2552000  3
   6654   6651   6650   6660     1  180.0000771  2.0083200  2
   6654   6651   6650   6660     1  0.0000000  1.2552000  3
   6660   6663   6666   6667     1  180.0000771  0.0000000  2
   6660   6663   6666   6668     1  180.0000771  0.0000000  2
   6670   6673   6676   6679     1  0.0000000  0.6508444  3
   6673   6676   6679   6680     1  180.0000771  2.0083200  2
   6673   6676   6679   6680     1  0.0000000  1.2552000  3
   6673   6676   6679   6689     1  180.0000771  2.0083200  2
   6673   6676   6679   6689     1  0.0000000  1.2552000  3
   6676   6673   6670   6698     1  0.0000000  0.6508444  3
   6676   6679   6680   6683     1  180.0000771  2.0083200  2
   6676   6679   6680   6683     1  0.0000000  1.2552000  3
   6676   6679   6689   6692     1  180.0000771  2.0083200  2
   6676   6679   6689   6692     1  0.0000000  1.2552000  3
   6679   6680   6683   6686     1  0.0000000  0.6508444  3
   6679   6689   6692   6695     1  0.0000000  0.6508444  3
   6680   6679   6689   6692     1  180.0000771  2.0083200  2
   6680   6679   6689   6692     1  0.0000000  1.2552000  3
   6680   6683   6686   6687     1  180.0000771  0.0000000  2
   6680   6683   6686   6688     1  180.0000771  0.0000000  2
   6683   6680   6679   6689     1  180.0000771  2.0083200  2
   6683   6680   6679   6689     1  0.0000000  1.2552000  3
   6689   6692   6695   6696     1  180.0000771  0.0000000  2
   6689   6692   6695   6697     1  180.0000771  0.0000000  2
   6699   6702   6705   6708     1  0.0000000  0.6508444  3
   6702   6705   6708   6709     1  180.0000771  2.0083200  2
   6702   6705   6708   6709     1  0.0000000  1.2552000  3
   6702   6705   6708   6718     1  180.0000771  2.0083200  2
   6702   6705   6708   6718     1  0.0000000  1.2552000  3
   6705   6708   6709   6712     1  180.0000771  2.0083200  2
   6705   6708   6709   6712     1  0.0000000  1.2552000  3
   6705   6708   6718   6721     1  180.0000771  2.0083200  2
   6705   6708   6718   6721     1  0.0000000  1.2552000  3
   6705   6702   6699   6727     1  0.0000000  0.6508444  3
   6708   6709   6712   6715     1  0.0000000  0.6508444  3
   6708   6718   6721   6724     1  0.0000000  0.6508444  3
   6709   6712   6715   6716     1  180.0000771  0.0000000  2
   6709   6712   6715   6717     1  180.0000771  0.0000000  2
   6709   6708   6718   6721     1  180.0000771  2.0083200  2
   6709   6708   6718   6721     1  0.0000000  1.2552000  3
   6712   6709   6708   6718     1  180.0000771  2.0083200  2
   6712   6709   6708   6718     1  0.0000000  1.2552000  3
   6718   6721   6724   6725     1  180.0000771  0.0000000  2
   6718   6721   6724   6726     1  180.0000771  0.0000000  2
   6728   6731   6734   6737     1  0.0000000  0.6508444  3
   6731   6734   6737   6738     1  180.0000771  2.0083200  2
   6731   6734   6737   6738     1  0.0000000  1.2552000  3
   6731   6734   6737   6747     1  180.0000771  2.0083200  2
   6731   6734   6737   6747     1  0.0000000  1.2552000  3
   6734   6731   6728   6756     1  0.0000000  0.6508444  3
   6734   6737   6738   6741     1  180.0000771  2.0083200  2
   6734   6737   6738   6741     1  0.0000000  1.2552000  3
   6734   6737   6747   6750     1  180.0000771  2.0083200  2
   6734   6737   6747   6750     1  0.0000000  1.2552000  3
   6737   6738   6741   6744     1  0.0000000  0.6508444  3
   6737   6747   6750   6753     1  0.0000000  0.6508444  3
   6738   6737   6747   6750     1  180.0000771  2.0083200  2
   6738   6737   6747   6750     1  0.0000000  1.2552000  3
   6738   6741   6744   6745     1  180.0000771  0.0000000  2
   6738   6741   6744   6746     1  180.0000771  0.0000000  2
   6741   6738   6737   6747     1  180.0000771  2.0083200  2
   6741   6738   6737   6747     1  0.0000000  1.2552000  3
   6747   6750   6753   6754     1  180.0000771  0.0000000  2
   6747   6750   6753   6755     1  180.0000771  0.0000000  2
   6757   6760   6763   6766     1  0.0000000  0.6508444  3
   6760   6763   6766   6767     1  180.0000771  2.0083200  2
   6760   6763   6766   6767     1  0.0000000  1.2552000  3
   6760   6763   6766   6776     1  180.0000771  2.0083200  2
   6760   6763   6766   6776     1  0.0000000  1.2552000  3
   6763   6766   6767   6770     1  180.0000771  2.0083200  2
   6763   6766   6767   6770     1  0.0000000  1.2552000  3
   6763   6766   6776   6779     1  180.0000771  2.0083200  2
   6763   6766   6776   6779     1  0.0000000  1.2552000  3
   6763   6760   6757   6785     1  0.0000000  0.6508444  3
   6766   6767   6770   6773     1  0.0000000  0.6508444  3
   6766   6776   6779   6782     1  0.0000000  0.6508444  3
   6767   6770   6773   6774     1  180.0000771  0.0000000  2
   6767   6770   6773   6775     1  180.0000771  0.0000000  2
   6767   6766   6776   6779     1  180.0000771  2.0083200  2
   6767   6766   6776   6779     1  0.0000000  1.2552000  3
   6770   6767   6766   6776     1  180.0000771  2.0083200  2
   6770   6767   6766   6776     1  0.0000000  1.2552000  3
   6776   6779   6782   6783     1  180.0000771  0.0000000  2
   6776   6779   6782   6784     1  180.0000771  0.0000000  2
   6786   6789   6792   6795     1  0.0000000  0.6508444  3
   6789   6792   6795   6796     1  180.0000771  2.0083200  2
   6789   6792   6795   6796     1  0.0000000  1.2552000  3
   6789   6792   6795   6805     1  180.0000771  2.0083200  2
   6789   6792   6795   6805     1  0.0000000  1.2552000  3
   6792   6789   6786   6814     1  0.0000000  0.6508444  3
   6792   6795   6796   6799     1  180.0000771  2.0083200  2
   6792   6795   6796   6799     1  0.0000000  1.2552000  3
   6792   6795   6805   6808     1  180.0000771  2.0083200  2
   6792   6795   6805   6808     1  0.0000000  1.2552000  3
   6795   6796   6799   6802     1  0.0000000  0.6508444  3
   6795   6805   6808   6811     1  0.0000000  0.6508444  3
   6796   6795   6805   6808     1  180.0000771  2.0083200  2
   6796   6795   6805   6808     1  0.0000000  1.2552000  3
   6796   6799   6802   6803     1  180.0000771  0.0000000  2
   6796   6799   6802   6804     1  180.0000771  0.0000000  2
   6799   6796   6795   6805     1  180.0000771  2.0083200  2
   6799   6796   6795   6805     1  0.0000000  1.2552000  3
   6805   6808   6811   6812     1  180.0000771  0.0000000  2
   6805   6808   6811   6813     1  180.0000771  0.0000000  2
   6815   6818   6821   6824     1  0.0000000  0.6508444  3
   6818   6821   6824   6825     1  180.0000771  2.0083200  2
   6818   6821   6824   6825     1  0.0000000  1.2552000  3
   6818   6821   6824   6834     1  180.0000771  2.0083200  2
   6818   6821   6824   6834     1  0.0000000  1.2552000  3
   6821   6824   6825   6828     1  180.0000771  2.0083200  2
   6821   6824   6825   6828     1  0.0000000  1.2552000  3
   6821   6824   6834   6837     1  180.0000771  2.0083200  2
   6821   6824   6834   6837     1  0.0000000  1.2552000  3
   6821   6818   6815   6843     1  0.0000000  0.6508444  3
   6824   6825   6828   6831     1  0.0000000  0.6508444  3
   6824   6834   6837   6840     1  0.0000000  0.6508444  3
   6825   6828   6831   6832     1  180.0000771  0.0000000  2
   6825   6828   6831   6833     1  180.0000771  0.0000000  2
   6825   6824   6834   6837     1  180.0000771  2.0083200  2
   6825   6824   6834   6837     1  0.0000000  1.2552000  3
   6828   6825   6824   6834     1  180.0000771  2.0083200  2
   6828   6825   6824   6834     1  0.0000000  1.2552000  3
   6834   6837   6840   6841     1  180.0000771  0.0000000  2
   6834   6837   6840   6842     1  180.0000771  0.0000000  2
   6844   6847   6850   6853     1  0.0000000  0.6508444  3
   6847   6850   6853   6854     1  180.0000771  2.0083200  2
   6847   6850   6853   6854     1  0.0000000  1.2552000  3
   6847   6850   6853   6863     1  180.0000771  2.0083200  2
   6847   6850   6853   6863     1  0.0000000  1.2552000  3
   6850   6847   6844   6872     1  0.0000000  0.6508444  3
   6850   6853   6854   6857     1  180.0000771  2.0083200  2
   6850   6853   6854   6857     1  0.0000000  1.2552000  3
   6850   6853   6863   6866     1  180.0000771  2.0083200  2
   6850   6853   6863   6866     1  0.0000000  1.2552000  3
   6853   6854   6857   6860     1  0.0000000  0.6508444  3
   6853   6863   6866   6869     1  0.0000000  0.6508444  3
   6854   6853   6863   6866     1  180.0000771  2.0083200  2
   6854   6853   6863   6866     1  0.0000000  1.2552000  3
   6854   6857   6860   6861     1  180.0000771  0.0000000  2
   6854   6857   6860   6862     1  180.0000771  0.0000000  2
   6857   6854   6853   6863     1  180.0000771  2.0083200  2
   6857   6854   6853   6863     1  0.0000000  1.2552000  3
   6863   6866   6869   6870     1  180.0000771  0.0000000  2
   6863   6866   6869   6871     1  180.0000771  0.0000000  2
   6873   6876   6879   6882     1  0.0000000  0.6508444  3
   6876   6879   6882   6883     1  180.0000771  2.0083200  2
   6876   6879   6882   6883     1  0.0000000  1.2552000  3
   6876   6879   6882   6892     1  180.0000771  2.0083200  2
   6876   6879   6882   6892     1  0.0000000  1.2552000  3
   6879   6882   6883   6886     1  180.0000771  2.0083200  2
   6879   6882   6883   6886     1  0.0000000  1.2552000  3
   6879   6882   6892   6895     1  180.0000771  2.0083200  2
   6879   6882   6892   6895     1  0.0000000  1.2552000  3
   6879   6876   6873   6901     1  0.0000000  0.6508444  3
   6882   6883   6886   6889     1  0.0000000  0.6508444  3
   6882   6892   6895   6898     1  0.0000000  0.6508444  3
   6883   6886   6889   6890     1  180.0000771  0.0000000  2
   6883   6886   6889   6891     1  180.0000771  0.0000000  2
   6883   6882   6892   6895     1  180.0000771  2.0083200  2
   6883   6882   6892   6895     1  0.0000000  1.2552000  3
   6886   6883   6882   6892     1  180.0000771  2.0083200  2
   6886   6883   6882   6892     1  0.0000000  1.2552000  3
   6892   6895   6898   6899     1  180.0000771  0.0000000  2
   6892   6895   6898   6900     1  180.0000771  0.0000000  2
   6902   6905   6908   6911     1  0.0000000  0.6508444  3
   6905   6908   6911   6912     1  180.0000771  2.0083200  2
   6905   6908   6911   6912     1  0.0000000  1.2552000  3
   6905   6908   6911   6921     1  180.0000771  2.0083200  2
   6905   6908   6911   6921     1  0.0000000  1.2552000  3
   6908   6905   6902   6930     1  0.0000000  0.6508444  3
   6908   6911   6912   6915     1  180.0000771  2.0083200  2
   6908   6911   6912   6915     1  0.0000000  1.2552000  3
   6908   6911   6921   6924     1  180.0000771  2.0083200  2
   6908   6911   6921   6924     1  0.0000000  1.2552000  3
   6911   6912   6915   6918     1  0.0000000  0.6508444  3
   6911   6921   6924   6927     1  0.0000000  0.6508444  3
   6912   6911   6921   6924     1  180.0000771  2.0083200  2
   6912   6911   6921   6924     1  0.0000000  1.2552000  3
   6912   6915   6918   6919     1  180.0000771  0.0000000  2
   6912   6915   6918   6920     1  180.0000771  0.0000000  2
   6915   6912   6911   6921     1  180.0000771  2.0083200  2
   6915   6912   6911   6921     1  0.0000000  1.2552000  3
   6921   6924   6927   6928     1  180.0000771  0.0000000  2
   6921   6924   6927   6929     1  180.0000771  0.0000000  2
   6931   6934   6937   6940     1  0.0000000  0.6508444  3
   6934   6937   6940   6941     1  180.0000771  2.0083200  2
   6934   6937   6940   6941     1  0.0000000  1.2552000  3
   6934   6937   6940   6950     1  180.0000771  2.0083200  2
   6934   6937   6940   6950     1  0.0000000  1.2552000  3
   6937   6940   6941   6944     1  180.0000771  2.0083200  2
   6937   6940   6941   6944     1  0.0000000  1.2552000  3
   6937   6940   6950   6953     1  180.0000771  2.0083200  2
   6937   6940   6950   6953     1  0.0000000  1.2552000  3
   6937   6934   6931   6959     1  0.0000000  0.6508444  3
   6940   6941   6944   6947     1  0.0000000  0.6508444  3
   6940   6950   6953   6956     1  0.0000000  0.6508444  3
   6941   6944   6947   6948     1  180.0000771  0.0000000  2
   6941   6944   6947   6949     1  180.0000771  0.0000000  2
   6941   6940   6950   6953     1  180.0000771  2.0083200  2
   6941   6940   6950   6953     1  0.0000000  1.2552000  3
   6944   6941   6940   6950     1  180.0000771  2.0083200  2
   6944   6941   6940   6950     1  0.0000000  1.2552000  3
   6950   6953   6956   6957     1  180.0000771  0.0000000  2
   6950   6953   6956   6958     1  180.0000771  0.0000000  2
   6960   6963   6966   6969     1  0.0000000  0.6508444  3
   6963   6966   6969   6970     1  180.0000771  2.0083200  2
   6963   6966   6969   6970     1  0.0000000  1.2552000  3
   6963   6966   6969   6979     1  180.0000771  2.0083200  2
   6963   6966   6969   6979     1  0.0000000  1.2552000  3
   6966   6963   6960   6988     1  0.0000000  0.6508444  3
   6966   6969   6970   6973     1  180.0000771  2.0083200  2
   6966   6969   6970   6973     1  0.0000000  1.2552000  3
   6966   6969   6979   6982     1  180.0000771  2.0083200  2
   6966   6969   6979   6982     1  0.0000000  1.2552000  3
   6969   6970   6973   6976     1  0.0000000  0.6508444  3
   6969   6979   6982   6985     1  0.0000000  0.6508444  3
   6970   6969   6979   6982     1  180.0000771  2.0083200  2
   6970   6969   6979   6982     1  0.0000000  1.2552000  3
   6970   6973   6976   6977     1  180.0000771  0.0000000  2
   6970   6973   6976   6978     1  180.0000771  0.0000000  2
   6973   6970   6969   6979     1  180.0000771  2.0083200  2
   6973   6970   6969   6979     1  0.0000000  1.2552000  3
   6979   6982   6985   6986     1  180.0000771  0.0000000  2
   6979   6982   6985   6987     1  180.0000771  0.0000000  2
   6989   6992   6995   6998     1  0.0000000  0.6508444  3
   6992   6995   6998   6999     1  180.0000771  2.0083200  2
   6992   6995   6998   6999     1  0.0000000  1.2552000  3
   6992   6995   6998   7008     1  180.0000771  2.0083200  2
   6992   6995   6998   7008     1  0.0000000  1.2552000  3
   6995   6998   6999   7002     1  180.0000771  2.0083200  2
   6995   6998   6999   7002     1  0.0000000  1.2552000  3
   6995   6998   7008   7011     1  180.0000771  2.0083200  2
   6995   6998   7008   7011     1  0.0000000  1.2552000  3
   6995   6992   6989   7017     1  0.0000000  0.6508444  3
   6998   6999   7002   7005     1  0.0000000  0.6508444  3
   6998   7008   7011   7014     1  0.0000000  0.6508444  3
   6999   7002   7005   7006     1  180.0000771  0.0000000  2
   6999   7002   7005   7007     1  180.0000771  0.0000000  2
   6999   6998   7008   7011     1  180.0000771  2.0083200  2
   6999   6998   7008   7011     1  0.0000000  1.2552000  3
   7002   6999   6998   7008     1  180.0000771  2.0083200  2
   7002   6999   6998   7008     1  0.0000000  1.2552000  3
   7008   7011   7014   7015     1  180.0000771  0.0000000  2
   7008   7011   7014   7016     1  180.0000771  0.0000000  2
   7018   7021   7024   7027     1  0.0000000  0.6508444  3
   7021   7024   7027   7028     1  180.0000771  2.0083200  2
   7021   7024   7027   7028     1  0.0000000  1.2552000  3
   7021   7024   7027   7037     1  180.0000771  2.0083200  2
   7021   7024   7027   7037     1  0.0000000  1.2552000  3
   7024   7021   7018   7046     1  0.0000000  0.6508444  3
   7024   7027   7028   7031     1  180.0000771  2.0083200  2
   7024   7027   7028   7031     1  0.0000000  1.2552000  3
   7024   7027   7037   7040     1  180.0000771  2.0083200  2
   7024   7027   7037   7040     1  0.0000000  1.2552000  3
   7027   7028   7031   7034     1  0.0000000  0.6508444  3
   7027   7037   7040   7043     1  0.0000000  0.6508444  3
   7028   7027   7037   7040     1  180.0000771  2.0083200  2
   7028   7027   7037   7040     1  0.0000000  1.2552000  3
   7028   7031   7034   7035     1  180.0000771  0.0000000  2
   7028   7031   7034   7036     1  180.0000771  0.0000000  2
   7031   7028   7027   7037     1  180.0000771  2.0083200  2
   7031   7028   7027   7037     1  0.0000000  1.2552000  3
   7037   7040   7043   7044     1  180.0000771  0.0000000  2
   7037   7040   7043   7045     1  180.0000771  0.0000000  2
   7047   7050   7053   7056     1  0.0000000  0.6508444  3
   7050   7053   7056   7057     1  180.0000771  2.0083200  2
   7050   7053   7056   7057     1  0.0000000  1.2552000  3
   7050   7053   7056   7066     1  180.0000771  2.0083200  2
   7050   7053   7056   7066     1  0.0000000  1.2552000  3
   7053   7056   7057   7060     1  180.0000771  2.0083200  2
   7053   7056   7057   7060     1  0.0000000  1.2552000  3
   7053   7056   7066   7069     1  180.0000771  2.0083200  2
   7053   7056   7066   7069     1  0.0000000  1.2552000  3
   7053   7050   7047   7075     1  0.0000000  0.6508444  3
   7056   7057   7060   7063     1  0.0000000  0.6508444  3
   7056   7066   7069   7072     1  0.0000000  0.6508444  3
   7057   7060   7063   7064     1  180.0000771  0.0000000  2
   7057   7060   7063   7065     1  180.0000771  0.0000000  2
   7057   7056   7066   7069     1  180.0000771  2.0083200  2
   7057   7056   7066   7069     1  0.0000000  1.2552000  3
   7060   7057   7056   7066     1  180.0000771  2.0083200  2
   7060   7057   7056   7066     1  0.0000000  1.2552000  3
   7066   7069   7072   7073     1  180.0000771  0.0000000  2
   7066   7069   7072   7074     1  180.0000771  0.0000000  2
   7076   7079   7082   7085     1  0.0000000  0.6508444  3
   7079   7082   7085   7086     1  180.0000771  2.0083200  2
   7079   7082   7085   7086     1  0.0000000  1.2552000  3
   7079   7082   7085   7095     1  180.0000771  2.0083200  2
   7079   7082   7085   7095     1  0.0000000  1.2552000  3
   7082   7079   7076   7104     1  0.0000000  0.6508444  3
   7082   7085   7086   7089     1  180.0000771  2.0083200  2
   7082   7085   7086   7089     1  0.0000000  1.2552000  3
   7082   7085   7095   7098     1  180.0000771  2.0083200  2
   7082   7085   7095   7098     1  0.0000000  1.2552000  3
   7085   7086   7089   7092     1  0.0000000  0.6508444  3
   7085   7095   7098   7101     1  0.0000000  0.6508444  3
   7086   7085   7095   7098     1  180.0000771  2.0083200  2
   7086   7085   7095   7098     1  0.0000000  1.2552000  3
   7086   7089   7092   7093     1  180.0000771  0.0000000  2
   7086   7089   7092   7094     1  180.0000771  0.0000000  2
   7089   7086   7085   7095     1  180.0000771  2.0083200  2
   7089   7086   7085   7095     1  0.0000000  1.2552000  3
   7095   7098   7101   7102     1  180.0000771  0.0000000  2
   7095   7098   7101   7103     1  180.0000771  0.0000000  2
   7105   7108   7111   7114     1  0.0000000  0.6508444  3
   7108   7111   7114   7115     1  180.0000771  2.0083200  2
   7108   7111   7114   7115     1  0.0000000  1.2552000  3
   7108   7111   7114   7124     1  180.0000771  2.0083200  2
   7108   7111   7114   7124     1  0.0000000  1.2552000  3
   7111   7114   7115   7118     1  180.0000771  2.0083200  2
   7111   7114   7115   7118     1  0.0000000  1.2552000  3
   7111   7114   7124   7127     1  180.0000771  2.0083200  2
   7111   7114   7124   7127     1  0.0000000  1.2552000  3
   7111   7108   7105   7133     1  0.0000000  0.6508444  3
   7114   7115   7118   7121     1  0.0000000  0.6508444  3
   7114   7124   7127   7130     1  0.0000000  0.6508444  3
   7115   7118   7121   7122     1  180.0000771  0.0000000  2
   7115   7118   7121   7123     1  180.0000771  0.0000000  2
   7115   7114   7124   7127     1  180.0000771  2.0083200  2
   7115   7114   7124   7127     1  0.0000000  1.2552000  3
   7118   7115   7114   7124     1  180.0000771  2.0083200  2
   7118   7115   7114   7124     1  0.0000000  1.2552000  3
   7124   7127   7130   7131     1  180.0000771  0.0000000  2
   7124   7127   7130   7132     1  180.0000771  0.0000000  2
   7134   7137   7140   7143     1  0.0000000  0.6508444  3
   7137   7140   7143   7144     1  180.0000771  2.0083200  2
   7137   7140   7143   7144     1  0.0000000  1.2552000  3
   7137   7140   7143   7153     1  180.0000771  2.0083200  2
   7137   7140   7143   7153     1  0.0000000  1.2552000  3
   7140   7137   7134   7162     1  0.0000000  0.6508444  3
   7140   7143   7144   7147     1  180.0000771  2.0083200  2
   7140   7143   7144   7147     1  0.0000000  1.2552000  3
   7140   7143   7153   7156     1  180.0000771  2.0083200  2
   7140   7143   7153   7156     1  0.0000000  1.2552000  3
   7143   7144   7147   7150     1  0.0000000  0.6508444  3
   7143   7153   7156   7159     1  0.0000000  0.6508444  3
   7144   7143   7153   7156     1  180.0000771  2.0083200  2
   7144   7143   7153   7156     1  0.0000000  1.2552000  3
   7144   7147   7150   7151     1  180.0000771  0.0000000  2
   7144   7147   7150   7152     1  180.0000771  0.0000000  2
   7147   7144   7143   7153     1  180.0000771  2.0083200  2
   7147   7144   7143   7153     1  0.0000000  1.2552000  3
   7153   7156   7159   7160     1  180.0000771  0.0000000  2
   7153   7156   7159   7161     1  180.0000771  0.0000000  2
   7163   7166   7169   7172     1  0.0000000  0.6508444  3
   7166   7169   7172   7173     1  180.0000771  2.0083200  2
   7166   7169   7172   7173     1  0.0000000  1.2552000  3
   7166   7169   7172   7182     1  180.0000771  2.0083200  2
   7166   7169   7172   7182     1  0.0000000  1.2552000  3
   7169   7172   7173   7176     1  180.0000771  2.0083200  2
   7169   7172   7173   7176     1  0.0000000  1.2552000  3
   7169   7172   7182   7185     1  180.0000771  2.0083200  2
   7169   7172   7182   7185     1  0.0000000  1.2552000  3
   7169   7166   7163   7191     1  0.0000000  0.6508444  3
   7172   7173   7176   7179     1  0.0000000  0.6508444  3
   7172   7182   7185   7188     1  0.0000000  0.6508444  3
   7173   7176   7179   7180     1  180.0000771  0.0000000  2
   7173   7176   7179   7181     1  180.0000771  0.0000000  2
   7173   7172   7182   7185     1  180.0000771  2.0083200  2
   7173   7172   7182   7185     1  0.0000000  1.2552000  3
   7176   7173   7172   7182     1  180.0000771  2.0083200  2
   7176   7173   7172   7182     1  0.0000000  1.2552000  3
   7182   7185   7188   7189     1  180.0000771  0.0000000  2
   7182   7185   7188   7190     1  180.0000771  0.0000000  2
   7192   7195   7198   7201     1  0.0000000  0.6508444  3
   7195   7198   7201   7202     1  180.0000771  2.0083200  2
   7195   7198   7201   7202     1  0.0000000  1.2552000  3
   7195   7198   7201   7211     1  180.0000771  2.0083200  2
   7195   7198   7201   7211     1  0.0000000  1.2552000  3
   7198   7195   7192   7220     1  0.0000000  0.6508444  3
   7198   7201   7202   7205     1  180.0000771  2.0083200  2
   7198   7201   7202   7205     1  0.0000000  1.2552000  3
   7198   7201   7211   7214     1  180.0000771  2.0083200  2
   7198   7201   7211   7214     1  0.0000000  1.2552000  3
   7201   7202   7205   7208     1  0.0000000  0.6508444  3
   7201   7211   7214   7217     1  0.0000000  0.6508444  3
   7202   7201   7211   7214     1  180.0000771  2.0083200  2
   7202   7201   7211   7214     1  0.0000000  1.2552000  3
   7202   7205   7208   7209     1  180.0000771  0.0000000  2
   7202   7205   7208   7210     1  180.0000771  0.0000000  2
   7205   7202   7201   7211     1  180.0000771  2.0083200  2
   7205   7202   7201   7211     1  0.0000000  1.2552000  3
   7211   7214   7217   7218     1  180.0000771  0.0000000  2
   7211   7214   7217   7219     1  180.0000771  0.0000000  2
   7221   7224   7227   7230     1  0.0000000  0.6508444  3
   7224   7227   7230   7231     1  180.0000771  2.0083200  2
   7224   7227   7230   7231     1  0.0000000  1.2552000  3
   7224   7227   7230   7240     1  180.0000771  2.0083200  2
   7224   7227   7230   7240     1  0.0000000  1.2552000  3
   7227   7230   7231   7234     1  180.0000771  2.0083200  2
   7227   7230   7231   7234     1  0.0000000  1.2552000  3
   7227   7230   7240   7243     1  180.0000771  2.0083200  2
   7227   7230   7240   7243     1  0.0000000  1.2552000  3
   7227   7224   7221   7249     1  0.0000000  0.6508444  3
   7230   7231   7234   7237     1  0.0000000  0.6508444  3
   7230   7240   7243   7246     1  0.0000000  0.6508444  3
   7231   7234   7237   7238     1  180.0000771  0.0000000  2
   7231   7234   7237   7239     1  180.0000771  0.0000000  2
   7231   7230   7240   7243     1  180.0000771  2.0083200  2
   7231   7230   7240   7243     1  0.0000000  1.2552000  3
   7234   7231   7230   7240     1  180.0000771  2.0083200  2
   7234   7231   7230   7240     1  0.0000000  1.2552000  3
   7240   7243   7246   7247     1  180.0000771  0.0000000  2
   7240   7243   7246   7248     1  180.0000771  0.0000000  2
   7250   7253   7256   7259     1  0.0000000  0.6508444  3
   7253   7256   7259   7260     1  180.0000771  2.0083200  2
   7253   7256   7259   7260     1  0.0000000  1.2552000  3
   7253   7256   7259   7269     1  180.0000771  2.0083200  2
   7253   7256   7259   7269     1  0.0000000  1.2552000  3
   7256   7253   7250   7278     1  0.0000000  0.6508444  3
   7256   7259   7260   7263     1  180.0000771  2.0083200  2
   7256   7259   7260   7263     1  0.0000000  1.2552000  3
   7256   7259   7269   7272     1  180.0000771  2.0083200  2
   7256   7259   7269   7272     1  0.0000000  1.2552000  3
   7259   7260   7263   7266     1  0.0000000  0.6508444  3
   7259   7269   7272   7275     1  0.0000000  0.6508444  3
   7260   7259   7269   7272     1  180.0000771  2.0083200  2
   7260   7259   7269   7272     1  0.0000000  1.2552000  3
   7260   7263   7266   7267     1  180.0000771  0.0000000  2
   7260   7263   7266   7268     1  180.0000771  0.0000000  2
   7263   7260   7259   7269     1  180.0000771  2.0083200  2
   7263   7260   7259   7269     1  0.0000000  1.2552000  3
   7269   7272   7275   7276     1  180.0000771  0.0000000  2
   7269   7272   7275   7277     1  180.0000771  0.0000000  2
   7279   7282   7285   7288     1  0.0000000  0.6508444  3
   7282   7285   7288   7289     1  180.0000771  2.0083200  2
   7282   7285   7288   7289     1  0.0000000  1.2552000  3
   7282   7285   7288   7298     1  180.0000771  2.0083200  2
   7282   7285   7288   7298     1  0.0000000  1.2552000  3
   7285   7288   7289   7292     1  180.0000771  2.0083200  2
   7285   7288   7289   7292     1  0.0000000  1.2552000  3
   7285   7288   7298   7301     1  180.0000771  2.0083200  2
   7285   7288   7298   7301     1  0.0000000  1.2552000  3
   7285   7282   7279   7307     1  0.0000000  0.6508444  3
   7288   7289   7292   7295     1  0.0000000  0.6508444  3
   7288   7298   7301   7304     1  0.0000000  0.6508444  3
   7289   7292   7295   7296     1  180.0000771  0.0000000  2
   7289   7292   7295   7297     1  180.0000771  0.0000000  2
   7289   7288   7298   7301     1  180.0000771  2.0083200  2
   7289   7288   7298   7301     1  0.0000000  1.2552000  3
   7292   7289   7288   7298     1  180.0000771  2.0083200  2
   7292   7289   7288   7298     1  0.0000000  1.2552000  3
   7298   7301   7304   7305     1  180.0000771  0.0000000  2
   7298   7301   7304   7306     1  180.0000771  0.0000000  2
   7308   7311   7314   7317     1  0.0000000  0.6508444  3
   7311   7314   7317   7318     1  180.0000771  2.0083200  2
   7311   7314   7317   7318     1  0.0000000  1.2552000  3
   7311   7314   7317   7327     1  180.0000771  2.0083200  2
   7311   7314   7317   7327     1  0.0000000  1.2552000  3
   7314   7311   7308   7336     1  0.0000000  0.6508444  3
   7314   7317   7318   7321     1  180.0000771  2.0083200  2
   7314   7317   7318   7321     1  0.0000000  1.2552000  3
   7314   7317   7327   7330     1  180.0000771  2.0083200  2
   7314   7317   7327   7330     1  0.0000000  1.2552000  3
   7317   7318   7321   7324     1  0.0000000  0.6508444  3
   7317   7327   7330   7333     1  0.0000000  0.6508444  3
   7318   7317   7327   7330     1  180.0000771  2.0083200  2
   7318   7317   7327   7330     1  0.0000000  1.2552000  3
   7318   7321   7324   7325     1  180.0000771  0.0000000  2
   7318   7321   7324   7326     1  180.0000771  0.0000000  2
   7321   7318   7317   7327     1  180.0000771  2.0083200  2
   7321   7318   7317   7327     1  0.0000000  1.2552000  3
   7327   7330   7333   7334     1  180.0000771  0.0000000  2
   7327   7330   7333   7335     1  180.0000771  0.0000000  2
   7337   7340   7343   7346     1  0.0000000  0.6508444  3
   7340   7343   7346   7347     1  180.0000771  2.0083200  2
   7340   7343   7346   7347     1  0.0000000  1.2552000  3
   7340   7343   7346   7356     1  180.0000771  2.0083200  2
   7340   7343   7346   7356     1  0.0000000  1.2552000  3
   7343   7346   7347   7350     1  180.0000771  2.0083200  2
   7343   7346   7347   7350     1  0.0000000  1.2552000  3
   7343   7346   7356   7359     1  180.0000771  2.0083200  2
   7343   7346   7356   7359     1  0.0000000  1.2552000  3
   7343   7340   7337   7365     1  0.0000000  0.6508444  3
   7346   7347   7350   7353     1  0.0000000  0.6508444  3
   7346   7356   7359   7362     1  0.0000000  0.6508444  3
   7347   7350   7353   7354     1  180.0000771  0.0000000  2
   7347   7350   7353   7355     1  180.0000771  0.0000000  2
   7347   7346   7356   7359     1  180.0000771  2.0083200  2
   7347   7346   7356   7359     1  0.0000000  1.2552000  3
   7350   7347   7346   7356     1  180.0000771  2.0083200  2
   7350   7347   7346   7356     1  0.0000000  1.2552000  3
   7356   7359   7362   7363     1  180.0000771  0.0000000  2
   7356   7359   7362   7364     1  180.0000771  0.0000000  2
   7366   7369   7372   7375     1  0.0000000  0.6508444  3
   7369   7372   7375   7376     1  180.0000771  2.0083200  2
   7369   7372   7375   7376     1  0.0000000  1.2552000  3
   7369   7372   7375   7385     1  180.0000771  2.0083200  2
   7369   7372   7375   7385     1  0.0000000  1.2552000  3
   7372   7369   7366   7394     1  0.0000000  0.6508444  3
   7372   7375   7376   7379     1  180.0000771  2.0083200  2
   7372   7375   7376   7379     1  0.0000000  1.2552000  3
   7372   7375   7385   7388     1  180.0000771  2.0083200  2
   7372   7375   7385   7388     1  0.0000000  1.2552000  3
   7375   7376   7379   7382     1  0.0000000  0.6508444  3
   7375   7385   7388   7391     1  0.0000000  0.6508444  3
   7376   7375   7385   7388     1  180.0000771  2.0083200  2
   7376   7375   7385   7388     1  0.0000000  1.2552000  3
   7376   7379   7382   7383     1  180.0000771  0.0000000  2
   7376   7379   7382   7384     1  180.0000771  0.0000000  2
   7379   7376   7375   7385     1  180.0000771  2.0083200  2
   7379   7376   7375   7385     1  0.0000000  1.2552000  3
   7385   7388   7391   7392     1  180.0000771  0.0000000  2
   7385   7388   7391   7393     1  180.0000771  0.0000000  2
   7395   7398   7401   7404     1  0.0000000  0.6508444  3
   7398   7401   7404   7405     1  180.0000771  2.0083200  2
   7398   7401   7404   7405     1  0.0000000  1.2552000  3
   7398   7401   7404   7414     1  180.0000771  2.0083200  2
   7398   7401   7404   7414     1  0.0000000  1.2552000  3
   7401   7404   7405   7408     1  180.0000771  2.0083200  2
   7401   7404   7405   7408     1  0.0000000  1.2552000  3
   7401   7404   7414   7417     1  180.0000771  2.0083200  2
   7401   7404   7414   7417     1  0.0000000  1.2552000  3
   7401   7398   7395   7423     1  0.0000000  0.6508444  3
   7404   7405   7408   7411     1  0.0000000  0.6508444  3
   7404   7414   7417   7420     1  0.0000000  0.6508444  3
   7405   7408   7411   7412     1  180.0000771  0.0000000  2
   7405   7408   7411   7413     1  180.0000771  0.0000000  2
   7405   7404   7414   7417     1  180.0000771  2.0083200  2
   7405   7404   7414   7417     1  0.0000000  1.2552000  3
   7408   7405   7404   7414     1  180.0000771  2.0083200  2
   7408   7405   7404   7414     1  0.0000000  1.2552000  3
   7414   7417   7420   7421     1  180.0000771  0.0000000  2
   7414   7417   7420   7422     1  180.0000771  0.0000000  2
   7424   7427   7430   7433     1  0.0000000  0.6508444  3
   7427   7430   7433   7434     1  180.0000771  2.0083200  2
   7427   7430   7433   7434     1  0.0000000  1.2552000  3
   7427   7430   7433   7443     1  180.0000771  2.0083200  2
   7427   7430   7433   7443     1  0.0000000  1.2552000  3
   7430   7427   7424   7452     1  0.0000000  0.6508444  3
   7430   7433   7434   7437     1  180.0000771  2.0083200  2
   7430   7433   7434   7437     1  0.0000000  1.2552000  3
   7430   7433   7443   7446     1  180.0000771  2.0083200  2
   7430   7433   7443   7446     1  0.0000000  1.2552000  3
   7433   7434   7437   7440     1  0.0000000  0.6508444  3
   7433   7443   7446   7449     1  0.0000000  0.6508444  3
   7434   7433   7443   7446     1  180.0000771  2.0083200  2
   7434   7433   7443   7446     1  0.0000000  1.2552000  3
   7434   7437   7440   7441     1  180.0000771  0.0000000  2
   7434   7437   7440   7442     1  180.0000771  0.0000000  2
   7437   7434   7433   7443     1  180.0000771  2.0083200  2
   7437   7434   7433   7443     1  0.0000000  1.2552000  3
   7443   7446   7449   7450     1  180.0000771  0.0000000  2
   7443   7446   7449   7451     1  180.0000771  0.0000000  2
   7453   7456   7459   7462     1  0.0000000  0.6508444  3
   7456   7459   7462   7463     1  180.0000771  2.0083200  2
   7456   7459   7462   7463     1  0.0000000  1.2552000  3
   7456   7459   7462   7472     1  180.0000771  2.0083200  2
   7456   7459   7462   7472     1  0.0000000  1.2552000  3
   7459   7462   7463   7466     1  180.0000771  2.0083200  2
   7459   7462   7463   7466     1  0.0000000  1.2552000  3
   7459   7462   7472   7475     1  180.0000771  2.0083200  2
   7459   7462   7472   7475     1  0.0000000  1.2552000  3
   7459   7456   7453   7481     1  0.0000000  0.6508444  3
   7462   7463   7466   7469     1  0.0000000  0.6508444  3
   7462   7472   7475   7478     1  0.0000000  0.6508444  3
   7463   7466   7469   7470     1  180.0000771  0.0000000  2
   7463   7466   7469   7471     1  180.0000771  0.0000000  2
   7463   7462   7472   7475     1  180.0000771  2.0083200  2
   7463   7462   7472   7475     1  0.0000000  1.2552000  3
   7466   7463   7462   7472     1  180.0000771  2.0083200  2
   7466   7463   7462   7472     1  0.0000000  1.2552000  3
   7472   7475   7478   7479     1  180.0000771  0.0000000  2
   7472   7475   7478   7480     1  180.0000771  0.0000000  2
   7482   7485   7488   7491     1  0.0000000  0.6508444  3
   7485   7488   7491   7492     1  180.0000771  2.0083200  2
   7485   7488   7491   7492     1  0.0000000  1.2552000  3
   7485   7488   7491   7501     1  180.0000771  2.0083200  2
   7485   7488   7491   7501     1  0.0000000  1.2552000  3
   7488   7485   7482   7510     1  0.0000000  0.6508444  3
   7488   7491   7492   7495     1  180.0000771  2.0083200  2
   7488   7491   7492   7495     1  0.0000000  1.2552000  3
   7488   7491   7501   7504     1  180.0000771  2.0083200  2
   7488   7491   7501   7504     1  0.0000000  1.2552000  3
   7491   7492   7495   7498     1  0.0000000  0.6508444  3
   7491   7501   7504   7507     1  0.0000000  0.6508444  3
   7492   7491   7501   7504     1  180.0000771  2.0083200  2
   7492   7491   7501   7504     1  0.0000000  1.2552000  3
   7492   7495   7498   7499     1  180.0000771  0.0000000  2
   7492   7495   7498   7500     1  180.0000771  0.0000000  2
   7495   7492   7491   7501     1  180.0000771  2.0083200  2
   7495   7492   7491   7501     1  0.0000000  1.2552000  3
   7501   7504   7507   7508     1  180.0000771  0.0000000  2
   7501   7504   7507   7509     1  180.0000771  0.0000000  2
   7511   7514   7517   7520     1  0.0000000  0.6508444  3
   7514   7517   7520   7521     1  180.0000771  2.0083200  2
   7514   7517   7520   7521     1  0.0000000  1.2552000  3
   7514   7517   7520   7530     1  180.0000771  2.0083200  2
   7514   7517   7520   7530     1  0.0000000  1.2552000  3
   7517   7520   7521   7524     1  180.0000771  2.0083200  2
   7517   7520   7521   7524     1  0.0000000  1.2552000  3
   7517   7520   7530   7533     1  180.0000771  2.0083200  2
   7517   7520   7530   7533     1  0.0000000  1.2552000  3
   7517   7514   7511   7539     1  0.0000000  0.6508444  3
   7520   7521   7524   7527     1  0.0000000  0.6508444  3
   7520   7530   7533   7536     1  0.0000000  0.6508444  3
   7521   7524   7527   7528     1  180.0000771  0.0000000  2
   7521   7524   7527   7529     1  180.0000771  0.0000000  2
   7521   7520   7530   7533     1  180.0000771  2.0083200  2
   7521   7520   7530   7533     1  0.0000000  1.2552000  3
   7524   7521   7520   7530     1  180.0000771  2.0083200  2
   7524   7521   7520   7530     1  0.0000000  1.2552000  3
   7530   7533   7536   7537     1  180.0000771  0.0000000  2
   7530   7533   7536   7538     1  180.0000771  0.0000000  2
   7540   7543   7546   7549     1  0.0000000  0.6508444  3
   7543   7546   7549   7550     1  180.0000771  2.0083200  2
   7543   7546   7549   7550     1  0.0000000  1.2552000  3
   7543   7546   7549   7559     1  180.0000771  2.0083200  2
   7543   7546   7549   7559     1  0.0000000  1.2552000  3
   7546   7543   7540   7568     1  0.0000000  0.6508444  3
   7546   7549   7550   7553     1  180.0000771  2.0083200  2
   7546   7549   7550   7553     1  0.0000000  1.2552000  3
   7546   7549   7559   7562     1  180.0000771  2.0083200  2
   7546   7549   7559   7562     1  0.0000000  1.2552000  3
   7549   7550   7553   7556     1  0.0000000  0.6508444  3
   7549   7559   7562   7565     1  0.0000000  0.6508444  3
   7550   7549   7559   7562     1  180.0000771  2.0083200  2
   7550   7549   7559   7562     1  0.0000000  1.2552000  3
   7550   7553   7556   7557     1  180.0000771  0.0000000  2
   7550   7553   7556   7558     1  180.0000771  0.0000000  2
   7553   7550   7549   7559     1  180.0000771  2.0083200  2
   7553   7550   7549   7559     1  0.0000000  1.2552000  3
   7559   7562   7565   7566     1  180.0000771  0.0000000  2
   7559   7562   7565   7567     1  180.0000771  0.0000000  2
   7569   7572   7575   7578     1  0.0000000  0.6508444  3
   7572   7575   7578   7579     1  180.0000771  2.0083200  2
   7572   7575   7578   7579     1  0.0000000  1.2552000  3
   7572   7575   7578   7588     1  180.0000771  2.0083200  2
   7572   7575   7578   7588     1  0.0000000  1.2552000  3
   7575   7578   7579   7582     1  180.0000771  2.0083200  2
   7575   7578   7579   7582     1  0.0000000  1.2552000  3
   7575   7578   7588   7591     1  180.0000771  2.0083200  2
   7575   7578   7588   7591     1  0.0000000  1.2552000  3
   7575   7572   7569   7597     1  0.0000000  0.6508444  3
   7578   7579   7582   7585     1  0.0000000  0.6508444  3
   7578   7588   7591   7594     1  0.0000000  0.6508444  3
   7579   7582   7585   7586     1  180.0000771  0.0000000  2
   7579   7582   7585   7587     1  180.0000771  0.0000000  2
   7579   7578   7588   7591     1  180.0000771  2.0083200  2
   7579   7578   7588   7591     1  0.0000000  1.2552000  3
   7582   7579   7578   7588     1  180.0000771  2.0083200  2
   7582   7579   7578   7588     1  0.0000000  1.2552000  3
   7588   7591   7594   7595     1  180.0000771  0.0000000  2
   7588   7591   7594   7596     1  180.0000771  0.0000000  2
   7598   7601   7604   7607     1  0.0000000  0.6508444  3
   7601   7604   7607   7608     1  180.0000771  2.0083200  2
   7601   7604   7607   7608     1  0.0000000  1.2552000  3
   7601   7604   7607   7617     1  180.0000771  2.0083200  2
   7601   7604   7607   7617     1  0.0000000  1.2552000  3
   7604   7601   7598   7626     1  0.0000000  0.6508444  3
   7604   7607   7608   7611     1  180.0000771  2.0083200  2
   7604   7607   7608   7611     1  0.0000000  1.2552000  3
   7604   7607   7617   7620     1  180.0000771  2.0083200  2
   7604   7607   7617   7620     1  0.0000000  1.2552000  3
   7607   7608   7611   7614     1  0.0000000  0.6508444  3
   7607   7617   7620   7623     1  0.0000000  0.6508444  3
   7608   7607   7617   7620     1  180.0000771  2.0083200  2
   7608   7607   7617   7620     1  0.0000000  1.2552000  3
   7608   7611   7614   7615     1  180.0000771  0.0000000  2
   7608   7611   7614   7616     1  180.0000771  0.0000000  2
   7611   7608   7607   7617     1  180.0000771  2.0083200  2
   7611   7608   7607   7617     1  0.0000000  1.2552000  3
   7617   7620   7623   7624     1  180.0000771  0.0000000  2
   7617   7620   7623   7625     1  180.0000771  0.0000000  2
   7627   7630   7633   7636     1  0.0000000  0.6508444  3
   7630   7633   7636   7637     1  180.0000771  2.0083200  2
   7630   7633   7636   7637     1  0.0000000  1.2552000  3
   7630   7633   7636   7646     1  180.0000771  2.0083200  2
   7630   7633   7636   7646     1  0.0000000  1.2552000  3
   7633   7636   7637   7640     1  180.0000771  2.0083200  2
   7633   7636   7637   7640     1  0.0000000  1.2552000  3
   7633   7636   7646   7649     1  180.0000771  2.0083200  2
   7633   7636   7646   7649     1  0.0000000  1.2552000  3
   7633   7630   7627   7655     1  0.0000000  0.6508444  3
   7636   7637   7640   7643     1  0.0000000  0.6508444  3
   7636   7646   7649   7652     1  0.0000000  0.6508444  3
   7637   7640   7643   7644     1  180.0000771  0.0000000  2
   7637   7640   7643   7645     1  180.0000771  0.0000000  2
   7637   7636   7646   7649     1  180.0000771  2.0083200  2
   7637   7636   7646   7649     1  0.0000000  1.2552000  3
   7640   7637   7636   7646     1  180.0000771  2.0083200  2
   7640   7637   7636   7646     1  0.0000000  1.2552000  3
   7646   7649   7652   7653     1  180.0000771  0.0000000  2
   7646   7649   7652   7654     1  180.0000771  0.0000000  2
   7656   7659   7662   7665     1  0.0000000  0.6508444  3
   7659   7662   7665   7666     1  180.0000771  2.0083200  2
   7659   7662   7665   7666     1  0.0000000  1.2552000  3
   7659   7662   7665   7675     1  180.0000771  2.0083200  2
   7659   7662   7665   7675     1  0.0000000  1.2552000  3
   7662   7659   7656   7684     1  0.0000000  0.6508444  3
   7662   7665   7666   7669     1  180.0000771  2.0083200  2
   7662   7665   7666   7669     1  0.0000000  1.2552000  3
   7662   7665   7675   7678     1  180.0000771  2.0083200  2
   7662   7665   7675   7678     1  0.0000000  1.2552000  3
   7665   7666   7669   7672     1  0.0000000  0.6508444  3
   7665   7675   7678   7681     1  0.0000000  0.6508444  3
   7666   7665   7675   7678     1  180.0000771  2.0083200  2
   7666   7665   7675   7678     1  0.0000000  1.2552000  3
   7666   7669   7672   7673     1  180.0000771  0.0000000  2
   7666   7669   7672   7674     1  180.0000771  0.0000000  2
   7669   7666   7665   7675     1  180.0000771  2.0083200  2
   7669   7666   7665   7675     1  0.0000000  1.2552000  3
   7675   7678   7681   7682     1  180.0000771  0.0000000  2
   7675   7678   7681   7683     1  180.0000771  0.0000000  2
   7685   7688   7691   7694     1  0.0000000  0.6508444  3
   7688   7691   7694   7695     1  180.0000771  2.0083200  2
   7688   7691   7694   7695     1  0.0000000  1.2552000  3
   7688   7691   7694   7704     1  180.0000771  2.0083200  2
   7688   7691   7694   7704     1  0.0000000  1.2552000  3
   7691   7694   7695   7698     1  180.0000771  2.0083200  2
   7691   7694   7695   7698     1  0.0000000  1.2552000  3
   7691   7694   7704   7707     1  180.0000771  2.0083200  2
   7691   7694   7704   7707     1  0.0000000  1.2552000  3
   7691   7688   7685   7713     1  0.0000000  0.6508444  3
   7694   7695   7698   7701     1  0.0000000  0.6508444  3
   7694   7704   7707   7710     1  0.0000000  0.6508444  3
   7695   7698   7701   7702     1  180.0000771  0.0000000  2
   7695   7698   7701   7703     1  180.0000771  0.0000000  2
   7695   7694   7704   7707     1  180.0000771  2.0083200  2
   7695   7694   7704   7707     1  0.0000000  1.2552000  3
   7698   7695   7694   7704     1  180.0000771  2.0083200  2
   7698   7695   7694   7704     1  0.0000000  1.2552000  3
   7704   7707   7710   7711     1  180.0000771  0.0000000  2
   7704   7707   7710   7712     1  180.0000771  0.0000000  2
   7714   7717   7720   7723     1  0.0000000  0.6508444  3
   7717   7720   7723   7724     1  180.0000771  2.0083200  2
   7717   7720   7723   7724     1  0.0000000  1.2552000  3
   7717   7720   7723   7733     1  180.0000771  2.0083200  2
   7717   7720   7723   7733     1  0.0000000  1.2552000  3
   7720   7717   7714   7742     1  0.0000000  0.6508444  3
   7720   7723   7724   7727     1  180.0000771  2.0083200  2
   7720   7723   7724   7727     1  0.0000000  1.2552000  3
   7720   7723   7733   7736     1  180.0000771  2.0083200  2
   7720   7723   7733   7736     1  0.0000000  1.2552000  3
   7723   7724   7727   7730     1  0.0000000  0.6508444  3
   7723   7733   7736   7739     1  0.0000000  0.6508444  3
   7724   7723   7733   7736     1  180.0000771  2.0083200  2
   7724   7723   7733   7736     1  0.0000000  1.2552000  3
   7724   7727   7730   7731     1  180.0000771  0.0000000  2
   7724   7727   7730   7732     1  180.0000771  0.0000000  2
   7727   7724   7723   7733     1  180.0000771  2.0083200  2
   7727   7724   7723   7733     1  0.0000000  1.2552000  3
   7733   7736   7739   7740     1  180.0000771  0.0000000  2
   7733   7736   7739   7741     1  180.0000771  0.0000000  2
   7743   7746   7749   7752     1  0.0000000  0.6508444  3
   7746   7749   7752   7753     1  180.0000771  2.0083200  2
   7746   7749   7752   7753     1  0.0000000  1.2552000  3
   7746   7749   7752   7762     1  180.0000771  2.0083200  2
   7746   7749   7752   7762     1  0.0000000  1.2552000  3
   7749   7752   7753   7756     1  180.0000771  2.0083200  2
   7749   7752   7753   7756     1  0.0000000  1.2552000  3
   7749   7752   7762   7765     1  180.0000771  2.0083200  2
   7749   7752   7762   7765     1  0.0000000  1.2552000  3
   7749   7746   7743   7771     1  0.0000000  0.6508444  3
   7752   7753   7756   7759     1  0.0000000  0.6508444  3
   7752   7762   7765   7768     1  0.0000000  0.6508444  3
   7753   7756   7759   7760     1  180.0000771  0.0000000  2
   7753   7756   7759   7761     1  180.0000771  0.0000000  2
   7753   7752   7762   7765     1  180.0000771  2.0083200  2
   7753   7752   7762   7765     1  0.0000000  1.2552000  3
   7756   7753   7752   7762     1  180.0000771  2.0083200  2
   7756   7753   7752   7762     1  0.0000000  1.2552000  3
   7762   7765   7768   7769     1  180.0000771  0.0000000  2
   7762   7765   7768   7770     1  180.0000771  0.0000000  2
   7772   7775   7778   7781     1  0.0000000  0.6508444  3
   7775   7778   7781   7782     1  180.0000771  2.0083200  2
   7775   7778   7781   7782     1  0.0000000  1.2552000  3
   7775   7778   7781   7791     1  180.0000771  2.0083200  2
   7775   7778   7781   7791     1  0.0000000  1.2552000  3
   7778   7775   7772   7800     1  0.0000000  0.6508444  3
   7778   7781   7782   7785     1  180.0000771  2.0083200  2
   7778   7781   7782   7785     1  0.0000000  1.2552000  3
   7778   7781   7791   7794     1  180.0000771  2.0083200  2
   7778   7781   7791   7794     1  0.0000000  1.2552000  3
   7781   7782   7785   7788     1  0.0000000  0.6508444  3
   7781   7791   7794   7797     1  0.0000000  0.6508444  3
   7782   7781   7791   7794     1  180.0000771  2.0083200  2
   7782   7781   7791   7794     1  0.0000000  1.2552000  3
   7782   7785   7788   7789     1  180.0000771  0.0000000  2
   7782   7785   7788   7790     1  180.0000771  0.0000000  2
   7785   7782   7781   7791     1  180.0000771  2.0083200  2
   7785   7782   7781   7791     1  0.0000000  1.2552000  3
   7791   7794   7797   7798     1  180.0000771  0.0000000  2
   7791   7794   7797   7799     1  180.0000771  0.0000000  2
   7801   7804   7807   7810     1  0.0000000  0.6508444  3
   7804   7807   7810   7811     1  180.0000771  2.0083200  2
   7804   7807   7810   7811     1  0.0000000  1.2552000  3
   7804   7807   7810   7820     1  180.0000771  2.0083200  2
   7804   7807   7810   7820     1  0.0000000  1.2552000  3
   7807   7810   7811   7814     1  180.0000771  2.0083200  2
   7807   7810   7811   7814     1  0.0000000  1.2552000  3
   7807   7810   7820   7823     1  180.0000771  2.0083200  2
   7807   7810   7820   7823     1  0.0000000  1.2552000  3
   7807   7804   7801   7829     1  0.0000000  0.6508444  3
   7810   7811   7814   7817     1  0.0000000  0.6508444  3
   7810   7820   7823   7826     1  0.0000000  0.6508444  3
   7811   7814   7817   7818     1  180.0000771  0.0000000  2
   7811   7814   7817   7819     1  180.0000771  0.0000000  2
   7811   7810   7820   7823     1  180.0000771  2.0083200  2
   7811   7810   7820   7823     1  0.0000000  1.2552000  3
   7814   7811   7810   7820     1  180.0000771  2.0083200  2
   7814   7811   7810   7820     1  0.0000000  1.2552000  3
   7820   7823   7826   7827     1  180.0000771  0.0000000  2
   7820   7823   7826   7828     1  180.0000771  0.0000000  2
   7830   7833   7836   7839     1  0.0000000  0.6508444  3
   7833   7836   7839   7840     1  180.0000771  2.0083200  2
   7833   7836   7839   7840     1  0.0000000  1.2552000  3
   7833   7836   7839   7849     1  180.0000771  2.0083200  2
   7833   7836   7839   7849     1  0.0000000  1.2552000  3
   7836   7833   7830   7858     1  0.0000000  0.6508444  3
   7836   7839   7840   7843     1  180.0000771  2.0083200  2
   7836   7839   7840   7843     1  0.0000000  1.2552000  3
   7836   7839   7849   7852     1  180.0000771  2.0083200  2
   7836   7839   7849   7852     1  0.0000000  1.2552000  3
   7839   7840   7843   7846     1  0.0000000  0.6508444  3
   7839   7849   7852   7855     1  0.0000000  0.6508444  3
   7840   7839   7849   7852     1  180.0000771  2.0083200  2
   7840   7839   7849   7852     1  0.0000000  1.2552000  3
   7840   7843   7846   7847     1  180.0000771  0.0000000  2
   7840   7843   7846   7848     1  180.0000771  0.0000000  2
   7843   7840   7839   7849     1  180.0000771  2.0083200  2
   7843   7840   7839   7849     1  0.0000000  1.2552000  3
   7849   7852   7855   7856     1  180.0000771  0.0000000  2
   7849   7852   7855   7857     1  180.0000771  0.0000000  2
   7859   7862   7865   7868     1  0.0000000  0.6508444  3
   7862   7865   7868   7869     1  180.0000771  2.0083200  2
   7862   7865   7868   7869     1  0.0000000  1.2552000  3
   7862   7865   7868   7878     1  180.0000771  2.0083200  2
   7862   7865   7868   7878     1  0.0000000  1.2552000  3
   7865   7868   7869   7872     1  180.0000771  2.0083200  2
   7865   7868   7869   7872     1  0.0000000  1.2552000  3
   7865   7868   7878   7881     1  180.0000771  2.0083200  2
   7865   7868   7878   7881     1  0.0000000  1.2552000  3
   7865   7862   7859   7887     1  0.0000000  0.6508444  3
   7868   7869   7872   7875     1  0.0000000  0.6508444  3
   7868   7878   7881   7884     1  0.0000000  0.6508444  3
   7869   7872   7875   7876     1  180.0000771  0.0000000  2
   7869   7872   7875   7877     1  180.0000771  0.0000000  2
   7869   7868   7878   7881     1  180.0000771  2.0083200  2
   7869   7868   7878   7881     1  0.0000000  1.2552000  3
   7872   7869   7868   7878     1  180.0000771  2.0083200  2
   7872   7869   7868   7878     1  0.0000000  1.2552000  3
   7878   7881   7884   7885     1  180.0000771  0.0000000  2
   7878   7881   7884   7886     1  180.0000771  0.0000000  2
   7888   7891   7894   7897     1  0.0000000  0.6508444  3
   7891   7894   7897   7898     1  180.0000771  2.0083200  2
   7891   7894   7897   7898     1  0.0000000  1.2552000  3
   7891   7894   7897   7907     1  180.0000771  2.0083200  2
   7891   7894   7897   7907     1  0.0000000  1.2552000  3
   7894   7891   7888   7916     1  0.0000000  0.6508444  3
   7894   7897   7898   7901     1  180.0000771  2.0083200  2
   7894   7897   7898   7901     1  0.0000000  1.2552000  3
   7894   7897   7907   7910     1  180.0000771  2.0083200  2
   7894   7897   7907   7910     1  0.0000000  1.2552000  3
   7897   7898   7901   7904     1  0.0000000  0.6508444  3
   7897   7907   7910   7913     1  0.0000000  0.6508444  3
   7898   7897   7907   7910     1  180.0000771  2.0083200  2
   7898   7897   7907   7910     1  0.0000000  1.2552000  3
   7898   7901   7904   7905     1  180.0000771  0.0000000  2
   7898   7901   7904   7906     1  180.0000771  0.0000000  2
   7901   7898   7897   7907     1  180.0000771  2.0083200  2
   7901   7898   7897   7907     1  0.0000000  1.2552000  3
   7907   7910   7913   7914     1  180.0000771  0.0000000  2
   7907   7910   7913   7915     1  180.0000771  0.0000000  2
   7917   7920   7923   7926     1  0.0000000  0.6508444  3
   7920   7923   7926   7927     1  180.0000771  2.0083200  2
   7920   7923   7926   7927     1  0.0000000  1.2552000  3
   7920   7923   7926   7936     1  180.0000771  2.0083200  2
   7920   7923   7926   7936     1  0.0000000  1.2552000  3
   7923   7926   7927   7930     1  180.0000771  2.0083200  2
   7923   7926   7927   7930     1  0.0000000  1.2552000  3
   7923   7926   7936   7939     1  180.0000771  2.0083200  2
   7923   7926   7936   7939     1  0.0000000  1.2552000  3
   7923   7920   7917   7945     1  0.0000000  0.6508444  3
   7926   7927   7930   7933     1  0.0000000  0.6508444  3
   7926   7936   7939   7942     1  0.0000000  0.6508444  3
   7927   7930   7933   7934     1  180.0000771  0.0000000  2
   7927   7930   7933   7935     1  180.0000771  0.0000000  2
   7927   7926   7936   7939     1  180.0000771  2.0083200  2
   7927   7926   7936   7939     1  0.0000000  1.2552000  3
   7930   7927   7926   7936     1  180.0000771  2.0083200  2
   7930   7927   7926   7936     1  0.0000000  1.2552000  3
   7936   7939   7942   7943     1  180.0000771  0.0000000  2
   7936   7939   7942   7944     1  180.0000771  0.0000000  2
   7946   7949   7952   7955     1  0.0000000  0.6508444  3
   7949   7952   7955   7956     1  180.0000771  2.0083200  2
   7949   7952   7955   7956     1  0.0000000  1.2552000  3
   7949   7952   7955   7965     1  180.0000771  2.0083200  2
   7949   7952   7955   7965     1  0.0000000  1.2552000  3
   7952   7949   7946   7974     1  0.0000000  0.6508444  3
   7952   7955   7956   7959     1  180.0000771  2.0083200  2
   7952   7955   7956   7959     1  0.0000000  1.2552000  3
   7952   7955   7965   7968     1  180.0000771  2.0083200  2
   7952   7955   7965   7968     1  0.0000000  1.2552000  3
   7955   7956   7959   7962     1  0.0000000  0.6508444  3
   7955   7965   7968   7971     1  0.0000000  0.6508444  3
   7956   7955   7965   7968     1  180.0000771  2.0083200  2
   7956   7955   7965   7968     1  0.0000000  1.2552000  3
   7956   7959   7962   7963     1  180.0000771  0.0000000  2
   7956   7959   7962   7964     1  180.0000771  0.0000000  2
   7959   7956   7955   7965     1  180.0000771  2.0083200  2
   7959   7956   7955   7965     1  0.0000000  1.2552000  3
   7965   7968   7971   7972     1  180.0000771  0.0000000  2
   7965   7968   7971   7973     1  180.0000771  0.0000000  2
   7975   7978   7981   7984     1  0.0000000  0.6508444  3
   7978   7981   7984   7985     1  180.0000771  2.0083200  2
   7978   7981   7984   7985     1  0.0000000  1.2552000  3
   7978   7981   7984   7994     1  180.0000771  2.0083200  2
   7978   7981   7984   7994     1  0.0000000  1.2552000  3
   7981   7984   7985   7988     1  180.0000771  2.0083200  2
   7981   7984   7985   7988     1  0.0000000  1.2552000  3
   7981   7984   7994   7997     1  180.0000771  2.0083200  2
   7981   7984   7994   7997     1  0.0000000  1.2552000  3
   7981   7978   7975   8003     1  0.0000000  0.6508444  3
   7984   7985   7988   7991     1  0.0000000  0.6508444  3
   7984   7994   7997   8000     1  0.0000000  0.6508444  3
   7985   7988   7991   7992     1  180.0000771  0.0000000  2
   7985   7988   7991   7993     1  180.0000771  0.0000000  2
   7985   7984   7994   7997     1  180.0000771  2.0083200  2
   7985   7984   7994   7997     1  0.0000000  1.2552000  3
   7988   7985   7984   7994     1  180.0000771  2.0083200  2
   7988   7985   7984   7994     1  0.0000000  1.2552000  3
   7994   7997   8000   8001     1  180.0000771  0.0000000  2
   7994   7997   8000   8002     1  180.0000771  0.0000000  2
   8004   8007   8010   8013     1  0.0000000  0.6508444  3
   8007   8010   8013   8014     1  180.0000771  2.0083200  2
   8007   8010   8013   8014     1  0.0000000  1.2552000  3
   8007   8010   8013   8023     1  180.0000771  2.0083200  2
   8007   8010   8013   8023     1  0.0000000  1.2552000  3
   8010   8007   8004   8032     1  0.0000000  0.6508444  3
   8010   8013   8014   8017     1  180.0000771  2.0083200  2
   8010   8013   8014   8017     1  0.0000000  1.2552000  3
   8010   8013   8023   8026     1  180.0000771  2.0083200  2
   8010   8013   8023   8026     1  0.0000000  1.2552000  3
   8013   8014   8017   8020     1  0.0000000  0.6508444  3
   8013   8023   8026   8029     1  0.0000000  0.6508444  3
   8014   8013   8023   8026     1  180.0000771  2.0083200  2
   8014   8013   8023   8026     1  0.0000000  1.2552000  3
   8014   8017   8020   8021     1  180.0000771  0.0000000  2
   8014   8017   8020   8022     1  180.0000771  0.0000000  2
   8017   8014   8013   8023     1  180.0000771  2.0083200  2
   8017   8014   8013   8023     1  0.0000000  1.2552000  3
   8023   8026   8029   8030     1  180.0000771  0.0000000  2
   8023   8026   8029   8031     1  180.0000771  0.0000000  2
   8033   8036   8039   8042     1  0.0000000  0.6508444  3
   8036   8039   8042   8043     1  180.0000771  2.0083200  2
   8036   8039   8042   8043     1  0.0000000  1.2552000  3
   8036   8039   8042   8052     1  180.0000771  2.0083200  2
   8036   8039   8042   8052     1  0.0000000  1.2552000  3
   8039   8042   8043   8046     1  180.0000771  2.0083200  2
   8039   8042   8043   8046     1  0.0000000  1.2552000  3
   8039   8042   8052   8055     1  180.0000771  2.0083200  2
   8039   8042   8052   8055     1  0.0000000  1.2552000  3
   8039   8036   8033   8061     1  0.0000000  0.6508444  3
   8042   8043   8046   8049     1  0.0000000  0.6508444  3
   8042   8052   8055   8058     1  0.0000000  0.6508444  3
   8043   8046   8049   8050     1  180.0000771  0.0000000  2
   8043   8046   8049   8051     1  180.0000771  0.0000000  2
   8043   8042   8052   8055     1  180.0000771  2.0083200  2
   8043   8042   8052   8055     1  0.0000000  1.2552000  3
   8046   8043   8042   8052     1  180.0000771  2.0083200  2
   8046   8043   8042   8052     1  0.0000000  1.2552000  3
   8052   8055   8058   8059     1  180.0000771  0.0000000  2
   8052   8055   8058   8060     1  180.0000771  0.0000000  2
   8062   8065   8068   8071     1  0.0000000  0.6508444  3
   8065   8068   8071   8072     1  180.0000771  2.0083200  2
   8065   8068   8071   8072     1  0.0000000  1.2552000  3
   8065   8068   8071   8081     1  180.0000771  2.0083200  2
   8065   8068   8071   8081     1  0.0000000  1.2552000  3
   8068   8065   8062   8090     1  0.0000000  0.6508444  3
   8068   8071   8072   8075     1  180.0000771  2.0083200  2
   8068   8071   8072   8075     1  0.0000000  1.2552000  3
   8068   8071   8081   8084     1  180.0000771  2.0083200  2
   8068   8071   8081   8084     1  0.0000000  1.2552000  3
   8071   8072   8075   8078     1  0.0000000  0.6508444  3
   8071   8081   8084   8087     1  0.0000000  0.6508444  3
   8072   8071   8081   8084     1  180.0000771  2.0083200  2
   8072   8071   8081   8084     1  0.0000000  1.2552000  3
   8072   8075   8078   8079     1  180.0000771  0.0000000  2
   8072   8075   8078   8080     1  180.0000771  0.0000000  2
   8075   8072   8071   8081     1  180.0000771  2.0083200  2
   8075   8072   8071   8081     1  0.0000000  1.2552000  3
   8081   8084   8087   8088     1  180.0000771  0.0000000  2
   8081   8084   8087   8089     1  180.0000771  0.0000000  2
   8091   8094   8097   8100     1  0.0000000  0.6508444  3
   8094   8097   8100   8101     1  180.0000771  2.0083200  2
   8094   8097   8100   8101     1  0.0000000  1.2552000  3
   8094   8097   8100   8110     1  180.0000771  2.0083200  2
   8094   8097   8100   8110     1  0.0000000  1.2552000  3
   8097   8100   8101   8104     1  180.0000771  2.0083200  2
   8097   8100   8101   8104     1  0.0000000  1.2552000  3
   8097   8100   8110   8113     1  180.0000771  2.0083200  2
   8097   8100   8110   8113     1  0.0000000  1.2552000  3
   8097   8094   8091   8119     1  0.0000000  0.6508444  3
   8100   8101   8104   8107     1  0.0000000  0.6508444  3
   8100   8110   8113   8116     1  0.0000000  0.6508444  3
   8101   8104   8107   8108     1  180.0000771  0.0000000  2
   8101   8104   8107   8109     1  180.0000771  0.0000000  2
   8101   8100   8110   8113     1  180.0000771  2.0083200  2
   8101   8100   8110   8113     1  0.0000000  1.2552000  3
   8104   8101   8100   8110     1  180.0000771  2.0083200  2
   8104   8101   8100   8110     1  0.0000000  1.2552000  3
   8110   8113   8116   8117     1  180.0000771  0.0000000  2
   8110   8113   8116   8118     1  180.0000771  0.0000000  2
   8120   8123   8126   8129     1  0.0000000  0.6508444  3
   8123   8126   8129   8130     1  180.0000771  2.0083200  2
   8123   8126   8129   8130     1  0.0000000  1.2552000  3
   8123   8126   8129   8139     1  180.0000771  2.0083200  2
   8123   8126   8129   8139     1  0.0000000  1.2552000  3
   8126   8123   8120   8148     1  0.0000000  0.6508444  3
   8126   8129   8130   8133     1  180.0000771  2.0083200  2
   8126   8129   8130   8133     1  0.0000000  1.2552000  3
   8126   8129   8139   8142     1  180.0000771  2.0083200  2
   8126   8129   8139   8142     1  0.0000000  1.2552000  3
   8129   8130   8133   8136     1  0.0000000  0.6508444  3
   8129   8139   8142   8145     1  0.0000000  0.6508444  3
   8130   8129   8139   8142     1  180.0000771  2.0083200  2
   8130   8129   8139   8142     1  0.0000000  1.2552000  3
   8130   8133   8136   8137     1  180.0000771  0.0000000  2
   8130   8133   8136   8138     1  180.0000771  0.0000000  2
   8133   8130   8129   8139     1  180.0000771  2.0083200  2
   8133   8130   8129   8139     1  0.0000000  1.2552000  3
   8139   8142   8145   8146     1  180.0000771  0.0000000  2
   8139   8142   8145   8147     1  180.0000771  0.0000000  2
   8149   8152   8155   8158     1  0.0000000  0.6508444  3
   8152   8155   8158   8159     1  180.0000771  2.0083200  2
   8152   8155   8158   8159     1  0.0000000  1.2552000  3
   8152   8155   8158   8168     1  180.0000771  2.0083200  2
   8152   8155   8158   8168     1  0.0000000  1.2552000  3
   8155   8158   8159   8162     1  180.0000771  2.0083200  2
   8155   8158   8159   8162     1  0.0000000  1.2552000  3
   8155   8158   8168   8171     1  180.0000771  2.0083200  2
   8155   8158   8168   8171     1  0.0000000  1.2552000  3
   8155   8152   8149   8177     1  0.0000000  0.6508444  3
   8158   8159   8162   8165     1  0.0000000  0.6508444  3
   8158   8168   8171   8174     1  0.0000000  0.6508444  3
   8159   8162   8165   8166     1  180.0000771  0.0000000  2
   8159   8162   8165   8167     1  180.0000771  0.0000000  2
   8159   8158   8168   8171     1  180.0000771  2.0083200  2
   8159   8158   8168   8171     1  0.0000000  1.2552000  3
   8162   8159   8158   8168     1  180.0000771  2.0083200  2
   8162   8159   8158   8168     1  0.0000000  1.2552000  3
   8168   8171   8174   8175     1  180.0000771  0.0000000  2
   8168   8171   8174   8176     1  180.0000771  0.0000000  2
   8178   8181   8184   8187     1  0.0000000  0.6508444  3
   8181   8184   8187   8188     1  180.0000771  2.0083200  2
   8181   8184   8187   8188     1  0.0000000  1.2552000  3
   8181   8184   8187   8197     1  180.0000771  2.0083200  2
   8181   8184   8187   8197     1  0.0000000  1.2552000  3
   8184   8181   8178   8206     1  0.0000000  0.6508444  3
   8184   8187   8188   8191     1  180.0000771  2.0083200  2
   8184   8187   8188   8191     1  0.0000000  1.2552000  3
   8184   8187   8197   8200     1  180.0000771  2.0083200  2
   8184   8187   8197   8200     1  0.0000000  1.2552000  3
   8187   8188   8191   8194     1  0.0000000  0.6508444  3
   8187   8197   8200   8203     1  0.0000000  0.6508444  3
   8188   8187   8197   8200     1  180.0000771  2.0083200  2
   8188   8187   8197   8200     1  0.0000000  1.2552000  3
   8188   8191   8194   8195     1  180.0000771  0.0000000  2
   8188   8191   8194   8196     1  180.0000771  0.0000000  2
   8191   8188   8187   8197     1  180.0000771  2.0083200  2
   8191   8188   8187   8197     1  0.0000000  1.2552000  3
   8197   8200   8203   8204     1  180.0000771  0.0000000  2
   8197   8200   8203   8205     1  180.0000771  0.0000000  2
   8207   8210   8213   8216     1  0.0000000  0.6508444  3
   8210   8213   8216   8217     1  180.0000771  2.0083200  2
   8210   8213   8216   8217     1  0.0000000  1.2552000  3
   8210   8213   8216   8226     1  180.0000771  2.0083200  2
   8210   8213   8216   8226     1  0.0000000  1.2552000  3
   8213   8216   8217   8220     1  180.0000771  2.0083200  2
   8213   8216   8217   8220     1  0.0000000  1.2552000  3
   8213   8216   8226   8229     1  180.0000771  2.0083200  2
   8213   8216   8226   8229     1  0.0000000  1.2552000  3
   8213   8210   8207   8235     1  0.0000000  0.6508444  3
   8216   8217   8220   8223     1  0.0000000  0.6508444  3
   8216   8226   8229   8232     1  0.0000000  0.6508444  3
   8217   8220   8223   8224     1  180.0000771  0.0000000  2
   8217   8220   8223   8225     1  180.0000771  0.0000000  2
   8217   8216   8226   8229     1  180.0000771  2.0083200  2
   8217   8216   8226   8229     1  0.0000000  1.2552000  3
   8220   8217   8216   8226     1  180.0000771  2.0083200  2
   8220   8217   8216   8226     1  0.0000000  1.2552000  3
   8226   8229   8232   8233     1  180.0000771  0.0000000  2
   8226   8229   8232   8234     1  180.0000771  0.0000000  2
   8236   8239   8242   8245     1  0.0000000  0.6508444  3
   8239   8242   8245   8246     1  180.0000771  2.0083200  2
   8239   8242   8245   8246     1  0.0000000  1.2552000  3
   8239   8242   8245   8255     1  180.0000771  2.0083200  2
   8239   8242   8245   8255     1  0.0000000  1.2552000  3
   8242   8239   8236   8264     1  0.0000000  0.6508444  3
   8242   8245   8246   8249     1  180.0000771  2.0083200  2
   8242   8245   8246   8249     1  0.0000000  1.2552000  3
   8242   8245   8255   8258     1  180.0000771  2.0083200  2
   8242   8245   8255   8258     1  0.0000000  1.2552000  3
   8245   8246   8249   8252     1  0.0000000  0.6508444  3
   8245   8255   8258   8261     1  0.0000000  0.6508444  3
   8246   8245   8255   8258     1  180.0000771  2.0083200  2
   8246   8245   8255   8258     1  0.0000000  1.2552000  3
   8246   8249   8252   8253     1  180.0000771  0.0000000  2
   8246   8249   8252   8254     1  180.0000771  0.0000000  2
   8249   8246   8245   8255     1  180.0000771  2.0083200  2
   8249   8246   8245   8255     1  0.0000000  1.2552000  3
   8255   8258   8261   8262     1  180.0000771  0.0000000  2
   8255   8258   8261   8263     1  180.0000771  0.0000000  2
   8265   8268   8271   8274     1  0.0000000  0.6508444  3
   8268   8271   8274   8275     1  180.0000771  2.0083200  2
   8268   8271   8274   8275     1  0.0000000  1.2552000  3
   8268   8271   8274   8284     1  180.0000771  2.0083200  2
   8268   8271   8274   8284     1  0.0000000  1.2552000  3
   8271   8274   8275   8278     1  180.0000771  2.0083200  2
   8271   8274   8275   8278     1  0.0000000  1.2552000  3
   8271   8274   8284   8287     1  180.0000771  2.0083200  2
   8271   8274   8284   8287     1  0.0000000  1.2552000  3
   8271   8268   8265   8293     1  0.0000000  0.6508444  3
   8274   8275   8278   8281     1  0.0000000  0.6508444  3
   8274   8284   8287   8290     1  0.0000000  0.6508444  3
   8275   8278   8281   8282     1  180.0000771  0.0000000  2
   8275   8278   8281   8283     1  180.0000771  0.0000000  2
   8275   8274   8284   8287     1  180.0000771  2.0083200  2
   8275   8274   8284   8287     1  0.0000000  1.2552000  3
   8278   8275   8274   8284     1  180.0000771  2.0083200  2
   8278   8275   8274   8284     1  0.0000000  1.2552000  3
   8284   8287   8290   8291     1  180.0000771  0.0000000  2
   8284   8287   8290   8292     1  180.0000771  0.0000000  2
   8294   8297   8300   8303     1  0.0000000  0.6508444  3
   8297   8300   8303   8304     1  180.0000771  2.0083200  2
   8297   8300   8303   8304     1  0.0000000  1.2552000  3
   8297   8300   8303   8313     1  180.0000771  2.0083200  2
   8297   8300   8303   8313     1  0.0000000  1.2552000  3
   8300   8297   8294   8322     1  0.0000000  0.6508444  3
   8300   8303   8304   8307     1  180.0000771  2.0083200  2
   8300   8303   8304   8307     1  0.0000000  1.2552000  3
   8300   8303   8313   8316     1  180.0000771  2.0083200  2
   8300   8303   8313   8316     1  0.0000000  1.2552000  3
   8303   8304   8307   8310     1  0.0000000  0.6508444  3
   8303   8313   8316   8319     1  0.0000000  0.6508444  3
   8304   8303   8313   8316     1  180.0000771  2.0083200  2
   8304   8303   8313   8316     1  0.0000000  1.2552000  3
   8304   8307   8310   8311     1  180.0000771  0.0000000  2
   8304   8307   8310   8312     1  180.0000771  0.0000000  2
   8307   8304   8303   8313     1  180.0000771  2.0083200  2
   8307   8304   8303   8313     1  0.0000000  1.2552000  3
   8313   8316   8319   8320     1  180.0000771  0.0000000  2
   8313   8316   8319   8321     1  180.0000771  0.0000000  2
   8323   8326   8329   8332     1  0.0000000  0.6508444  3
   8326   8329   8332   8333     1  180.0000771  2.0083200  2
   8326   8329   8332   8333     1  0.0000000  1.2552000  3
   8326   8329   8332   8342     1  180.0000771  2.0083200  2
   8326   8329   8332   8342     1  0.0000000  1.2552000  3
   8329   8332   8333   8336     1  180.0000771  2.0083200  2
   8329   8332   8333   8336     1  0.0000000  1.2552000  3
   8329   8332   8342   8345     1  180.0000771  2.0083200  2
   8329   8332   8342   8345     1  0.0000000  1.2552000  3
   8329   8326   8323   8351     1  0.0000000  0.6508444  3
   8332   8333   8336   8339     1  0.0000000  0.6508444  3
   8332   8342   8345   8348     1  0.0000000  0.6508444  3
   8333   8336   8339   8340     1  180.0000771  0.0000000  2
   8333   8336   8339   8341     1  180.0000771  0.0000000  2
   8333   8332   8342   8345     1  180.0000771  2.0083200  2
   8333   8332   8342   8345     1  0.0000000  1.2552000  3
   8336   8333   8332   8342     1  180.0000771  2.0083200  2
   8336   8333   8332   8342     1  0.0000000  1.2552000  3
   8342   8345   8348   8349     1  180.0000771  0.0000000  2
   8342   8345   8348   8350     1  180.0000771  0.0000000  2
   8352   8355   8358   8361     1  0.0000000  0.6508444  3
   8355   8358   8361   8362     1  180.0000771  2.0083200  2
   8355   8358   8361   8362     1  0.0000000  1.2552000  3
   8355   8358   8361   8371     1  180.0000771  2.0083200  2
   8355   8358   8361   8371     1  0.0000000  1.2552000  3
   8358   8355   8352   8380     1  0.0000000  0.6508444  3
   8358   8361   8362   8365     1  180.0000771  2.0083200  2
   8358   8361   8362   8365     1  0.0000000  1.2552000  3
   8358   8361   8371   8374     1  180.0000771  2.0083200  2
   8358   8361   8371   8374     1  0.0000000  1.2552000  3
   8361   8362   8365   8368     1  0.0000000  0.6508444  3
   8361   8371   8374   8377     1  0.0000000  0.6508444  3
   8362   8361   8371   8374     1  180.0000771  2.0083200  2
   8362   8361   8371   8374     1  0.0000000  1.2552000  3
   8362   8365   8368   8369     1  180.0000771  0.0000000  2
   8362   8365   8368   8370     1  180.0000771  0.0000000  2
   8365   8362   8361   8371     1  180.0000771  2.0083200  2
   8365   8362   8361   8371     1  0.0000000  1.2552000  3
   8371   8374   8377   8378     1  180.0000771  0.0000000  2
   8371   8374   8377   8379     1  180.0000771  0.0000000  2
   8381   8384   8387   8390     1  0.0000000  0.6508444  3
   8384   8387   8390   8391     1  180.0000771  2.0083200  2
   8384   8387   8390   8391     1  0.0000000  1.2552000  3
   8384   8387   8390   8400     1  180.0000771  2.0083200  2
   8384   8387   8390   8400     1  0.0000000  1.2552000  3
   8387   8390   8391   8394     1  180.0000771  2.0083200  2
   8387   8390   8391   8394     1  0.0000000  1.2552000  3
   8387   8390   8400   8403     1  180.0000771  2.0083200  2
   8387   8390   8400   8403     1  0.0000000  1.2552000  3
   8387   8384   8381   8409     1  0.0000000  0.6508444  3
   8390   8391   8394   8397     1  0.0000000  0.6508444  3
   8390   8400   8403   8406     1  0.0000000  0.6508444  3
   8391   8394   8397   8398     1  180.0000771  0.0000000  2
   8391   8394   8397   8399     1  180.0000771  0.0000000  2
   8391   8390   8400   8403     1  180.0000771  2.0083200  2
   8391   8390   8400   8403     1  0.0000000  1.2552000  3
   8394   8391   8390   8400     1  180.0000771  2.0083200  2
   8394   8391   8390   8400     1  0.0000000  1.2552000  3
   8400   8403   8406   8407     1  180.0000771  0.0000000  2
   8400   8403   8406   8408     1  180.0000771  0.0000000  2
   8410   8413   8416   8419     1  0.0000000  0.6508444  3
   8413   8416   8419   8420     1  180.0000771  2.0083200  2
   8413   8416   8419   8420     1  0.0000000  1.2552000  3
   8413   8416   8419   8429     1  180.0000771  2.0083200  2
   8413   8416   8419   8429     1  0.0000000  1.2552000  3
   8416   8413   8410   8438     1  0.0000000  0.6508444  3
   8416   8419   8420   8423     1  180.0000771  2.0083200  2
   8416   8419   8420   8423     1  0.0000000  1.2552000  3
   8416   8419   8429   8432     1  180.0000771  2.0083200  2
   8416   8419   8429   8432     1  0.0000000  1.2552000  3
   8419   8420   8423   8426     1  0.0000000  0.6508444  3
   8419   8429   8432   8435     1  0.0000000  0.6508444  3
   8420   8419   8429   8432     1  180.0000771  2.0083200  2
   8420   8419   8429   8432     1  0.0000000  1.2552000  3
   8420   8423   8426   8427     1  180.0000771  0.0000000  2
   8420   8423   8426   8428     1  180.0000771  0.0000000  2
   8423   8420   8419   8429     1  180.0000771  2.0083200  2
   8423   8420   8419   8429     1  0.0000000  1.2552000  3
   8429   8432   8435   8436     1  180.0000771  0.0000000  2
   8429   8432   8435   8437     1  180.0000771  0.0000000  2
   8439   8442   8445   8448     1  0.0000000  0.6508444  3
   8442   8445   8448   8449     1  180.0000771  2.0083200  2
   8442   8445   8448   8449     1  0.0000000  1.2552000  3
   8442   8445   8448   8458     1  180.0000771  2.0083200  2
   8442   8445   8448   8458     1  0.0000000  1.2552000  3
   8445   8448   8449   8452     1  180.0000771  2.0083200  2
   8445   8448   8449   8452     1  0.0000000  1.2552000  3
   8445   8448   8458   8461     1  180.0000771  2.0083200  2
   8445   8448   8458   8461     1  0.0000000  1.2552000  3
   8445   8442   8439   8467     1  0.0000000  0.6508444  3
   8448   8449   8452   8455     1  0.0000000  0.6508444  3
   8448   8458   8461   8464     1  0.0000000  0.6508444  3
   8449   8452   8455   8456     1  180.0000771  0.0000000  2
   8449   8452   8455   8457     1  180.0000771  0.0000000  2
   8449   8448   8458   8461     1  180.0000771  2.0083200  2
   8449   8448   8458   8461     1  0.0000000  1.2552000  3
   8452   8449   8448   8458     1  180.0000771  2.0083200  2
   8452   8449   8448   8458     1  0.0000000  1.2552000  3
   8458   8461   8464   8465     1  180.0000771  0.0000000  2
   8458   8461   8464   8466     1  180.0000771  0.0000000  2
   8468   8471   8474   8477     1  0.0000000  0.6508444  3
   8471   8474   8477   8478     1  180.0000771  2.0083200  2
   8471   8474   8477   8478     1  0.0000000  1.2552000  3
   8471   8474   8477   8487     1  180.0000771  2.0083200  2
   8471   8474   8477   8487     1  0.0000000  1.2552000  3
   8474   8471   8468   8496     1  0.0000000  0.6508444  3
   8474   8477   8478   8481     1  180.0000771  2.0083200  2
   8474   8477   8478   8481     1  0.0000000  1.2552000  3
   8474   8477   8487   8490     1  180.0000771  2.0083200  2
   8474   8477   8487   8490     1  0.0000000  1.2552000  3
   8477   8478   8481   8484     1  0.0000000  0.6508444  3
   8477   8487   8490   8493     1  0.0000000  0.6508444  3
   8478   8477   8487   8490     1  180.0000771  2.0083200  2
   8478   8477   8487   8490     1  0.0000000  1.2552000  3
   8478   8481   8484   8485     1  180.0000771  0.0000000  2
   8478   8481   8484   8486     1  180.0000771  0.0000000  2
   8481   8478   8477   8487     1  180.0000771  2.0083200  2
   8481   8478   8477   8487     1  0.0000000  1.2552000  3
   8487   8490   8493   8494     1  180.0000771  0.0000000  2
   8487   8490   8493   8495     1  180.0000771  0.0000000  2
   8497   8500   8503   8506     1  0.0000000  0.6508444  3
   8500   8503   8506   8507     1  180.0000771  2.0083200  2
   8500   8503   8506   8507     1  0.0000000  1.2552000  3
   8500   8503   8506   8516     1  180.0000771  2.0083200  2
   8500   8503   8506   8516     1  0.0000000  1.2552000  3
   8503   8506   8507   8510     1  180.0000771  2.0083200  2
   8503   8506   8507   8510     1  0.0000000  1.2552000  3
   8503   8506   8516   8519     1  180.0000771  2.0083200  2
   8503   8506   8516   8519     1  0.0000000  1.2552000  3
   8503   8500   8497   8525     1  0.0000000  0.6508444  3
   8506   8507   8510   8513     1  0.0000000  0.6508444  3
   8506   8516   8519   8522     1  0.0000000  0.6508444  3
   8507   8510   8513   8514     1  180.0000771  0.0000000  2
   8507   8510   8513   8515     1  180.0000771  0.0000000  2
   8507   8506   8516   8519     1  180.0000771  2.0083200  2
   8507   8506   8516   8519     1  0.0000000  1.2552000  3
   8510   8507   8506   8516     1  180.0000771  2.0083200  2
   8510   8507   8506   8516     1  0.0000000  1.2552000  3
   8516   8519   8522   8523     1  180.0000771  0.0000000  2
   8516   8519   8522   8524     1  180.0000771  0.0000000  2
   8526   8529   8532   8535     1  0.0000000  0.6508444  3
   8529   8532   8535   8536     1  180.0000771  2.0083200  2
   8529   8532   8535   8536     1  0.0000000  1.2552000  3
   8529   8532   8535   8545     1  180.0000771  2.0083200  2
   8529   8532   8535   8545     1  0.0000000  1.2552000  3
   8532   8529   8526   8554     1  0.0000000  0.6508444  3
   8532   8535   8536   8539     1  180.0000771  2.0083200  2
   8532   8535   8536   8539     1  0.0000000  1.2552000  3
   8532   8535   8545   8548     1  180.0000771  2.0083200  2
   8532   8535   8545   8548     1  0.0000000  1.2552000  3
   8535   8536   8539   8542     1  0.0000000  0.6508444  3
   8535   8545   8548   8551     1  0.0000000  0.6508444  3
   8536   8535   8545   8548     1  180.0000771  2.0083200  2
   8536   8535   8545   8548     1  0.0000000  1.2552000  3
   8536   8539   8542   8543     1  180.0000771  0.0000000  2
   8536   8539   8542   8544     1  180.0000771  0.0000000  2
   8539   8536   8535   8545     1  180.0000771  2.0083200  2
   8539   8536   8535   8545     1  0.0000000  1.2552000  3
   8545   8548   8551   8552     1  180.0000771  0.0000000  2
   8545   8548   8551   8553     1  180.0000771  0.0000000  2
   8555   8558   8561   8564     1  0.0000000  0.6508444  3
   8558   8561   8564   8565     1  180.0000771  2.0083200  2
   8558   8561   8564   8565     1  0.0000000  1.2552000  3
   8558   8561   8564   8574     1  180.0000771  2.0083200  2
   8558   8561   8564   8574     1  0.0000000  1.2552000  3
   8561   8564   8565   8568     1  180.0000771  2.0083200  2
   8561   8564   8565   8568     1  0.0000000  1.2552000  3
   8561   8564   8574   8577     1  180.0000771  2.0083200  2
   8561   8564   8574   8577     1  0.0000000  1.2552000  3
   8561   8558   8555   8583     1  0.0000000  0.6508444  3
   8564   8565   8568   8571     1  0.0000000  0.6508444  3
   8564   8574   8577   8580     1  0.0000000  0.6508444  3
   8565   8568   8571   8572     1  180.0000771  0.0000000  2
   8565   8568   8571   8573     1  180.0000771  0.0000000  2
   8565   8564   8574   8577     1  180.0000771  2.0083200  2
   8565   8564   8574   8577     1  0.0000000  1.2552000  3
   8568   8565   8564   8574     1  180.0000771  2.0083200  2
   8568   8565   8564   8574     1  0.0000000  1.2552000  3
   8574   8577   8580   8581     1  180.0000771  0.0000000  2
   8574   8577   8580   8582     1  180.0000771  0.0000000  2
   8584   8587   8590   8593     1  0.0000000  0.6508444  3
   8587   8590   8593   8594     1  180.0000771  2.0083200  2
   8587   8590   8593   8594     1  0.0000000  1.2552000  3
   8587   8590   8593   8603     1  180.0000771  2.0083200  2
   8587   8590   8593   8603     1  0.0000000  1.2552000  3
   8590   8587   8584   8612     1  0.0000000  0.6508444  3
   8590   8593   8594   8597     1  180.0000771  2.0083200  2
   8590   8593   8594   8597     1  0.0000000  1.2552000  3
   8590   8593   8603   8606     1  180.0000771  2.0083200  2
   8590   8593   8603   8606     1  0.0000000  1.2552000  3
   8593   8594   8597   8600     1  0.0000000  0.6508444  3
   8593   8603   8606   8609     1  0.0000000  0.6508444  3
   8594   8593   8603   8606     1  180.0000771  2.0083200  2
   8594   8593   8603   8606     1  0.0000000  1.2552000  3
   8594   8597   8600   8601     1  180.0000771  0.0000000  2
   8594   8597   8600   8602     1  180.0000771  0.0000000  2
   8597   8594   8593   8603     1  180.0000771  2.0083200  2
   8597   8594   8593   8603     1  0.0000000  1.2552000  3
   8603   8606   8609   8610     1  180.0000771  0.0000000  2
   8603   8606   8609   8611     1  180.0000771  0.0000000  2
   8613   8616   8619   8622     1  0.0000000  0.6508444  3
   8616   8619   8622   8623     1  180.0000771  2.0083200  2
   8616   8619   8622   8623     1  0.0000000  1.2552000  3
   8616   8619   8622   8632     1  180.0000771  2.0083200  2
   8616   8619   8622   8632     1  0.0000000  1.2552000  3
   8619   8622   8623   8626     1  180.0000771  2.0083200  2
   8619   8622   8623   8626     1  0.0000000  1.2552000  3
   8619   8622   8632   8635     1  180.0000771  2.0083200  2
   8619   8622   8632   8635     1  0.0000000  1.2552000  3
   8619   8616   8613   8641     1  0.0000000  0.6508444  3
   8622   8623   8626   8629     1  0.0000000  0.6508444  3
   8622   8632   8635   8638     1  0.0000000  0.6508444  3
   8623   8626   8629   8630     1  180.0000771  0.0000000  2
   8623   8626   8629   8631     1  180.0000771  0.0000000  2
   8623   8622   8632   8635     1  180.0000771  2.0083200  2
   8623   8622   8632   8635     1  0.0000000  1.2552000  3
   8626   8623   8622   8632     1  180.0000771  2.0083200  2
   8626   8623   8622   8632     1  0.0000000  1.2552000  3
   8632   8635   8638   8639     1  180.0000771  0.0000000  2
   8632   8635   8638   8640     1  180.0000771  0.0000000  2
   8642   8645   8648   8651     1  0.0000000  0.6508444  3
   8645   8648   8651   8652     1  180.0000771  2.0083200  2
   8645   8648   8651   8652     1  0.0000000  1.2552000  3
   8645   8648   8651   8661     1  180.0000771  2.0083200  2
   8645   8648   8651   8661     1  0.0000000  1.2552000  3
   8648   8645   8642   8670     1  0.0000000  0.6508444  3
   8648   8651   8652   8655     1  180.0000771  2.0083200  2
   8648   8651   8652   8655     1  0.0000000  1.2552000  3
   8648   8651   8661   8664     1  180.0000771  2.0083200  2
   8648   8651   8661   8664     1  0.0000000  1.2552000  3
   8651   8652   8655   8658     1  0.0000000  0.6508444  3
   8651   8661   8664   8667     1  0.0000000  0.6508444  3
   8652   8651   8661   8664     1  180.0000771  2.0083200  2
   8652   8651   8661   8664     1  0.0000000  1.2552000  3
   8652   8655   8658   8659     1  180.0000771  0.0000000  2
   8652   8655   8658   8660     1  180.0000771  0.0000000  2
   8655   8652   8651   8661     1  180.0000771  2.0083200  2
   8655   8652   8651   8661     1  0.0000000  1.2552000  3
   8661   8664   8667   8668     1  180.0000771  0.0000000  2
   8661   8664   8667   8669     1  180.0000771  0.0000000  2
   8671   8674   8677   8680     1  0.0000000  0.6508444  3
   8674   8677   8680   8681     1  180.0000771  2.0083200  2
   8674   8677   8680   8681     1  0.0000000  1.2552000  3
   8674   8677   8680   8690     1  180.0000771  2.0083200  2
   8674   8677   8680   8690     1  0.0000000  1.2552000  3
   8677   8680   8681   8684     1  180.0000771  2.0083200  2
   8677   8680   8681   8684     1  0.0000000  1.2552000  3
   8677   8680   8690   8693     1  180.0000771  2.0083200  2
   8677   8680   8690   8693     1  0.0000000  1.2552000  3
   8677   8674   8671   8699     1  0.0000000  0.6508444  3
   8680   8681   8684   8687     1  0.0000000  0.6508444  3
   8680   8690   8693   8696     1  0.0000000  0.6508444  3
   8681   8684   8687   8688     1  180.0000771  0.0000000  2
   8681   8684   8687   8689     1  180.0000771  0.0000000  2
   8681   8680   8690   8693     1  180.0000771  2.0083200  2
   8681   8680   8690   8693     1  0.0000000  1.2552000  3
   8684   8681   8680   8690     1  180.0000771  2.0083200  2
   8684   8681   8680   8690     1  0.0000000  1.2552000  3
   8690   8693   8696   8697     1  180.0000771  0.0000000  2
   8690   8693   8696   8698     1  180.0000771  0.0000000  2
   8700   8703   8706   8709     1  0.0000000  0.6508444  3
   8703   8706   8709   8710     1  180.0000771  2.0083200  2
   8703   8706   8709   8710     1  0.0000000  1.2552000  3
   8703   8706   8709   8719     1  180.0000771  2.0083200  2
   8703   8706   8709   8719     1  0.0000000  1.2552000  3
   8706   8703   8700   8728     1  0.0000000  0.6508444  3
   8706   8709   8710   8713     1  180.0000771  2.0083200  2
   8706   8709   8710   8713     1  0.0000000  1.2552000  3
   8706   8709   8719   8722     1  180.0000771  2.0083200  2
   8706   8709   8719   8722     1  0.0000000  1.2552000  3
   8709   8710   8713   8716     1  0.0000000  0.6508444  3
   8709   8719   8722   8725     1  0.0000000  0.6508444  3
   8710   8709   8719   8722     1  180.0000771  2.0083200  2
   8710   8709   8719   8722     1  0.0000000  1.2552000  3
   8710   8713   8716   8717     1  180.0000771  0.0000000  2
   8710   8713   8716   8718     1  180.0000771  0.0000000  2
   8713   8710   8709   8719     1  180.0000771  2.0083200  2
   8713   8710   8709   8719     1  0.0000000  1.2552000  3
   8719   8722   8725   8726     1  180.0000771  0.0000000  2
   8719   8722   8725   8727     1  180.0000771  0.0000000  2
   8729   8732   8735   8738     1  0.0000000  0.6508444  3
   8732   8735   8738   8739     1  180.0000771  2.0083200  2
   8732   8735   8738   8739     1  0.0000000  1.2552000  3
   8732   8735   8738   8748     1  180.0000771  2.0083200  2
   8732   8735   8738   8748     1  0.0000000  1.2552000  3
   8735   8738   8739   8742     1  180.0000771  2.0083200  2
   8735   8738   8739   8742     1  0.0000000  1.2552000  3
   8735   8738   8748   8751     1  180.0000771  2.0083200  2
   8735   8738   8748   8751     1  0.0000000  1.2552000  3
   8735   8732   8729   8757     1  0.0000000  0.6508444  3
   8738   8739   8742   8745     1  0.0000000  0.6508444  3
   8738   8748   8751   8754     1  0.0000000  0.6508444  3
   8739   8742   8745   8746     1  180.0000771  0.0000000  2
   8739   8742   8745   8747     1  180.0000771  0.0000000  2
   8739   8738   8748   8751     1  180.0000771  2.0083200  2
   8739   8738   8748   8751     1  0.0000000  1.2552000  3
   8742   8739   8738   8748     1  180.0000771  2.0083200  2
   8742   8739   8738   8748     1  0.0000000  1.2552000  3
   8748   8751   8754   8755     1  180.0000771  0.0000000  2
   8748   8751   8754   8756     1  180.0000771  0.0000000  2
   8758   8761   8764   8767     1  0.0000000  0.6508444  3
   8761   8764   8767   8768     1  180.0000771  2.0083200  2
   8761   8764   8767   8768     1  0.0000000  1.2552000  3
   8761   8764   8767   8777     1  180.0000771  2.0083200  2
   8761   8764   8767   8777     1  0.0000000  1.2552000  3
   8764   8761   8758   8786     1  0.0000000  0.6508444  3
   8764   8767   8768   8771     1  180.0000771  2.0083200  2
   8764   8767   8768   8771     1  0.0000000  1.2552000  3
   8764   8767   8777   8780     1  180.0000771  2.0083200  2
   8764   8767   8777   8780     1  0.0000000  1.2552000  3
   8767   8768   8771   8774     1  0.0000000  0.6508444  3
   8767   8777   8780   8783     1  0.0000000  0.6508444  3
   8768   8767   8777   8780     1  180.0000771  2.0083200  2
   8768   8767   8777   8780     1  0.0000000  1.2552000  3
   8768   8771   8774   8775     1  180.0000771  0.0000000  2
   8768   8771   8774   8776     1  180.0000771  0.0000000  2
   8771   8768   8767   8777     1  180.0000771  2.0083200  2
   8771   8768   8767   8777     1  0.0000000  1.2552000  3
   8777   8780   8783   8784     1  180.0000771  0.0000000  2
   8777   8780   8783   8785     1  180.0000771  0.0000000  2
   8787   8790   8793   8796     1  0.0000000  0.6508444  3
   8790   8793   8796   8797     1  180.0000771  2.0083200  2
   8790   8793   8796   8797     1  0.0000000  1.2552000  3
   8790   8793   8796   8806     1  180.0000771  2.0083200  2
   8790   8793   8796   8806     1  0.0000000  1.2552000  3
   8793   8796   8797   8800     1  180.0000771  2.0083200  2
   8793   8796   8797   8800     1  0.0000000  1.2552000  3
   8793   8796   8806   8809     1  180.0000771  2.0083200  2
   8793   8796   8806   8809     1  0.0000000  1.2552000  3
   8793   8790   8787   8815     1  0.0000000  0.6508444  3
   8796   8797   8800   8803     1  0.0000000  0.6508444  3
   8796   8806   8809   8812     1  0.0000000  0.6508444  3
   8797   8800   8803   8804     1  180.0000771  0.0000000  2
   8797   8800   8803   8805     1  180.0000771  0.0000000  2
   8797   8796   8806   8809     1  180.0000771  2.0083200  2
   8797   8796   8806   8809     1  0.0000000  1.2552000  3
   8800   8797   8796   8806     1  180.0000771  2.0083200  2
   8800   8797   8796   8806     1  0.0000000  1.2552000  3
   8806   8809   8812   8813     1  180.0000771  0.0000000  2
   8806   8809   8812   8814     1  180.0000771  0.0000000  2
   8816   8819   8822   8825     1  0.0000000  0.6508444  3
   8819   8822   8825   8826     1  180.0000771  2.0083200  2
   8819   8822   8825   8826     1  0.0000000  1.2552000  3
   8819   8822   8825   8835     1  180.0000771  2.0083200  2
   8819   8822   8825   8835     1  0.0000000  1.2552000  3
   8822   8819   8816   8844     1  0.0000000  0.6508444  3
   8822   8825   8826   8829     1  180.0000771  2.0083200  2
   8822   8825   8826   8829     1  0.0000000  1.2552000  3
   8822   8825   8835   8838     1  180.0000771  2.0083200  2
   8822   8825   8835   8838     1  0.0000000  1.2552000  3
   8825   8826   8829   8832     1  0.0000000  0.6508444  3
   8825   8835   8838   8841     1  0.0000000  0.6508444  3
   8826   8825   8835   8838     1  180.0000771  2.0083200  2
   8826   8825   8835   8838     1  0.0000000  1.2552000  3
   8826   8829   8832   8833     1  180.0000771  0.0000000  2
   8826   8829   8832   8834     1  180.0000771  0.0000000  2
   8829   8826   8825   8835     1  180.0000771  2.0083200  2
   8829   8826   8825   8835     1  0.0000000  1.2552000  3
   8835   8838   8841   8842     1  180.0000771  0.0000000  2
   8835   8838   8841   8843     1  180.0000771  0.0000000  2
   8845   8848   8851   8854     1  0.0000000  0.6508444  3
   8848   8851   8854   8855     1  180.0000771  2.0083200  2
   8848   8851   8854   8855     1  0.0000000  1.2552000  3
   8848   8851   8854   8864     1  180.0000771  2.0083200  2
   8848   8851   8854   8864     1  0.0000000  1.2552000  3
   8851   8854   8855   8858     1  180.0000771  2.0083200  2
   8851   8854   8855   8858     1  0.0000000  1.2552000  3
   8851   8854   8864   8867     1  180.0000771  2.0083200  2
   8851   8854   8864   8867     1  0.0000000  1.2552000  3
   8851   8848   8845   8873     1  0.0000000  0.6508444  3
   8854   8855   8858   8861     1  0.0000000  0.6508444  3
   8854   8864   8867   8870     1  0.0000000  0.6508444  3
   8855   8858   8861   8862     1  180.0000771  0.0000000  2
   8855   8858   8861   8863     1  180.0000771  0.0000000  2
   8855   8854   8864   8867     1  180.0000771  2.0083200  2
   8855   8854   8864   8867     1  0.0000000  1.2552000  3
   8858   8855   8854   8864     1  180.0000771  2.0083200  2
   8858   8855   8854   8864     1  0.0000000  1.2552000  3
   8864   8867   8870   8871     1  180.0000771  0.0000000  2
   8864   8867   8870   8872     1  180.0000771  0.0000000  2
   8874   8877   8880   8883     1  0.0000000  0.6508444  3
   8877   8880   8883   8884     1  180.0000771  2.0083200  2
   8877   8880   8883   8884     1  0.0000000  1.2552000  3
   8877   8880   8883   8893     1  180.0000771  2.0083200  2
   8877   8880   8883   8893     1  0.0000000  1.2552000  3
   8880   8877   8874   8902     1  0.0000000  0.6508444  3
   8880   8883   8884   8887     1  180.0000771  2.0083200  2
   8880   8883   8884   8887     1  0.0000000  1.2552000  3
   8880   8883   8893   8896     1  180.0000771  2.0083200  2
   8880   8883   8893   8896     1  0.0000000  1.2552000  3
   8883   8884   8887   8890     1  0.0000000  0.6508444  3
   8883   8893   8896   8899     1  0.0000000  0.6508444  3
   8884   8883   8893   8896     1  180.0000771  2.0083200  2
   8884   8883   8893   8896     1  0.0000000  1.2552000  3
   8884   8887   8890   8891     1  180.0000771  0.0000000  2
   8884   8887   8890   8892     1  180.0000771  0.0000000  2
   8887   8884   8883   8893     1  180.0000771  2.0083200  2
   8887   8884   8883   8893     1  0.0000000  1.2552000  3
   8893   8896   8899   8900     1  180.0000771  0.0000000  2
   8893   8896   8899   8901     1  180.0000771  0.0000000  2
   8903   8906   8909   8912     1  0.0000000  0.6508444  3
   8906   8909   8912   8913     1  180.0000771  2.0083200  2
   8906   8909   8912   8913     1  0.0000000  1.2552000  3
   8906   8909   8912   8922     1  180.0000771  2.0083200  2
   8906   8909   8912   8922     1  0.0000000  1.2552000  3
   8909   8912   8913   8916     1  180.0000771  2.0083200  2
   8909   8912   8913   8916     1  0.0000000  1.2552000  3
   8909   8912   8922   8925     1  180.0000771  2.0083200  2
   8909   8912   8922   8925     1  0.0000000  1.2552000  3
   8909   8906   8903   8931     1  0.0000000  0.6508444  3
   8912   8913   8916   8919     1  0.0000000  0.6508444  3
   8912   8922   8925   8928     1  0.0000000  0.6508444  3
   8913   8916   8919   8920     1  180.0000771  0.0000000  2
   8913   8916   8919   8921     1  180.0000771  0.0000000  2
   8913   8912   8922   8925     1  180.0000771  2.0083200  2
   8913   8912   8922   8925     1  0.0000000  1.2552000  3
   8916   8913   8912   8922     1  180.0000771  2.0083200  2
   8916   8913   8912   8922     1  0.0000000  1.2552000  3
   8922   8925   8928   8929     1  180.0000771  0.0000000  2
   8922   8925   8928   8930     1  180.0000771  0.0000000  2
   8932   8935   8938   8941     1  0.0000000  0.6508444  3
   8935   8938   8941   8942     1  180.0000771  2.0083200  2
   8935   8938   8941   8942     1  0.0000000  1.2552000  3
   8935   8938   8941   8951     1  180.0000771  2.0083200  2
   8935   8938   8941   8951     1  0.0000000  1.2552000  3
   8938   8935   8932   8960     1  0.0000000  0.6508444  3
   8938   8941   8942   8945     1  180.0000771  2.0083200  2
   8938   8941   8942   8945     1  0.0000000  1.2552000  3
   8938   8941   8951   8954     1  180.0000771  2.0083200  2
   8938   8941   8951   8954     1  0.0000000  1.2552000  3
   8941   8942   8945   8948     1  0.0000000  0.6508444  3
   8941   8951   8954   8957     1  0.0000000  0.6508444  3
   8942   8941   8951   8954     1  180.0000771  2.0083200  2
   8942   8941   8951   8954     1  0.0000000  1.2552000  3
   8942   8945   8948   8949     1  180.0000771  0.0000000  2
   8942   8945   8948   8950     1  180.0000771  0.0000000  2
   8945   8942   8941   8951     1  180.0000771  2.0083200  2
   8945   8942   8941   8951     1  0.0000000  1.2552000  3
   8951   8954   8957   8958     1  180.0000771  0.0000000  2
   8951   8954   8957   8959     1  180.0000771  0.0000000  2
   8961   8964   8967   8970     1  0.0000000  0.6508444  3
   8964   8967   8970   8971     1  180.0000771  2.0083200  2
   8964   8967   8970   8971     1  0.0000000  1.2552000  3
   8964   8967   8970   8980     1  180.0000771  2.0083200  2
   8964   8967   8970   8980     1  0.0000000  1.2552000  3
   8967   8970   8971   8974     1  180.0000771  2.0083200  2
   8967   8970   8971   8974     1  0.0000000  1.2552000  3
   8967   8970   8980   8983     1  180.0000771  2.0083200  2
   8967   8970   8980   8983     1  0.0000000  1.2552000  3
   8967   8964   8961   8989     1  0.0000000  0.6508444  3
   8970   8971   8974   8977     1  0.0000000  0.6508444  3
   8970   8980   8983   8986     1  0.0000000  0.6508444  3
   8971   8974   8977   8978     1  180.0000771  0.0000000  2
   8971   8974   8977   8979     1  180.0000771  0.0000000  2
   8971   8970   8980   8983     1  180.0000771  2.0083200  2
   8971   8970   8980   8983     1  0.0000000  1.2552000  3
   8974   8971   8970   8980     1  180.0000771  2.0083200  2
   8974   8971   8970   8980     1  0.0000000  1.2552000  3
   8980   8983   8986   8987     1  180.0000771  0.0000000  2
   8980   8983   8986   8988     1  180.0000771  0.0000000  2
   8990   8993   8996   8999     1  0.0000000  0.6508444  3
   8993   8996   8999   9000     1  180.0000771  2.0083200  2
   8993   8996   8999   9000     1  0.0000000  1.2552000  3
   8993   8996   8999   9009     1  180.0000771  2.0083200  2
   8993   8996   8999   9009     1  0.0000000  1.2552000  3
   8996   8993   8990   9018     1  0.0000000  0.6508444  3
   8996   8999   9000   9003     1  180.0000771  2.0083200  2
   8996   8999   9000   9003     1  0.0000000  1.2552000  3
   8996   8999   9009   9012     1  180.0000771  2.0083200  2
   8996   8999   9009   9012     1  0.0000000  1.2552000  3
   8999   9000   9003   9006     1  0.0000000  0.6508444  3
   8999   9009   9012   9015     1  0.0000000  0.6508444  3
   9000   8999   9009   9012     1  180.0000771  2.0083200  2
   9000   8999   9009   9012     1  0.0000000  1.2552000  3
   9000   9003   9006   9007     1  180.0000771  0.0000000  2
   9000   9003   9006   9008     1  180.0000771  0.0000000  2
   9003   9000   8999   9009     1  180.0000771  2.0083200  2
   9003   9000   8999   9009     1  0.0000000  1.2552000  3
   9009   9012   9015   9016     1  180.0000771  0.0000000  2
   9009   9012   9015   9017     1  180.0000771  0.0000000  2
   9019   9022   9025   9028     1  0.0000000  0.6508444  3
   9022   9025   9028   9029     1  180.0000771  2.0083200  2
   9022   9025   9028   9029     1  0.0000000  1.2552000  3
   9022   9025   9028   9038     1  180.0000771  2.0083200  2
   9022   9025   9028   9038     1  0.0000000  1.2552000  3
   9025   9028   9029   9032     1  180.0000771  2.0083200  2
   9025   9028   9029   9032     1  0.0000000  1.2552000  3
   9025   9028   9038   9041     1  180.0000771  2.0083200  2
   9025   9028   9038   9041     1  0.0000000  1.2552000  3
   9025   9022   9019   9047     1  0.0000000  0.6508444  3
   9028   9029   9032   9035     1  0.0000000  0.6508444  3
   9028   9038   9041   9044     1  0.0000000  0.6508444  3
   9029   9032   9035   9036     1  180.0000771  0.0000000  2
   9029   9032   9035   9037     1  180.0000771  0.0000000  2
   9029   9028   9038   9041     1  180.0000771  2.0083200  2
   9029   9028   9038   9041     1  0.0000000  1.2552000  3
   9032   9029   9028   9038     1  180.0000771  2.0083200  2
   9032   9029   9028   9038     1  0.0000000  1.2552000  3
   9038   9041   9044   9045     1  180.0000771  0.0000000  2
   9038   9041   9044   9046     1  180.0000771  0.0000000  2
   9048   9051   9054   9057     1  0.0000000  0.6508444  3
   9051   9054   9057   9058     1  180.0000771  2.0083200  2
   9051   9054   9057   9058     1  0.0000000  1.2552000  3
   9051   9054   9057   9067     1  180.0000771  2.0083200  2
   9051   9054   9057   9067     1  0.0000000  1.2552000  3
   9054   9051   9048   9076     1  0.0000000  0.6508444  3
   9054   9057   9058   9061     1  180.0000771  2.0083200  2
   9054   9057   9058   9061     1  0.0000000  1.2552000  3
   9054   9057   9067   9070     1  180.0000771  2.0083200  2
   9054   9057   9067   9070     1  0.0000000  1.2552000  3
   9057   9058   9061   9064     1  0.0000000  0.6508444  3
   9057   9067   9070   9073     1  0.0000000  0.6508444  3
   9058   9057   9067   9070     1  180.0000771  2.0083200  2
   9058   9057   9067   9070     1  0.0000000  1.2552000  3
   9058   9061   9064   9065     1  180.0000771  0.0000000  2
   9058   9061   9064   9066     1  180.0000771  0.0000000  2
   9061   9058   9057   9067     1  180.0000771  2.0083200  2
   9061   9058   9057   9067     1  0.0000000  1.2552000  3
   9067   9070   9073   9074     1  180.0000771  0.0000000  2
   9067   9070   9073   9075     1  180.0000771  0.0000000  2
   9077   9080   9083   9086     1  0.0000000  0.6508444  3
   9080   9083   9086   9087     1  180.0000771  2.0083200  2
   9080   9083   9086   9087     1  0.0000000  1.2552000  3
   9080   9083   9086   9096     1  180.0000771  2.0083200  2
   9080   9083   9086   9096     1  0.0000000  1.2552000  3
   9083   9086   9087   9090     1  180.0000771  2.0083200  2
   9083   9086   9087   9090     1  0.0000000  1.2552000  3
   9083   9086   9096   9099     1  180.0000771  2.0083200  2
   9083   9086   9096   9099     1  0.0000000  1.2552000  3
   9083   9080   9077   9105     1  0.0000000  0.6508444  3
   9086   9087   9090   9093     1  0.0000000  0.6508444  3
   9086   9096   9099   9102     1  0.0000000  0.6508444  3
   9087   9090   9093   9094     1  180.0000771  0.0000000  2
   9087   9090   9093   9095     1  180.0000771  0.0000000  2
   9087   9086   9096   9099     1  180.0000771  2.0083200  2
   9087   9086   9096   9099     1  0.0000000  1.2552000  3
   9090   9087   9086   9096     1  180.0000771  2.0083200  2
   9090   9087   9086   9096     1  0.0000000  1.2552000  3
   9096   9099   9102   9103     1  180.0000771  0.0000000  2
   9096   9099   9102   9104     1  180.0000771  0.0000000  2
   9106   9109   9112   9115     1  0.0000000  0.6508444  3
   9109   9112   9115   9116     1  180.0000771  2.0083200  2
   9109   9112   9115   9116     1  0.0000000  1.2552000  3
   9109   9112   9115   9125     1  180.0000771  2.0083200  2
   9109   9112   9115   9125     1  0.0000000  1.2552000  3
   9112   9109   9106   9134     1  0.0000000  0.6508444  3
   9112   9115   9116   9119     1  180.0000771  2.0083200  2
   9112   9115   9116   9119     1  0.0000000  1.2552000  3
   9112   9115   9125   9128     1  180.0000771  2.0083200  2
   9112   9115   9125   9128     1  0.0000000  1.2552000  3
   9115   9116   9119   9122     1  0.0000000  0.6508444  3
   9115   9125   9128   9131     1  0.0000000  0.6508444  3
   9116   9115   9125   9128     1  180.0000771  2.0083200  2
   9116   9115   9125   9128     1  0.0000000  1.2552000  3
   9116   9119   9122   9123     1  180.0000771  0.0000000  2
   9116   9119   9122   9124     1  180.0000771  0.0000000  2
   9119   9116   9115   9125     1  180.0000771  2.0083200  2
   9119   9116   9115   9125     1  0.0000000  1.2552000  3
   9125   9128   9131   9132     1  180.0000771  0.0000000  2
   9125   9128   9131   9133     1  180.0000771  0.0000000  2
   9135   9138   9141   9144     1  0.0000000  0.6508444  3
   9138   9141   9144   9145     1  180.0000771  2.0083200  2
   9138   9141   9144   9145     1  0.0000000  1.2552000  3
   9138   9141   9144   9154     1  180.0000771  2.0083200  2
   9138   9141   9144   9154     1  0.0000000  1.2552000  3
   9141   9144   9145   9148     1  180.0000771  2.0083200  2
   9141   9144   9145   9148     1  0.0000000  1.2552000  3
   9141   9144   9154   9157     1  180.0000771  2.0083200  2
   9141   9144   9154   9157     1  0.0000000  1.2552000  3
   9141   9138   9135   9163     1  0.0000000  0.6508444  3
   9144   9145   9148   9151     1  0.0000000  0.6508444  3
   9144   9154   9157   9160     1  0.0000000  0.6508444  3
   9145   9148   9151   9152     1  180.0000771  0.0000000  2
   9145   9148   9151   9153     1  180.0000771  0.0000000  2
   9145   9144   9154   9157     1  180.0000771  2.0083200  2
   9145   9144   9154   9157     1  0.0000000  1.2552000  3
   9148   9145   9144   9154     1  180.0000771  2.0083200  2
   9148   9145   9144   9154     1  0.0000000  1.2552000  3
   9154   9157   9160   9161     1  180.0000771  0.0000000  2
   9154   9157   9160   9162     1  180.0000771  0.0000000  2
   9164   9167   9170   9173     1  0.0000000  0.6508444  3
   9167   9170   9173   9174     1  180.0000771  2.0083200  2
   9167   9170   9173   9174     1  0.0000000  1.2552000  3
   9167   9170   9173   9183     1  180.0000771  2.0083200  2
   9167   9170   9173   9183     1  0.0000000  1.2552000  3
   9170   9167   9164   9192     1  0.0000000  0.6508444  3
   9170   9173   9174   9177     1  180.0000771  2.0083200  2
   9170   9173   9174   9177     1  0.0000000  1.2552000  3
   9170   9173   9183   9186     1  180.0000771  2.0083200  2
   9170   9173   9183   9186     1  0.0000000  1.2552000  3
   9173   9174   9177   9180     1  0.0000000  0.6508444  3
   9173   9183   9186   9189     1  0.0000000  0.6508444  3
   9174   9173   9183   9186     1  180.0000771  2.0083200  2
   9174   9173   9183   9186     1  0.0000000  1.2552000  3
   9174   9177   9180   9181     1  180.0000771  0.0000000  2
   9174   9177   9180   9182     1  180.0000771  0.0000000  2
   9177   9174   9173   9183     1  180.0000771  2.0083200  2
   9177   9174   9173   9183     1  0.0000000  1.2552000  3
   9183   9186   9189   9190     1  180.0000771  0.0000000  2
   9183   9186   9189   9191     1  180.0000771  0.0000000  2
   9193   9196   9199   9202     1  0.0000000  0.6508444  3
   9196   9199   9202   9203     1  180.0000771  2.0083200  2
   9196   9199   9202   9203     1  0.0000000  1.2552000  3
   9196   9199   9202   9212     1  180.0000771  2.0083200  2
   9196   9199   9202   9212     1  0.0000000  1.2552000  3
   9199   9202   9203   9206     1  180.0000771  2.0083200  2
   9199   9202   9203   9206     1  0.0000000  1.2552000  3
   9199   9202   9212   9215     1  180.0000771  2.0083200  2
   9199   9202   9212   9215     1  0.0000000  1.2552000  3
   9199   9196   9193   9221     1  0.0000000  0.6508444  3
   9202   9203   9206   9209     1  0.0000000  0.6508444  3
   9202   9212   9215   9218     1  0.0000000  0.6508444  3
   9203   9206   9209   9210     1  180.0000771  0.0000000  2
   9203   9206   9209   9211     1  180.0000771  0.0000000  2
   9203   9202   9212   9215     1  180.0000771  2.0083200  2
   9203   9202   9212   9215     1  0.0000000  1.2552000  3
   9206   9203   9202   9212     1  180.0000771  2.0083200  2
   9206   9203   9202   9212     1  0.0000000  1.2552000  3
   9212   9215   9218   9219     1  180.0000771  0.0000000  2
   9212   9215   9218   9220     1  180.0000771  0.0000000  2
   9222   9225   9228   9231     1  0.0000000  0.6508444  3
   9225   9228   9231   9232     1  180.0000771  2.0083200  2
   9225   9228   9231   9232     1  0.0000000  1.2552000  3
   9225   9228   9231   9241     1  180.0000771  2.0083200  2
   9225   9228   9231   9241     1  0.0000000  1.2552000  3
   9228   9225   9222   9250     1  0.0000000  0.6508444  3
   9228   9231   9232   9235     1  180.0000771  2.0083200  2
   9228   9231   9232   9235     1  0.0000000  1.2552000  3
   9228   9231   9241   9244     1  180.0000771  2.0083200  2
   9228   9231   9241   9244     1  0.0000000  1.2552000  3
   9231   9232   9235   9238     1  0.0000000  0.6508444  3
   9231   9241   9244   9247     1  0.0000000  0.6508444  3
   9232   9231   9241   9244     1  180.0000771  2.0083200  2
   9232   9231   9241   9244     1  0.0000000  1.2552000  3
   9232   9235   9238   9239     1  180.0000771  0.0000000  2
   9232   9235   9238   9240     1  180.0000771  0.0000000  2
   9235   9232   9231   9241     1  180.0000771  2.0083200  2
   9235   9232   9231   9241     1  0.0000000  1.2552000  3
   9241   9244   9247   9248     1  180.0000771  0.0000000  2
   9241   9244   9247   9249     1  180.0000771  0.0000000  2
   9251   9254   9257   9260     1  0.0000000  0.6508444  3
   9254   9257   9260   9261     1  180.0000771  2.0083200  2
   9254   9257   9260   9261     1  0.0000000  1.2552000  3
   9254   9257   9260   9270     1  180.0000771  2.0083200  2
   9254   9257   9260   9270     1  0.0000000  1.2552000  3
   9257   9260   9261   9264     1  180.0000771  2.0083200  2
   9257   9260   9261   9264     1  0.0000000  1.2552000  3
   9257   9260   9270   9273     1  180.0000771  2.0083200  2
   9257   9260   9270   9273     1  0.0000000  1.2552000  3
   9257   9254   9251   9279     1  0.0000000  0.6508444  3
   9260   9261   9264   9267     1  0.0000000  0.6508444  3
   9260   9270   9273   9276     1  0.0000000  0.6508444  3
   9261   9264   9267   9268     1  180.0000771  0.0000000  2
   9261   9264   9267   9269     1  180.0000771  0.0000000  2
   9261   9260   9270   9273     1  180.0000771  2.0083200  2
   9261   9260   9270   9273     1  0.0000000  1.2552000  3
   9264   9261   9260   9270     1  180.0000771  2.0083200  2
   9264   9261   9260   9270     1  0.0000000  1.2552000  3
   9270   9273   9276   9277     1  180.0000771  0.0000000  2
   9270   9273   9276   9278     1  180.0000771  0.0000000  2
   9280   9283   9286   9289     1  0.0000000  0.6508444  3
   9283   9286   9289   9290     1  180.0000771  2.0083200  2
   9283   9286   9289   9290     1  0.0000000  1.2552000  3
   9283   9286   9289   9299     1  180.0000771  2.0083200  2
   9283   9286   9289   9299     1  0.0000000  1.2552000  3
   9286   9283   9280   9308     1  0.0000000  0.6508444  3
   9286   9289   9290   9293     1  180.0000771  2.0083200  2
   9286   9289   9290   9293     1  0.0000000  1.2552000  3
   9286   9289   9299   9302     1  180.0000771  2.0083200  2
   9286   9289   9299   9302     1  0.0000000  1.2552000  3
   9289   9290   9293   9296     1  0.0000000  0.6508444  3
   9289   9299   9302   9305     1  0.0000000  0.6508444  3
   9290   9289   9299   9302     1  180.0000771  2.0083200  2
   9290   9289   9299   9302     1  0.0000000  1.2552000  3
   9290   9293   9296   9297     1  180.0000771  0.0000000  2
   9290   9293   9296   9298     1  180.0000771  0.0000000  2
   9293   9290   9289   9299     1  180.0000771  2.0083200  2
   9293   9290   9289   9299     1  0.0000000  1.2552000  3
   9299   9302   9305   9306     1  180.0000771  0.0000000  2
   9299   9302   9305   9307     1  180.0000771  0.0000000  2
   9309   9312   9315   9318     1  0.0000000  0.6508444  3
   9312   9315   9318   9319     1  180.0000771  2.0083200  2
   9312   9315   9318   9319     1  0.0000000  1.2552000  3
   9312   9315   9318   9328     1  180.0000771  2.0083200  2
   9312   9315   9318   9328     1  0.0000000  1.2552000  3
   9315   9318   9319   9322     1  180.0000771  2.0083200  2
   9315   9318   9319   9322     1  0.0000000  1.2552000  3
   9315   9318   9328   9331     1  180.0000771  2.0083200  2
   9315   9318   9328   9331     1  0.0000000  1.2552000  3
   9315   9312   9309   9337     1  0.0000000  0.6508444  3
   9318   9319   9322   9325     1  0.0000000  0.6508444  3
   9318   9328   9331   9334     1  0.0000000  0.6508444  3
   9319   9322   9325   9326     1  180.0000771  0.0000000  2
   9319   9322   9325   9327     1  180.0000771  0.0000000  2
   9319   9318   9328   9331     1  180.0000771  2.0083200  2
   9319   9318   9328   9331     1  0.0000000  1.2552000  3
   9322   9319   9318   9328     1  180.0000771  2.0083200  2
   9322   9319   9318   9328     1  0.0000000  1.2552000  3
   9328   9331   9334   9335     1  180.0000771  0.0000000  2
   9328   9331   9334   9336     1  180.0000771  0.0000000  2
   9338   9341   9344   9347     1  0.0000000  0.6508444  3
   9341   9344   9347   9348     1  180.0000771  2.0083200  2
   9341   9344   9347   9348     1  0.0000000  1.2552000  3
   9341   9344   9347   9357     1  180.0000771  2.0083200  2
   9341   9344   9347   9357     1  0.0000000  1.2552000  3
   9344   9341   9338   9366     1  0.0000000  0.6508444  3
   9344   9347   9348   9351     1  180.0000771  2.0083200  2
   9344   9347   9348   9351     1  0.0000000  1.2552000  3
   9344   9347   9357   9360     1  180.0000771  2.0083200  2
   9344   9347   9357   9360     1  0.0000000  1.2552000  3
   9347   9348   9351   9354     1  0.0000000  0.6508444  3
   9347   9357   9360   9363     1  0.0000000  0.6508444  3
   9348   9347   9357   9360     1  180.0000771  2.0083200  2
   9348   9347   9357   9360     1  0.0000000  1.2552000  3
   9348   9351   9354   9355     1  180.0000771  0.0000000  2
   9348   9351   9354   9356     1  180.0000771  0.0000000  2
   9351   9348   9347   9357     1  180.0000771  2.0083200  2
   9351   9348   9347   9357     1  0.0000000  1.2552000  3
   9357   9360   9363   9364     1  180.0000771  0.0000000  2
   9357   9360   9363   9365     1  180.0000771  0.0000000  2
   9367   9370   9373   9376     1  0.0000000  0.6508444  3
   9370   9373   9376   9377     1  180.0000771  2.0083200  2
   9370   9373   9376   9377     1  0.0000000  1.2552000  3
   9370   9373   9376   9386     1  180.0000771  2.0083200  2
   9370   9373   9376   9386     1  0.0000000  1.2552000  3
   9373   9376   9377   9380     1  180.0000771  2.0083200  2
   9373   9376   9377   9380     1  0.0000000  1.2552000  3
   9373   9376   9386   9389     1  180.0000771  2.0083200  2
   9373   9376   9386   9389     1  0.0000000  1.2552000  3
   9373   9370   9367   9395     1  0.0000000  0.6508444  3
   9376   9377   9380   9383     1  0.0000000  0.6508444  3
   9376   9386   9389   9392     1  0.0000000  0.6508444  3
   9377   9380   9383   9384     1  180.0000771  0.0000000  2
   9377   9380   9383   9385     1  180.0000771  0.0000000  2
   9377   9376   9386   9389     1  180.0000771  2.0083200  2
   9377   9376   9386   9389     1  0.0000000  1.2552000  3
   9380   9377   9376   9386     1  180.0000771  2.0083200  2
   9380   9377   9376   9386     1  0.0000000  1.2552000  3
   9386   9389   9392   9393     1  180.0000771  0.0000000  2
   9386   9389   9392   9394     1  180.0000771  0.0000000  2
   9396   9399   9402   9405     1  0.0000000  0.6508444  3
   9399   9402   9405   9406     1  180.0000771  2.0083200  2
   9399   9402   9405   9406     1  0.0000000  1.2552000  3
   9399   9402   9405   9415     1  180.0000771  2.0083200  2
   9399   9402   9405   9415     1  0.0000000  1.2552000  3
   9402   9399   9396   9424     1  0.0000000  0.6508444  3
   9402   9405   9406   9409     1  180.0000771  2.0083200  2
   9402   9405   9406   9409     1  0.0000000  1.2552000  3
   9402   9405   9415   9418     1  180.0000771  2.0083200  2
   9402   9405   9415   9418     1  0.0000000  1.2552000  3
   9405   9406   9409   9412     1  0.0000000  0.6508444  3
   9405   9415   9418   9421     1  0.0000000  0.6508444  3
   9406   9405   9415   9418     1  180.0000771  2.0083200  2
   9406   9405   9415   9418     1  0.0000000  1.2552000  3
   9406   9409   9412   9413     1  180.0000771  0.0000000  2
   9406   9409   9412   9414     1  180.0000771  0.0000000  2
   9409   9406   9405   9415     1  180.0000771  2.0083200  2
   9409   9406   9405   9415     1  0.0000000  1.2552000  3
   9415   9418   9421   9422     1  180.0000771  0.0000000  2
   9415   9418   9421   9423     1  180.0000771  0.0000000  2
   9425   9428   9431   9434     1  0.0000000  0.6508444  3
   9428   9431   9434   9435     1  180.0000771  2.0083200  2
   9428   9431   9434   9435     1  0.0000000  1.2552000  3
   9428   9431   9434   9444     1  180.0000771  2.0083200  2
   9428   9431   9434   9444     1  0.0000000  1.2552000  3
   9431   9434   9435   9438     1  180.0000771  2.0083200  2
   9431   9434   9435   9438     1  0.0000000  1.2552000  3
   9431   9434   9444   9447     1  180.0000771  2.0083200  2
   9431   9434   9444   9447     1  0.0000000  1.2552000  3
   9431   9428   9425   9453     1  0.0000000  0.6508444  3
   9434   9435   9438   9441     1  0.0000000  0.6508444  3
   9434   9444   9447   9450     1  0.0000000  0.6508444  3
   9435   9438   9441   9442     1  180.0000771  0.0000000  2
   9435   9438   9441   9443     1  180.0000771  0.0000000  2
   9435   9434   9444   9447     1  180.0000771  2.0083200  2
   9435   9434   9444   9447     1  0.0000000  1.2552000  3
   9438   9435   9434   9444     1  180.0000771  2.0083200  2
   9438   9435   9434   9444     1  0.0000000  1.2552000  3
   9444   9447   9450   9451     1  180.0000771  0.0000000  2
   9444   9447   9450   9452     1  180.0000771  0.0000000  2
   9454   9457   9460   9463     1  0.0000000  0.6508444  3
   9457   9460   9463   9464     1  180.0000771  2.0083200  2
   9457   9460   9463   9464     1  0.0000000  1.2552000  3
   9457   9460   9463   9473     1  180.0000771  2.0083200  2
   9457   9460   9463   9473     1  0.0000000  1.2552000  3
   9460   9457   9454   9482     1  0.0000000  0.6508444  3
   9460   9463   9464   9467     1  180.0000771  2.0083200  2
   9460   9463   9464   9467     1  0.0000000  1.2552000  3
   9460   9463   9473   9476     1  180.0000771  2.0083200  2
   9460   9463   9473   9476     1  0.0000000  1.2552000  3
   9463   9464   9467   9470     1  0.0000000  0.6508444  3
   9463   9473   9476   9479     1  0.0000000  0.6508444  3
   9464   9463   9473   9476     1  180.0000771  2.0083200  2
   9464   9463   9473   9476     1  0.0000000  1.2552000  3
   9464   9467   9470   9471     1  180.0000771  0.0000000  2
   9464   9467   9470   9472     1  180.0000771  0.0000000  2
   9467   9464   9463   9473     1  180.0000771  2.0083200  2
   9467   9464   9463   9473     1  0.0000000  1.2552000  3
   9473   9476   9479   9480     1  180.0000771  0.0000000  2
   9473   9476   9479   9481     1  180.0000771  0.0000000  2
   9483   9486   9489   9492     1  0.0000000  0.6508444  3
   9486   9489   9492   9493     1  180.0000771  2.0083200  2
   9486   9489   9492   9493     1  0.0000000  1.2552000  3
   9486   9489   9492   9502     1  180.0000771  2.0083200  2
   9486   9489   9492   9502     1  0.0000000  1.2552000  3
   9489   9492   9493   9496     1  180.0000771  2.0083200  2
   9489   9492   9493   9496     1  0.0000000  1.2552000  3
   9489   9492   9502   9505     1  180.0000771  2.0083200  2
   9489   9492   9502   9505     1  0.0000000  1.2552000  3
   9489   9486   9483   9511     1  0.0000000  0.6508444  3
   9492   9493   9496   9499     1  0.0000000  0.6508444  3
   9492   9502   9505   9508     1  0.0000000  0.6508444  3
   9493   9496   9499   9500     1  180.0000771  0.0000000  2
   9493   9496   9499   9501     1  180.0000771  0.0000000  2
   9493   9492   9502   9505     1  180.0000771  2.0083200  2
   9493   9492   9502   9505     1  0.0000000  1.2552000  3
   9496   9493   9492   9502     1  180.0000771  2.0083200  2
   9496   9493   9492   9502     1  0.0000000  1.2552000  3
   9502   9505   9508   9509     1  180.0000771  0.0000000  2
   9502   9505   9508   9510     1  180.0000771  0.0000000  2
   9512   9515   9518   9521     1  0.0000000  0.6508444  3
   9515   9518   9521   9522     1  180.0000771  2.0083200  2
   9515   9518   9521   9522     1  0.0000000  1.2552000  3
   9515   9518   9521   9531     1  180.0000771  2.0083200  2
   9515   9518   9521   9531     1  0.0000000  1.2552000  3
   9518   9515   9512   9540     1  0.0000000  0.6508444  3
   9518   9521   9522   9525     1  180.0000771  2.0083200  2
   9518   9521   9522   9525     1  0.0000000  1.2552000  3
   9518   9521   9531   9534     1  180.0000771  2.0083200  2
   9518   9521   9531   9534     1  0.0000000  1.2552000  3
   9521   9522   9525   9528     1  0.0000000  0.6508444  3
   9521   9531   9534   9537     1  0.0000000  0.6508444  3
   9522   9521   9531   9534     1  180.0000771  2.0083200  2
   9522   9521   9531   9534     1  0.0000000  1.2552000  3
   9522   9525   9528   9529     1  180.0000771  0.0000000  2
   9522   9525   9528   9530     1  180.0000771  0.0000000  2
   9525   9522   9521   9531     1  180.0000771  2.0083200  2
   9525   9522   9521   9531     1  0.0000000  1.2552000  3
   9531   9534   9537   9538     1  180.0000771  0.0000000  2
   9531   9534   9537   9539     1  180.0000771  0.0000000  2
   9541   9544   9547   9550     1  0.0000000  0.6508444  3
   9544   9547   9550   9551     1  180.0000771  2.0083200  2
   9544   9547   9550   9551     1  0.0000000  1.2552000  3
   9544   9547   9550   9560     1  180.0000771  2.0083200  2
   9544   9547   9550   9560     1  0.0000000  1.2552000  3
   9547   9550   9551   9554     1  180.0000771  2.0083200  2
   9547   9550   9551   9554     1  0.0000000  1.2552000  3
   9547   9550   9560   9563     1  180.0000771  2.0083200  2
   9547   9550   9560   9563     1  0.0000000  1.2552000  3
   9547   9544   9541   9569     1  0.0000000  0.6508444  3
   9550   9551   9554   9557     1  0.0000000  0.6508444  3
   9550   9560   9563   9566     1  0.0000000  0.6508444  3
   9551   9554   9557   9558     1  180.0000771  0.0000000  2
   9551   9554   9557   9559     1  180.0000771  0.0000000  2
   9551   9550   9560   9563     1  180.0000771  2.0083200  2
   9551   9550   9560   9563     1  0.0000000  1.2552000  3
   9554   9551   9550   9560     1  180.0000771  2.0083200  2
   9554   9551   9550   9560     1  0.0000000  1.2552000  3
   9560   9563   9566   9567     1  180.0000771  0.0000000  2
   9560   9563   9566   9568     1  180.0000771  0.0000000  2
   9570   9573   9576   9579     1  0.0000000  0.6508444  3
   9573   9576   9579   9580     1  180.0000771  2.0083200  2
   9573   9576   9579   9580     1  0.0000000  1.2552000  3
   9573   9576   9579   9589     1  180.0000771  2.0083200  2
   9573   9576   9579   9589     1  0.0000000  1.2552000  3
   9576   9573   9570   9598     1  0.0000000  0.6508444  3
   9576   9579   9580   9583     1  180.0000771  2.0083200  2
   9576   9579   9580   9583     1  0.0000000  1.2552000  3
   9576   9579   9589   9592     1  180.0000771  2.0083200  2
   9576   9579   9589   9592     1  0.0000000  1.2552000  3
   9579   9580   9583   9586     1  0.0000000  0.6508444  3
   9579   9589   9592   9595     1  0.0000000  0.6508444  3
   9580   9579   9589   9592     1  180.0000771  2.0083200  2
   9580   9579   9589   9592     1  0.0000000  1.2552000  3
   9580   9583   9586   9587     1  180.0000771  0.0000000  2
   9580   9583   9586   9588     1  180.0000771  0.0000000  2
   9583   9580   9579   9589     1  180.0000771  2.0083200  2
   9583   9580   9579   9589     1  0.0000000  1.2552000  3
   9589   9592   9595   9596     1  180.0000771  0.0000000  2
   9589   9592   9595   9597     1  180.0000771  0.0000000  2
   9599   9602   9605   9608     1  0.0000000  0.6508444  3
   9602   9605   9608   9609     1  180.0000771  2.0083200  2
   9602   9605   9608   9609     1  0.0000000  1.2552000  3
   9602   9605   9608   9618     1  180.0000771  2.0083200  2
   9602   9605   9608   9618     1  0.0000000  1.2552000  3
   9605   9608   9609   9612     1  180.0000771  2.0083200  2
   9605   9608   9609   9612     1  0.0000000  1.2552000  3
   9605   9608   9618   9621     1  180.0000771  2.0083200  2
   9605   9608   9618   9621     1  0.0000000  1.2552000  3
   9605   9602   9599   9627     1  0.0000000  0.6508444  3
   9608   9609   9612   9615     1  0.0000000  0.6508444  3
   9608   9618   9621   9624     1  0.0000000  0.6508444  3
   9609   9612   9615   9616     1  180.0000771  0.0000000  2
   9609   9612   9615   9617     1  180.0000771  0.0000000  2
   9609   9608   9618   9621     1  180.0000771  2.0083200  2
   9609   9608   9618   9621     1  0.0000000  1.2552000  3
   9612   9609   9608   9618     1  180.0000771  2.0083200  2
   9612   9609   9608   9618     1  0.0000000  1.2552000  3
   9618   9621   9624   9625     1  180.0000771  0.0000000  2
   9618   9621   9624   9626     1  180.0000771  0.0000000  2
   9628   9631   9634   9637     1  0.0000000  0.6508444  3
   9631   9634   9637   9638     1  180.0000771  2.0083200  2
   9631   9634   9637   9638     1  0.0000000  1.2552000  3
   9631   9634   9637   9647     1  180.0000771  2.0083200  2
   9631   9634   9637   9647     1  0.0000000  1.2552000  3
   9634   9631   9628   9656     1  0.0000000  0.6508444  3
   9634   9637   9638   9641     1  180.0000771  2.0083200  2
   9634   9637   9638   9641     1  0.0000000  1.2552000  3
   9634   9637   9647   9650     1  180.0000771  2.0083200  2
   9634   9637   9647   9650     1  0.0000000  1.2552000  3
   9637   9638   9641   9644     1  0.0000000  0.6508444  3
   9637   9647   9650   9653     1  0.0000000  0.6508444  3
   9638   9637   9647   9650     1  180.0000771  2.0083200  2
   9638   9637   9647   9650     1  0.0000000  1.2552000  3
   9638   9641   9644   9645     1  180.0000771  0.0000000  2
   9638   9641   9644   9646     1  180.0000771  0.0000000  2
   9641   9638   9637   9647     1  180.0000771  2.0083200  2
   9641   9638   9637   9647     1  0.0000000  1.2552000  3
   9647   9650   9653   9654     1  180.0000771  0.0000000  2
   9647   9650   9653   9655     1  180.0000771  0.0000000  2
   9657   9660   9663   9666     1  0.0000000  0.6508444  3
   9660   9663   9666   9667     1  180.0000771  2.0083200  2
   9660   9663   9666   9667     1  0.0000000  1.2552000  3
   9660   9663   9666   9676     1  180.0000771  2.0083200  2
   9660   9663   9666   9676     1  0.0000000  1.2552000  3
   9663   9666   9667   9670     1  180.0000771  2.0083200  2
   9663   9666   9667   9670     1  0.0000000  1.2552000  3
   9663   9666   9676   9679     1  180.0000771  2.0083200  2
   9663   9666   9676   9679     1  0.0000000  1.2552000  3
   9663   9660   9657   9685     1  0.0000000  0.6508444  3
   9666   9667   9670   9673     1  0.0000000  0.6508444  3
   9666   9676   9679   9682     1  0.0000000  0.6508444  3
   9667   9670   9673   9674     1  180.0000771  0.0000000  2
   9667   9670   9673   9675     1  180.0000771  0.0000000  2
   9667   9666   9676   9679     1  180.0000771  2.0083200  2
   9667   9666   9676   9679     1  0.0000000  1.2552000  3
   9670   9667   9666   9676     1  180.0000771  2.0083200  2
   9670   9667   9666   9676     1  0.0000000  1.2552000  3
   9676   9679   9682   9683     1  180.0000771  0.0000000  2
   9676   9679   9682   9684     1  180.0000771  0.0000000  2
   9686   9689   9692   9695     1  0.0000000  0.6508444  3
   9689   9692   9695   9696     1  180.0000771  2.0083200  2
   9689   9692   9695   9696     1  0.0000000  1.2552000  3
   9689   9692   9695   9705     1  180.0000771  2.0083200  2
   9689   9692   9695   9705     1  0.0000000  1.2552000  3
   9692   9689   9686   9714     1  0.0000000  0.6508444  3
   9692   9695   9696   9699     1  180.0000771  2.0083200  2
   9692   9695   9696   9699     1  0.0000000  1.2552000  3
   9692   9695   9705   9708     1  180.0000771  2.0083200  2
   9692   9695   9705   9708     1  0.0000000  1.2552000  3
   9695   9696   9699   9702     1  0.0000000  0.6508444  3
   9695   9705   9708   9711     1  0.0000000  0.6508444  3
   9696   9695   9705   9708     1  180.0000771  2.0083200  2
   9696   9695   9705   9708     1  0.0000000  1.2552000  3
   9696   9699   9702   9703     1  180.0000771  0.0000000  2
   9696   9699   9702   9704     1  180.0000771  0.0000000  2
   9699   9696   9695   9705     1  180.0000771  2.0083200  2
   9699   9696   9695   9705     1  0.0000000  1.2552000  3
   9705   9708   9711   9712     1  180.0000771  0.0000000  2
   9705   9708   9711   9713     1  180.0000771  0.0000000  2
   9715   9718   9721   9724     1  0.0000000  0.6508444  3
   9718   9721   9724   9725     1  180.0000771  2.0083200  2
   9718   9721   9724   9725     1  0.0000000  1.2552000  3
   9718   9721   9724   9734     1  180.0000771  2.0083200  2
   9718   9721   9724   9734     1  0.0000000  1.2552000  3
   9721   9724   9725   9728     1  180.0000771  2.0083200  2
   9721   9724   9725   9728     1  0.0000000  1.2552000  3
   9721   9724   9734   9737     1  180.0000771  2.0083200  2
   9721   9724   9734   9737     1  0.0000000  1.2552000  3
   9721   9718   9715   9743     1  0.0000000  0.6508444  3
   9724   9725   9728   9731     1  0.0000000  0.6508444  3
   9724   9734   9737   9740     1  0.0000000  0.6508444  3
   9725   9728   9731   9732     1  180.0000771  0.0000000  2
   9725   9728   9731   9733     1  180.0000771  0.0000000  2
   9725   9724   9734   9737     1  180.0000771  2.0083200  2
   9725   9724   9734   9737     1  0.0000000  1.2552000  3
   9728   9725   9724   9734     1  180.0000771  2.0083200  2
   9728   9725   9724   9734     1  0.0000000  1.2552000  3
   9734   9737   9740   9741     1  180.0000771  0.0000000  2
   9734   9737   9740   9742     1  180.0000771  0.0000000  2
   9744   9747   9750   9753     1  0.0000000  0.6508444  3
   9747   9750   9753   9754     1  180.0000771  2.0083200  2
   9747   9750   9753   9754     1  0.0000000  1.2552000  3
   9747   9750   9753   9763     1  180.0000771  2.0083200  2
   9747   9750   9753   9763     1  0.0000000  1.2552000  3
   9750   9747   9744   9772     1  0.0000000  0.6508444  3
   9750   9753   9754   9757     1  180.0000771  2.0083200  2
   9750   9753   9754   9757     1  0.0000000  1.2552000  3
   9750   9753   9763   9766     1  180.0000771  2.0083200  2
   9750   9753   9763   9766     1  0.0000000  1.2552000  3
   9753   9754   9757   9760     1  0.0000000  0.6508444  3
   9753   9763   9766   9769     1  0.0000000  0.6508444  3
   9754   9753   9763   9766     1  180.0000771  2.0083200  2
   9754   9753   9763   9766     1  0.0000000  1.2552000  3
   9754   9757   9760   9761     1  180.0000771  0.0000000  2
   9754   9757   9760   9762     1  180.0000771  0.0000000  2
   9757   9754   9753   9763     1  180.0000771  2.0083200  2
   9757   9754   9753   9763     1  0.0000000  1.2552000  3
   9763   9766   9769   9770     1  180.0000771  0.0000000  2
   9763   9766   9769   9771     1  180.0000771  0.0000000  2
   9773   9776   9779   9782     1  0.0000000  0.6508444  3
   9776   9779   9782   9783     1  180.0000771  2.0083200  2
   9776   9779   9782   9783     1  0.0000000  1.2552000  3
   9776   9779   9782   9792     1  180.0000771  2.0083200  2
   9776   9779   9782   9792     1  0.0000000  1.2552000  3
   9779   9782   9783   9786     1  180.0000771  2.0083200  2
   9779   9782   9783   9786     1  0.0000000  1.2552000  3
   9779   9782   9792   9795     1  180.0000771  2.0083200  2
   9779   9782   9792   9795     1  0.0000000  1.2552000  3
   9779   9776   9773   9801     1  0.0000000  0.6508444  3
   9782   9783   9786   9789     1  0.0000000  0.6508444  3
   9782   9792   9795   9798     1  0.0000000  0.6508444  3
   9783   9786   9789   9790     1  180.0000771  0.0000000  2
   9783   9786   9789   9791     1  180.0000771  0.0000000  2
   9783   9782   9792   9795     1  180.0000771  2.0083200  2
   9783   9782   9792   9795     1  0.0000000  1.2552000  3
   9786   9783   9782   9792     1  180.0000771  2.0083200  2
   9786   9783   9782   9792     1  0.0000000  1.2552000  3
   9792   9795   9798   9799     1  180.0000771  0.0000000  2
   9792   9795   9798   9800     1  180.0000771  0.0000000  2
   9802   9805   9808   9811     1  0.0000000  0.6508444  3
   9805   9808   9811   9812     1  180.0000771  2.0083200  2
   9805   9808   9811   9812     1  0.0000000  1.2552000  3
   9805   9808   9811   9821     1  180.0000771  2.0083200  2
   9805   9808   9811   9821     1  0.0000000  1.2552000  3
   9808   9805   9802   9830     1  0.0000000  0.6508444  3
   9808   9811   9812   9815     1  180.0000771  2.0083200  2
   9808   9811   9812   9815     1  0.0000000  1.2552000  3
   9808   9811   9821   9824     1  180.0000771  2.0083200  2
   9808   9811   9821   9824     1  0.0000000  1.2552000  3
   9811   9812   9815   9818     1  0.0000000  0.6508444  3
   9811   9821   9824   9827     1  0.0000000  0.6508444  3
   9812   9811   9821   9824     1  180.0000771  2.0083200  2
   9812   9811   9821   9824     1  0.0000000  1.2552000  3
   9812   9815   9818   9819     1  180.0000771  0.0000000  2
   9812   9815   9818   9820     1  180.0000771  0.0000000  2
   9815   9812   9811   9821     1  180.0000771  2.0083200  2
   9815   9812   9811   9821     1  0.0000000  1.2552000  3
   9821   9824   9827   9828     1  180.0000771  0.0000000  2
   9821   9824   9827   9829     1  180.0000771  0.0000000  2
   9831   9834   9837   9840     1  0.0000000  0.6508444  3
   9834   9837   9840   9841     1  180.0000771  2.0083200  2
   9834   9837   9840   9841     1  0.0000000  1.2552000  3
   9834   9837   9840   9850     1  180.0000771  2.0083200  2
   9834   9837   9840   9850     1  0.0000000  1.2552000  3
   9837   9840   9841   9844     1  180.0000771  2.0083200  2
   9837   9840   9841   9844     1  0.0000000  1.2552000  3
   9837   9840   9850   9853     1  180.0000771  2.0083200  2
   9837   9840   9850   9853     1  0.0000000  1.2552000  3
   9837   9834   9831   9859     1  0.0000000  0.6508444  3
   9840   9841   9844   9847     1  0.0000000  0.6508444  3
   9840   9850   9853   9856     1  0.0000000  0.6508444  3
   9841   9844   9847   9848     1  180.0000771  0.0000000  2
   9841   9844   9847   9849     1  180.0000771  0.0000000  2
   9841   9840   9850   9853     1  180.0000771  2.0083200  2
   9841   9840   9850   9853     1  0.0000000  1.2552000  3
   9844   9841   9840   9850     1  180.0000771  2.0083200  2
   9844   9841   9840   9850     1  0.0000000  1.2552000  3
   9850   9853   9856   9857     1  180.0000771  0.0000000  2
   9850   9853   9856   9858     1  180.0000771  0.0000000  2
   9860   9863   9866   9869     1  0.0000000  0.6508444  3
   9863   9866   9869   9870     1  180.0000771  2.0083200  2
   9863   9866   9869   9870     1  0.0000000  1.2552000  3
   9863   9866   9869   9879     1  180.0000771  2.0083200  2
   9863   9866   9869   9879     1  0.0000000  1.2552000  3
   9866   9863   9860   9888     1  0.0000000  0.6508444  3
   9866   9869   9870   9873     1  180.0000771  2.0083200  2
   9866   9869   9870   9873     1  0.0000000  1.2552000  3
   9866   9869   9879   9882     1  180.0000771  2.0083200  2
   9866   9869   9879   9882     1  0.0000000  1.2552000  3
   9869   9870   9873   9876     1  0.0000000  0.6508444  3
   9869   9879   9882   9885     1  0.0000000  0.6508444  3
   9870   9869   9879   9882     1  180.0000771  2.0083200  2
   9870   9869   9879   9882     1  0.0000000  1.2552000  3
   9870   9873   9876   9877     1  180.0000771  0.0000000  2
   9870   9873   9876   9878     1  180.0000771  0.0000000  2
   9873   9870   9869   9879     1  180.0000771  2.0083200  2
   9873   9870   9869   9879     1  0.0000000  1.2552000  3
   9879   9882   9885   9886     1  180.0000771  0.0000000  2
   9879   9882   9885   9887     1  180.0000771  0.0000000  2
   9889   9892   9895   9898     1  0.0000000  0.6508444  3
   9892   9895   9898   9899     1  180.0000771  2.0083200  2
   9892   9895   9898   9899     1  0.0000000  1.2552000  3
   9892   9895   9898   9908     1  180.0000771  2.0083200  2
   9892   9895   9898   9908     1  0.0000000  1.2552000  3
   9895   9898   9899   9902     1  180.0000771  2.0083200  2
   9895   9898   9899   9902     1  0.0000000  1.2552000  3
   9895   9898   9908   9911     1  180.0000771  2.0083200  2
   9895   9898   9908   9911     1  0.0000000  1.2552000  3
   9895   9892   9889   9917     1  0.0000000  0.6508444  3
   9898   9899   9902   9905     1  0.0000000  0.6508444  3
   9898   9908   9911   9914     1  0.0000000  0.6508444  3
   9899   9902   9905   9906     1  180.0000771  0.0000000  2
   9899   9902   9905   9907     1  180.0000771  0.0000000  2
   9899   9898   9908   9911     1  180.0000771  2.0083200  2
   9899   9898   9908   9911     1  0.0000000  1.2552000  3
   9902   9899   9898   9908     1  180.0000771  2.0083200  2
   9902   9899   9898   9908     1  0.0000000  1.2552000  3
   9908   9911   9914   9915     1  180.0000771  0.0000000  2
   9908   9911   9914   9916     1  180.0000771  0.0000000  2
   9918   9921   9924   9927     1  0.0000000  0.6508444  3
   9921   9924   9927   9928     1  180.0000771  2.0083200  2
   9921   9924   9927   9928     1  0.0000000  1.2552000  3
   9921   9924   9927   9937     1  180.0000771  2.0083200  2
   9921   9924   9927   9937     1  0.0000000  1.2552000  3
   9924   9921   9918   9946     1  0.0000000  0.6508444  3
   9924   9927   9928   9931     1  180.0000771  2.0083200  2
   9924   9927   9928   9931     1  0.0000000  1.2552000  3
   9924   9927   9937   9940     1  180.0000771  2.0083200  2
   9924   9927   9937   9940     1  0.0000000  1.2552000  3
   9927   9928   9931   9934     1  0.0000000  0.6508444  3
   9927   9937   9940   9943     1  0.0000000  0.6508444  3
   9928   9927   9937   9940     1  180.0000771  2.0083200  2
   9928   9927   9937   9940     1  0.0000000  1.2552000  3
   9928   9931   9934   9935     1  180.0000771  0.0000000  2
   9928   9931   9934   9936     1  180.0000771  0.0000000  2
   9931   9928   9927   9937     1  180.0000771  2.0083200  2
   9931   9928   9927   9937     1  0.0000000  1.2552000  3
   9937   9940   9943   9944     1  180.0000771  0.0000000  2
   9937   9940   9943   9945     1  180.0000771  0.0000000  2
   9947   9950   9953   9956     1  0.0000000  0.6508444  3
   9950   9953   9956   9957     1  180.0000771  2.0083200  2
   9950   9953   9956   9957     1  0.0000000  1.2552000  3
   9950   9953   9956   9966     1  180.0000771  2.0083200  2
   9950   9953   9956   9966     1  0.0000000  1.2552000  3
   9953   9956   9957   9960     1  180.0000771  2.0083200  2
   9953   9956   9957   9960     1  0.0000000  1.2552000  3
   9953   9956   9966   9969     1  180.0000771  2.0083200  2
   9953   9956   9966   9969     1  0.0000000  1.2552000  3
   9953   9950   9947   9975     1  0.0000000  0.6508444  3
   9956   9957   9960   9963     1  0.0000000  0.6508444  3
   9956   9966   9969   9972     1  0.0000000  0.6508444  3
   9957   9960   9963   9964     1  180.0000771  0.0000000  2
   9957   9960   9963   9965     1  180.0000771  0.0000000  2
   9957   9956   9966   9969     1  180.0000771  2.0083200  2
   9957   9956   9966   9969     1  0.0000000  1.2552000  3
   9960   9957   9956   9966     1  180.0000771  2.0083200  2
   9960   9957   9956   9966     1  0.0000000  1.2552000  3
   9966   9969   9972   9973     1  180.0000771  0.0000000  2
   9966   9969   9972   9974     1  180.0000771  0.0000000  2
   9976   9979   9982   9985     1  0.0000000  0.6508444  3
   9979   9982   9985   9986     1  180.0000771  2.0083200  2
   9979   9982   9985   9986     1  0.0000000  1.2552000  3
   9979   9982   9985   9995     1  180.0000771  2.0083200  2
   9979   9982   9985   9995     1  0.0000000  1.2552000  3
   9982   9979   9976  10004     1  0.0000000  0.6508444  3
   9982   9985   9986   9989     1  180.0000771  2.0083200  2
   9982   9985   9986   9989     1  0.0000000  1.2552000  3
   9982   9985   9995   9998     1  180.0000771  2.0083200  2
   9982   9985   9995   9998     1  0.0000000  1.2552000  3
   9985   9986   9989   9992     1  0.0000000  0.6508444  3
   9985   9995   9998  10001     1  0.0000000  0.6508444  3
   9986   9985   9995   9998     1  180.0000771  2.0083200  2
   9986   9985   9995   9998     1  0.0000000  1.2552000  3
   9986   9989   9992   9993     1  180.0000771  0.0000000  2
   9986   9989   9992   9994     1  180.0000771  0.0000000  2
   9989   9986   9985   9995     1  180.0000771  2.0083200  2
   9989   9986   9985   9995     1  0.0000000  1.2552000  3
   9995   9998  10001  10002     1  180.0000771  0.0000000  2
   9995   9998  10001  10003     1  180.0000771  0.0000000  2
  10005  10008  10011  10014     1  0.0000000  0.6508444  3
  10008  10011  10014  10015     1  180.0000771  2.0083200  2
  10008  10011  10014  10015     1  0.0000000  1.2552000  3
  10008  10011  10014  10024     1  180.0000771  2.0083200  2
  10008  10011  10014  10024     1  0.0000000  1.2552000  3
  10011  10014  10015  10018     1  180.0000771  2.0083200  2
  10011  10014  10015  10018     1  0.0000000  1.2552000  3
  10011  10014  10024  10027     1  180.0000771  2.0083200  2
  10011  10014  10024  10027     1  0.0000000  1.2552000  3
  10011  10008  10005  10033     1  0.0000000  0.6508444  3
  10014  10015  10018  10021     1  0.0000000  0.6508444  3
  10014  10024  10027  10030     1  0.0000000  0.6508444  3
  10015  10018  10021  10022     1  180.0000771  0.0000000  2
  10015  10018  10021  10023     1  180.0000771  0.0000000  2
  10015  10014  10024  10027     1  180.0000771  2.0083200  2
  10015  10014  10024  10027     1  0.0000000  1.2552000  3
  10018  10015  10014  10024     1  180.0000771  2.0083200  2
  10018  10015  10014  10024     1  0.0000000  1.2552000  3
  10024  10027  10030  10031     1  180.0000771  0.0000000  2
  10024  10027  10030  10032     1  180.0000771  0.0000000  2
  10034  10037  10040  10043     1  0.0000000  0.6508444  3
  10037  10040  10043  10044     1  180.0000771  2.0083200  2
  10037  10040  10043  10044     1  0.0000000  1.2552000  3
  10037  10040  10043  10053     1  180.0000771  2.0083200  2
  10037  10040  10043  10053     1  0.0000000  1.2552000  3
  10040  10037  10034  10062     1  0.0000000  0.6508444  3
  10040  10043  10044  10047     1  180.0000771  2.0083200  2
  10040  10043  10044  10047     1  0.0000000  1.2552000  3
  10040  10043  10053  10056     1  180.0000771  2.0083200  2
  10040  10043  10053  10056     1  0.0000000  1.2552000  3
  10043  10044  10047  10050     1  0.0000000  0.6508444  3
  10043  10053  10056  10059     1  0.0000000  0.6508444  3
  10044  10043  10053  10056     1  180.0000771  2.0083200  2
  10044  10043  10053  10056     1  0.0000000  1.2552000  3
  10044  10047  10050  10051     1  180.0000771  0.0000000  2
  10044  10047  10050  10052     1  180.0000771  0.0000000  2
  10047  10044  10043  10053     1  180.0000771  2.0083200  2
  10047  10044  10043  10053     1  0.0000000  1.2552000  3
  10053  10056  10059  10060     1  180.0000771  0.0000000  2
  10053  10056  10059  10061     1  180.0000771  0.0000000  2
  10063  10066  10069  10072     1  0.0000000  0.6508444  3
  10066  10069  10072  10073     1  180.0000771  2.0083200  2
  10066  10069  10072  10073     1  0.0000000  1.2552000  3
  10066  10069  10072  10082     1  180.0000771  2.0083200  2
  10066  10069  10072  10082     1  0.0000000  1.2552000  3
  10069  10072  10073  10076     1  180.0000771  2.0083200  2
  10069  10072  10073  10076     1  0.0000000  1.2552000  3
  10069  10072  10082  10085     1  180.0000771  2.0083200  2
  10069  10072  10082  10085     1  0.0000000  1.2552000  3
  10069  10066  10063  10091     1  0.0000000  0.6508444  3
  10072  10073  10076  10079     1  0.0000000  0.6508444  3
  10072  10082  10085  10088     1  0.0000000  0.6508444  3
  10073  10076  10079  10080     1  180.0000771  0.0000000  2
  10073  10076  10079  10081     1  180.0000771  0.0000000  2
  10073  10072  10082  10085     1  180.0000771  2.0083200  2
  10073  10072  10082  10085     1  0.0000000  1.2552000  3
  10076  10073  10072  10082     1  180.0000771  2.0083200  2
  10076  10073  10072  10082     1  0.0000000  1.2552000  3
  10082  10085  10088  10089     1  180.0000771  0.0000000  2
  10082  10085  10088  10090     1  180.0000771  0.0000000  2
  10092  10095  10098  10101     1  0.0000000  0.6508444  3
  10095  10098  10101  10102     1  180.0000771  2.0083200  2
  10095  10098  10101  10102     1  0.0000000  1.2552000  3
  10095  10098  10101  10111     1  180.0000771  2.0083200  2
  10095  10098  10101  10111     1  0.0000000  1.2552000  3
  10098  10095  10092  10120     1  0.0000000  0.6508444  3
  10098  10101  10102  10105     1  180.0000771  2.0083200  2
  10098  10101  10102  10105     1  0.0000000  1.2552000  3
  10098  10101  10111  10114     1  180.0000771  2.0083200  2
  10098  10101  10111  10114     1  0.0000000  1.2552000  3
  10101  10102  10105  10108     1  0.0000000  0.6508444  3
  10101  10111  10114  10117     1  0.0000000  0.6508444  3
  10102  10101  10111  10114     1  180.0000771  2.0083200  2
  10102  10101  10111  10114     1  0.0000000  1.2552000  3
  10102  10105  10108  10109     1  180.0000771  0.0000000  2
  10102  10105  10108  10110     1  180.0000771  0.0000000  2
  10105  10102  10101  10111     1  180.0000771  2.0083200  2
  10105  10102  10101  10111     1  0.0000000  1.2552000  3
  10111  10114  10117  10118     1  180.0000771  0.0000000  2
  10111  10114  10117  10119     1  180.0000771  0.0000000  2
  10121  10124  10127  10130     1  0.0000000  0.6508444  3
  10124  10127  10130  10131     1  180.0000771  2.0083200  2
  10124  10127  10130  10131     1  0.0000000  1.2552000  3
  10124  10127  10130  10140     1  180.0000771  2.0083200  2
  10124  10127  10130  10140     1  0.0000000  1.2552000  3
  10127  10130  10131  10134     1  180.0000771  2.0083200  2
  10127  10130  10131  10134     1  0.0000000  1.2552000  3
  10127  10130  10140  10143     1  180.0000771  2.0083200  2
  10127  10130  10140  10143     1  0.0000000  1.2552000  3
  10127  10124  10121  10149     1  0.0000000  0.6508444  3
  10130  10131  10134  10137     1  0.0000000  0.6508444  3
  10130  10140  10143  10146     1  0.0000000  0.6508444  3
  10131  10134  10137  10138     1  180.0000771  0.0000000  2
  10131  10134  10137  10139     1  180.0000771  0.0000000  2
  10131  10130  10140  10143     1  180.0000771  2.0083200  2
  10131  10130  10140  10143     1  0.0000000  1.2552000  3
  10134  10131  10130  10140     1  180.0000771  2.0083200  2
  10134  10131  10130  10140     1  0.0000000  1.2552000  3
  10140  10143  10146  10147     1  180.0000771  0.0000000  2
  10140  10143  10146  10148     1  180.0000771  0.0000000  2
  10150  10153  10156  10159     1  0.0000000  0.6508444  3
  10153  10156  10159  10160     1  180.0000771  2.0083200  2
  10153  10156  10159  10160     1  0.0000000  1.2552000  3
  10153  10156  10159  10169     1  180.0000771  2.0083200  2
  10153  10156  10159  10169     1  0.0000000  1.2552000  3
  10156  10153  10150  10178     1  0.0000000  0.6508444  3
  10156  10159  10160  10163     1  180.0000771  2.0083200  2
  10156  10159  10160  10163     1  0.0000000  1.2552000  3
  10156  10159  10169  10172     1  180.0000771  2.0083200  2
  10156  10159  10169  10172     1  0.0000000  1.2552000  3
  10159  10160  10163  10166     1  0.0000000  0.6508444  3
  10159  10169  10172  10175     1  0.0000000  0.6508444  3
  10160  10159  10169  10172     1  180.0000771  2.0083200  2
  10160  10159  10169  10172     1  0.0000000  1.2552000  3
  10160  10163  10166  10167     1  180.0000771  0.0000000  2
  10160  10163  10166  10168     1  180.0000771  0.0000000  2
  10163  10160  10159  10169     1  180.0000771  2.0083200  2
  10163  10160  10159  10169     1  0.0000000  1.2552000  3
  10169  10172  10175  10176     1  180.0000771  0.0000000  2
  10169  10172  10175  10177     1  180.0000771  0.0000000  2
  10179  10182  10185  10188     1  0.0000000  0.6508444  3
  10182  10185  10188  10189     1  180.0000771  2.0083200  2
  10182  10185  10188  10189     1  0.0000000  1.2552000  3
  10182  10185  10188  10198     1  180.0000771  2.0083200  2
  10182  10185  10188  10198     1  0.0000000  1.2552000  3
  10185  10188  10189  10192     1  180.0000771  2.0083200  2
  10185  10188  10189  10192     1  0.0000000  1.2552000  3
  10185  10188  10198  10201     1  180.0000771  2.0083200  2
  10185  10188  10198  10201     1  0.0000000  1.2552000  3
  10185  10182  10179  10207     1  0.0000000  0.6508444  3
  10188  10189  10192  10195     1  0.0000000  0.6508444  3
  10188  10198  10201  10204     1  0.0000000  0.6508444  3
  10189  10192  10195  10196     1  180.0000771  0.0000000  2
  10189  10192  10195  10197     1  180.0000771  0.0000000  2
  10189  10188  10198  10201     1  180.0000771  2.0083200  2
  10189  10188  10198  10201     1  0.0000000  1.2552000  3
  10192  10189  10188  10198     1  180.0000771  2.0083200  2
  10192  10189  10188  10198     1  0.0000000  1.2552000  3
  10198  10201  10204  10205     1  180.0000771  0.0000000  2
  10198  10201  10204  10206     1  180.0000771  0.0000000  2
  10208  10211  10214  10217     1  0.0000000  0.6508444  3
  10211  10214  10217  10218     1  180.0000771  2.0083200  2
  10211  10214  10217  10218     1  0.0000000  1.2552000  3
  10211  10214  10217  10227     1  180.0000771  2.0083200  2
  10211  10214  10217  10227     1  0.0000000  1.2552000  3
  10214  10211  10208  10236     1  0.0000000  0.6508444  3
  10214  10217  10218  10221     1  180.0000771  2.0083200  2
  10214  10217  10218  10221     1  0.0000000  1.2552000  3
  10214  10217  10227  10230     1  180.0000771  2.0083200  2
  10214  10217  10227  10230     1  0.0000000  1.2552000  3
  10217  10218  10221  10224     1  0.0000000  0.6508444  3
  10217  10227  10230  10233     1  0.0000000  0.6508444  3
  10218  10217  10227  10230     1  180.0000771  2.0083200  2
  10218  10217  10227  10230     1  0.0000000  1.2552000  3
  10218  10221  10224  10225     1  180.0000771  0.0000000  2
  10218  10221  10224  10226     1  180.0000771  0.0000000  2
  10221  10218  10217  10227     1  180.0000771  2.0083200  2
  10221  10218  10217  10227     1  0.0000000  1.2552000  3
  10227  10230  10233  10234     1  180.0000771  0.0000000  2
  10227  10230  10233  10235     1  180.0000771  0.0000000  2
  10237  10240  10243  10246     1  0.0000000  0.6508444  3
  10240  10243  10246  10247     1  180.0000771  2.0083200  2
  10240  10243  10246  10247     1  0.0000000  1.2552000  3
  10240  10243  10246  10256     1  180.0000771  2.0083200  2
  10240  10243  10246  10256     1  0.0000000  1.2552000  3
  10243  10246  10247  10250     1  180.0000771  2.0083200  2
  10243  10246  10247  10250     1  0.0000000  1.2552000  3
  10243  10246  10256  10259     1  180.0000771  2.0083200  2
  10243  10246  10256  10259     1  0.0000000  1.2552000  3
  10243  10240  10237  10265     1  0.0000000  0.6508444  3
  10246  10247  10250  10253     1  0.0000000  0.6508444  3
  10246  10256  10259  10262     1  0.0000000  0.6508444  3
  10247  10250  10253  10254     1  180.0000771  0.0000000  2
  10247  10250  10253  10255     1  180.0000771  0.0000000  2
  10247  10246  10256  10259     1  180.0000771  2.0083200  2
  10247  10246  10256  10259     1  0.0000000  1.2552000  3
  10250  10247  10246  10256     1  180.0000771  2.0083200  2
  10250  10247  10246  10256     1  0.0000000  1.2552000  3
  10256  10259  10262  10263     1  180.0000771  0.0000000  2
  10256  10259  10262  10264     1  180.0000771  0.0000000  2
  10266  10269  10272  10275     1  0.0000000  0.6508444  3
  10269  10272  10275  10276     1  180.0000771  2.0083200  2
  10269  10272  10275  10276     1  0.0000000  1.2552000  3
  10269  10272  10275  10285     1  180.0000771  2.0083200  2
  10269  10272  10275  10285     1  0.0000000  1.2552000  3
  10272  10269  10266  10294     1  0.0000000  0.6508444  3
  10272  10275  10276  10279     1  180.0000771  2.0083200  2
  10272  10275  10276  10279     1  0.0000000  1.2552000  3
  10272  10275  10285  10288     1  180.0000771  2.0083200  2
  10272  10275  10285  10288     1  0.0000000  1.2552000  3
  10275  10276  10279  10282     1  0.0000000  0.6508444  3
  10275  10285  10288  10291     1  0.0000000  0.6508444  3
  10276  10275  10285  10288     1  180.0000771  2.0083200  2
  10276  10275  10285  10288     1  0.0000000  1.2552000  3
  10276  10279  10282  10283     1  180.0000771  0.0000000  2
  10276  10279  10282  10284     1  180.0000771  0.0000000  2
  10279  10276  10275  10285     1  180.0000771  2.0083200  2
  10279  10276  10275  10285     1  0.0000000  1.2552000  3
  10285  10288  10291  10292     1  180.0000771  0.0000000  2
  10285  10288  10291  10293     1  180.0000771  0.0000000  2
  10295  10298  10301  10304     1  0.0000000  0.6508444  3
  10298  10301  10304  10305     1  180.0000771  2.0083200  2
  10298  10301  10304  10305     1  0.0000000  1.2552000  3
  10298  10301  10304  10314     1  180.0000771  2.0083200  2
  10298  10301  10304  10314     1  0.0000000  1.2552000  3
  10301  10304  10305  10308     1  180.0000771  2.0083200  2
  10301  10304  10305  10308     1  0.0000000  1.2552000  3
  10301  10304  10314  10317     1  180.0000771  2.0083200  2
  10301  10304  10314  10317     1  0.0000000  1.2552000  3
  10301  10298  10295  10323     1  0.0000000  0.6508444  3
  10304  10305  10308  10311     1  0.0000000  0.6508444  3
  10304  10314  10317  10320     1  0.0000000  0.6508444  3
  10305  10308  10311  10312     1  180.0000771  0.0000000  2
  10305  10308  10311  10313     1  180.0000771  0.0000000  2
  10305  10304  10314  10317     1  180.0000771  2.0083200  2
  10305  10304  10314  10317     1  0.0000000  1.2552000  3
  10308  10305  10304  10314     1  180.0000771  2.0083200  2
  10308  10305  10304  10314     1  0.0000000  1.2552000  3
  10314  10317  10320  10321     1  180.0000771  0.0000000  2
  10314  10317  10320  10322     1  180.0000771  0.0000000  2
  10324  10327  10330  10333     1  0.0000000  0.6508444  3
  10327  10330  10333  10334     1  180.0000771  2.0083200  2
  10327  10330  10333  10334     1  0.0000000  1.2552000  3
  10327  10330  10333  10343     1  180.0000771  2.0083200  2
  10327  10330  10333  10343     1  0.0000000  1.2552000  3
  10330  10327  10324  10352     1  0.0000000  0.6508444  3
  10330  10333  10334  10337     1  180.0000771  2.0083200  2
  10330  10333  10334  10337     1  0.0000000  1.2552000  3
  10330  10333  10343  10346     1  180.0000771  2.0083200  2
  10330  10333  10343  10346     1  0.0000000  1.2552000  3
  10333  10334  10337  10340     1  0.0000000  0.6508444  3
  10333  10343  10346  10349     1  0.0000000  0.6508444  3
  10334  10333  10343  10346     1  180.0000771  2.0083200  2
  10334  10333  10343  10346     1  0.0000000  1.2552000  3
  10334  10337  10340  10341     1  180.0000771  0.0000000  2
  10334  10337  10340  10342     1  180.0000771  0.0000000  2
  10337  10334  10333  10343     1  180.0000771  2.0083200  2
  10337  10334  10333  10343     1  0.0000000  1.2552000  3
  10343  10346  10349  10350     1  180.0000771  0.0000000  2
  10343  10346  10349  10351     1  180.0000771  0.0000000  2
  10353  10356  10359  10362     1  0.0000000  0.6508444  3
  10356  10359  10362  10363     1  180.0000771  2.0083200  2
  10356  10359  10362  10363     1  0.0000000  1.2552000  3
  10356  10359  10362  10372     1  180.0000771  2.0083200  2
  10356  10359  10362  10372     1  0.0000000  1.2552000  3
  10359  10362  10363  10366     1  180.0000771  2.0083200  2
  10359  10362  10363  10366     1  0.0000000  1.2552000  3
  10359  10362  10372  10375     1  180.0000771  2.0083200  2
  10359  10362  10372  10375     1  0.0000000  1.2552000  3
  10359  10356  10353  10381     1  0.0000000  0.6508444  3
  10362  10363  10366  10369     1  0.0000000  0.6508444  3
  10362  10372  10375  10378     1  0.0000000  0.6508444  3
  10363  10366  10369  10370     1  180.0000771  0.0000000  2
  10363  10366  10369  10371     1  180.0000771  0.0000000  2
  10363  10362  10372  10375     1  180.0000771  2.0083200  2
  10363  10362  10372  10375     1  0.0000000  1.2552000  3
  10366  10363  10362  10372     1  180.0000771  2.0083200  2
  10366  10363  10362  10372     1  0.0000000  1.2552000  3
  10372  10375  10378  10379     1  180.0000771  0.0000000  2
  10372  10375  10378  10380     1  180.0000771  0.0000000  2
  10382  10385  10388  10391     1  0.0000000  0.6508444  3
  10385  10388  10391  10392     1  180.0000771  2.0083200  2
  10385  10388  10391  10392     1  0.0000000  1.2552000  3
  10385  10388  10391  10401     1  180.0000771  2.0083200  2
  10385  10388  10391  10401     1  0.0000000  1.2552000  3
  10388  10385  10382  10410     1  0.0000000  0.6508444  3
  10388  10391  10392  10395     1  180.0000771  2.0083200  2
  10388  10391  10392  10395     1  0.0000000  1.2552000  3
  10388  10391  10401  10404     1  180.0000771  2.0083200  2
  10388  10391  10401  10404     1  0.0000000  1.2552000  3
  10391  10392  10395  10398     1  0.0000000  0.6508444  3
  10391  10401  10404  10407     1  0.0000000  0.6508444  3
  10392  10391  10401  10404     1  180.0000771  2.0083200  2
  10392  10391  10401  10404     1  0.0000000  1.2552000  3
  10392  10395  10398  10399     1  180.0000771  0.0000000  2
  10392  10395  10398  10400     1  180.0000771  0.0000000  2
  10395  10392  10391  10401     1  180.0000771  2.0083200  2
  10395  10392  10391  10401     1  0.0000000  1.2552000  3
  10401  10404  10407  10408     1  180.0000771  0.0000000  2
  10401  10404  10407  10409     1  180.0000771  0.0000000  2
  10411  10414  10417  10420     1  0.0000000  0.6508444  3
  10414  10417  10420  10421     1  180.0000771  2.0083200  2
  10414  10417  10420  10421     1  0.0000000  1.2552000  3
  10414  10417  10420  10430     1  180.0000771  2.0083200  2
  10414  10417  10420  10430     1  0.0000000  1.2552000  3
  10417  10420  10421  10424     1  180.0000771  2.0083200  2
  10417  10420  10421  10424     1  0.0000000  1.2552000  3
  10417  10420  10430  10433     1  180.0000771  2.0083200  2
  10417  10420  10430  10433     1  0.0000000  1.2552000  3
  10417  10414  10411  10439     1  0.0000000  0.6508444  3
  10420  10421  10424  10427     1  0.0000000  0.6508444  3
  10420  10430  10433  10436     1  0.0000000  0.6508444  3
  10421  10424  10427  10428     1  180.0000771  0.0000000  2
  10421  10424  10427  10429     1  180.0000771  0.0000000  2
  10421  10420  10430  10433     1  180.0000771  2.0083200  2
  10421  10420  10430  10433     1  0.0000000  1.2552000  3
  10424  10421  10420  10430     1  180.0000771  2.0083200  2
  10424  10421  10420  10430     1  0.0000000  1.2552000  3
  10430  10433  10436  10437     1  180.0000771  0.0000000  2
  10430  10433  10436  10438     1  180.0000771  0.0000000  2
  10440  10443  10446  10449     1  0.0000000  0.6508444  3
  10443  10446  10449  10450     1  180.0000771  2.0083200  2
  10443  10446  10449  10450     1  0.0000000  1.2552000  3
  10443  10446  10449  10459     1  180.0000771  2.0083200  2
  10443  10446  10449  10459     1  0.0000000  1.2552000  3
  10446  10443  10440  10468     1  0.0000000  0.6508444  3
  10446  10449  10450  10453     1  180.0000771  2.0083200  2
  10446  10449  10450  10453     1  0.0000000  1.2552000  3
  10446  10449  10459  10462     1  180.0000771  2.0083200  2
  10446  10449  10459  10462     1  0.0000000  1.2552000  3
  10449  10450  10453  10456     1  0.0000000  0.6508444  3
  10449  10459  10462  10465     1  0.0000000  0.6508444  3
  10450  10449  10459  10462     1  180.0000771  2.0083200  2
  10450  10449  10459  10462     1  0.0000000  1.2552000  3
  10450  10453  10456  10457     1  180.0000771  0.0000000  2
  10450  10453  10456  10458     1  180.0000771  0.0000000  2
  10453  10450  10449  10459     1  180.0000771  2.0083200  2
  10453  10450  10449  10459     1  0.0000000  1.2552000  3
  10459  10462  10465  10466     1  180.0000771  0.0000000  2
  10459  10462  10465  10467     1  180.0000771  0.0000000  2
  10469  10472  10475  10478     1  0.0000000  0.6508444  3
  10472  10475  10478  10479     1  180.0000771  2.0083200  2
  10472  10475  10478  10479     1  0.0000000  1.2552000  3
  10472  10475  10478  10488     1  180.0000771  2.0083200  2
  10472  10475  10478  10488     1  0.0000000  1.2552000  3
  10475  10478  10479  10482     1  180.0000771  2.0083200  2
  10475  10478  10479  10482     1  0.0000000  1.2552000  3
  10475  10478  10488  10491     1  180.0000771  2.0083200  2
  10475  10478  10488  10491     1  0.0000000  1.2552000  3
  10475  10472  10469  10497     1  0.0000000  0.6508444  3
  10478  10479  10482  10485     1  0.0000000  0.6508444  3
  10478  10488  10491  10494     1  0.0000000  0.6508444  3
  10479  10482  10485  10486     1  180.0000771  0.0000000  2
  10479  10482  10485  10487     1  180.0000771  0.0000000  2
  10479  10478  10488  10491     1  180.0000771  2.0083200  2
  10479  10478  10488  10491     1  0.0000000  1.2552000  3
  10482  10479  10478  10488     1  180.0000771  2.0083200  2
  10482  10479  10478  10488     1  0.0000000  1.2552000  3
  10488  10491  10494  10495     1  180.0000771  0.0000000  2
  10488  10491  10494  10496     1  180.0000771  0.0000000  2
  10498  10501  10504  10507     1  0.0000000  0.6508444  3
  10501  10504  10507  10508     1  180.0000771  2.0083200  2
  10501  10504  10507  10508     1  0.0000000  1.2552000  3
  10501  10504  10507  10517     1  180.0000771  2.0083200  2
  10501  10504  10507  10517     1  0.0000000  1.2552000  3
  10504  10501  10498  10526     1  0.0000000  0.6508444  3
  10504  10507  10508  10511     1  180.0000771  2.0083200  2
  10504  10507  10508  10511     1  0.0000000  1.2552000  3
  10504  10507  10517  10520     1  180.0000771  2.0083200  2
  10504  10507  10517  10520     1  0.0000000  1.2552000  3
  10507  10508  10511  10514     1  0.0000000  0.6508444  3
  10507  10517  10520  10523     1  0.0000000  0.6508444  3
  10508  10507  10517  10520     1  180.0000771  2.0083200  2
  10508  10507  10517  10520     1  0.0000000  1.2552000  3
  10508  10511  10514  10515     1  180.0000771  0.0000000  2
  10508  10511  10514  10516     1  180.0000771  0.0000000  2
  10511  10508  10507  10517     1  180.0000771  2.0083200  2
  10511  10508  10507  10517     1  0.0000000  1.2552000  3
  10517  10520  10523  10524     1  180.0000771  0.0000000  2
  10517  10520  10523  10525     1  180.0000771  0.0000000  2
  10527  10530  10533  10536     1  0.0000000  0.6508444  3
  10530  10533  10536  10537     1  180.0000771  2.0083200  2
  10530  10533  10536  10537     1  0.0000000  1.2552000  3
  10530  10533  10536  10546     1  180.0000771  2.0083200  2
  10530  10533  10536  10546     1  0.0000000  1.2552000  3
  10533  10536  10537  10540     1  180.0000771  2.0083200  2
  10533  10536  10537  10540     1  0.0000000  1.2552000  3
  10533  10536  10546  10549     1  180.0000771  2.0083200  2
  10533  10536  10546  10549     1  0.0000000  1.2552000  3
  10533  10530  10527  10555     1  0.0000000  0.6508444  3
  10536  10537  10540  10543     1  0.0000000  0.6508444  3
  10536  10546  10549  10552     1  0.0000000  0.6508444  3
  10537  10540  10543  10544     1  180.0000771  0.0000000  2
  10537  10540  10543  10545     1  180.0000771  0.0000000  2
  10537  10536  10546  10549     1  180.0000771  2.0083200  2
  10537  10536  10546  10549     1  0.0000000  1.2552000  3
  10540  10537  10536  10546     1  180.0000771  2.0083200  2
  10540  10537  10536  10546     1  0.0000000  1.2552000  3
  10546  10549  10552  10553     1  180.0000771  0.0000000  2
  10546  10549  10552  10554     1  180.0000771  0.0000000  2
  10556  10559  10562  10565     1  0.0000000  0.6508444  3
  10559  10562  10565  10566     1  180.0000771  2.0083200  2
  10559  10562  10565  10566     1  0.0000000  1.2552000  3
  10559  10562  10565  10575     1  180.0000771  2.0083200  2
  10559  10562  10565  10575     1  0.0000000  1.2552000  3
  10562  10559  10556  10584     1  0.0000000  0.6508444  3
  10562  10565  10566  10569     1  180.0000771  2.0083200  2
  10562  10565  10566  10569     1  0.0000000  1.2552000  3
  10562  10565  10575  10578     1  180.0000771  2.0083200  2
  10562  10565  10575  10578     1  0.0000000  1.2552000  3
  10565  10566  10569  10572     1  0.0000000  0.6508444  3
  10565  10575  10578  10581     1  0.0000000  0.6508444  3
  10566  10565  10575  10578     1  180.0000771  2.0083200  2
  10566  10565  10575  10578     1  0.0000000  1.2552000  3
  10566  10569  10572  10573     1  180.0000771  0.0000000  2
  10566  10569  10572  10574     1  180.0000771  0.0000000  2
  10569  10566  10565  10575     1  180.0000771  2.0083200  2
  10569  10566  10565  10575     1  0.0000000  1.2552000  3
  10575  10578  10581  10582     1  180.0000771  0.0000000  2
  10575  10578  10581  10583     1  180.0000771  0.0000000  2
  10585  10588  10591  10594     1  0.0000000  0.6508444  3
  10588  10591  10594  10595     1  180.0000771  2.0083200  2
  10588  10591  10594  10595     1  0.0000000  1.2552000  3
  10588  10591  10594  10604     1  180.0000771  2.0083200  2
  10588  10591  10594  10604     1  0.0000000  1.2552000  3
  10591  10594  10595  10598     1  180.0000771  2.0083200  2
  10591  10594  10595  10598     1  0.0000000  1.2552000  3
  10591  10594  10604  10607     1  180.0000771  2.0083200  2
  10591  10594  10604  10607     1  0.0000000  1.2552000  3
  10591  10588  10585  10613     1  0.0000000  0.6508444  3
  10594  10595  10598  10601     1  0.0000000  0.6508444  3
  10594  10604  10607  10610     1  0.0000000  0.6508444  3
  10595  10598  10601  10602     1  180.0000771  0.0000000  2
  10595  10598  10601  10603     1  180.0000771  0.0000000  2
  10595  10594  10604  10607     1  180.0000771  2.0083200  2
  10595  10594  10604  10607     1  0.0000000  1.2552000  3
  10598  10595  10594  10604     1  180.0000771  2.0083200  2
  10598  10595  10594  10604     1  0.0000000  1.2552000  3
  10604  10607  10610  10611     1  180.0000771  0.0000000  2
  10604  10607  10610  10612     1  180.0000771  0.0000000  2
  10614  10617  10620  10623     1  0.0000000  0.6508444  3
  10617  10620  10623  10624     1  180.0000771  2.0083200  2
  10617  10620  10623  10624     1  0.0000000  1.2552000  3
  10617  10620  10623  10633     1  180.0000771  2.0083200  2
  10617  10620  10623  10633     1  0.0000000  1.2552000  3
  10620  10617  10614  10642     1  0.0000000  0.6508444  3
  10620  10623  10624  10627     1  180.0000771  2.0083200  2
  10620  10623  10624  10627     1  0.0000000  1.2552000  3
  10620  10623  10633  10636     1  180.0000771  2.0083200  2
  10620  10623  10633  10636     1  0.0000000  1.2552000  3
  10623  10624  10627  10630     1  0.0000000  0.6508444  3
  10623  10633  10636  10639     1  0.0000000  0.6508444  3
  10624  10623  10633  10636     1  180.0000771  2.0083200  2
  10624  10623  10633  10636     1  0.0000000  1.2552000  3
  10624  10627  10630  10631     1  180.0000771  0.0000000  2
  10624  10627  10630  10632     1  180.0000771  0.0000000  2
  10627  10624  10623  10633     1  180.0000771  2.0083200  2
  10627  10624  10623  10633     1  0.0000000  1.2552000  3
  10633  10636  10639  10640     1  180.0000771  0.0000000  2
  10633  10636  10639  10641     1  180.0000771  0.0000000  2
  10643  10646  10649  10652     1  0.0000000  0.6508444  3
  10646  10649  10652  10653     1  180.0000771  2.0083200  2
  10646  10649  10652  10653     1  0.0000000  1.2552000  3
  10646  10649  10652  10662     1  180.0000771  2.0083200  2
  10646  10649  10652  10662     1  0.0000000  1.2552000  3
  10649  10652  10653  10656     1  180.0000771  2.0083200  2
  10649  10652  10653  10656     1  0.0000000  1.2552000  3
  10649  10652  10662  10665     1  180.0000771  2.0083200  2
  10649  10652  10662  10665     1  0.0000000  1.2552000  3
  10649  10646  10643  10671     1  0.0000000  0.6508444  3
  10652  10653  10656  10659     1  0.0000000  0.6508444  3
  10652  10662  10665  10668     1  0.0000000  0.6508444  3
  10653  10656  10659  10660     1  180.0000771  0.0000000  2
  10653  10656  10659  10661     1  180.0000771  0.0000000  2
  10653  10652  10662  10665     1  180.0000771  2.0083200  2
  10653  10652  10662  10665     1  0.0000000  1.2552000  3
  10656  10653  10652  10662     1  180.0000771  2.0083200  2
  10656  10653  10652  10662     1  0.0000000  1.2552000  3
  10662  10665  10668  10669     1  180.0000771  0.0000000  2
  10662  10665  10668  10670     1  180.0000771  0.0000000  2
  10672  10675  10678  10681     1  0.0000000  0.6508444  3
  10675  10678  10681  10682     1  180.0000771  2.0083200  2
  10675  10678  10681  10682     1  0.0000000  1.2552000  3
  10675  10678  10681  10691     1  180.0000771  2.0083200  2
  10675  10678  10681  10691     1  0.0000000  1.2552000  3
  10678  10675  10672  10700     1  0.0000000  0.6508444  3
  10678  10681  10682  10685     1  180.0000771  2.0083200  2
  10678  10681  10682  10685     1  0.0000000  1.2552000  3
  10678  10681  10691  10694     1  180.0000771  2.0083200  2
  10678  10681  10691  10694     1  0.0000000  1.2552000  3
  10681  10682  10685  10688     1  0.0000000  0.6508444  3
  10681  10691  10694  10697     1  0.0000000  0.6508444  3
  10682  10681  10691  10694     1  180.0000771  2.0083200  2
  10682  10681  10691  10694     1  0.0000000  1.2552000  3
  10682  10685  10688  10689     1  180.0000771  0.0000000  2
  10682  10685  10688  10690     1  180.0000771  0.0000000  2
  10685  10682  10681  10691     1  180.0000771  2.0083200  2
  10685  10682  10681  10691     1  0.0000000  1.2552000  3
  10691  10694  10697  10698     1  180.0000771  0.0000000  2
  10691  10694  10697  10699     1  180.0000771  0.0000000  2
  10701  10704  10707  10710     1  0.0000000  0.6508444  3
  10704  10707  10710  10711     1  180.0000771  2.0083200  2
  10704  10707  10710  10711     1  0.0000000  1.2552000  3
  10704  10707  10710  10720     1  180.0000771  2.0083200  2
  10704  10707  10710  10720     1  0.0000000  1.2552000  3
  10707  10710  10711  10714     1  180.0000771  2.0083200  2
  10707  10710  10711  10714     1  0.0000000  1.2552000  3
  10707  10710  10720  10723     1  180.0000771  2.0083200  2
  10707  10710  10720  10723     1  0.0000000  1.2552000  3
  10707  10704  10701  10729     1  0.0000000  0.6508444  3
  10710  10711  10714  10717     1  0.0000000  0.6508444  3
  10710  10720  10723  10726     1  0.0000000  0.6508444  3
  10711  10714  10717  10718     1  180.0000771  0.0000000  2
  10711  10714  10717  10719     1  180.0000771  0.0000000  2
  10711  10710  10720  10723     1  180.0000771  2.0083200  2
  10711  10710  10720  10723     1  0.0000000  1.2552000  3
  10714  10711  10710  10720     1  180.0000771  2.0083200  2
  10714  10711  10710  10720     1  0.0000000  1.2552000  3
  10720  10723  10726  10727     1  180.0000771  0.0000000  2
  10720  10723  10726  10728     1  180.0000771  0.0000000  2
  10730  10733  10736  10739     1  0.0000000  0.6508444  3
  10733  10736  10739  10740     1  180.0000771  2.0083200  2
  10733  10736  10739  10740     1  0.0000000  1.2552000  3
  10733  10736  10739  10749     1  180.0000771  2.0083200  2
  10733  10736  10739  10749     1  0.0000000  1.2552000  3
  10736  10733  10730  10758     1  0.0000000  0.6508444  3
  10736  10739  10740  10743     1  180.0000771  2.0083200  2
  10736  10739  10740  10743     1  0.0000000  1.2552000  3
  10736  10739  10749  10752     1  180.0000771  2.0083200  2
  10736  10739  10749  10752     1  0.0000000  1.2552000  3
  10739  10740  10743  10746     1  0.0000000  0.6508444  3
  10739  10749  10752  10755     1  0.0000000  0.6508444  3
  10740  10739  10749  10752     1  180.0000771  2.0083200  2
  10740  10739  10749  10752     1  0.0000000  1.2552000  3
  10740  10743  10746  10747     1  180.0000771  0.0000000  2
  10740  10743  10746  10748     1  180.0000771  0.0000000  2
  10743  10740  10739  10749     1  180.0000771  2.0083200  2
  10743  10740  10739  10749     1  0.0000000  1.2552000  3
  10749  10752  10755  10756     1  180.0000771  0.0000000  2
  10749  10752  10755  10757     1  180.0000771  0.0000000  2
  10759  10762  10765  10768     1  0.0000000  0.6508444  3
  10762  10765  10768  10769     1  180.0000771  2.0083200  2
  10762  10765  10768  10769     1  0.0000000  1.2552000  3
  10762  10765  10768  10778     1  180.0000771  2.0083200  2
  10762  10765  10768  10778     1  0.0000000  1.2552000  3
  10765  10768  10769  10772     1  180.0000771  2.0083200  2
  10765  10768  10769  10772     1  0.0000000  1.2552000  3
  10765  10768  10778  10781     1  180.0000771  2.0083200  2
  10765  10768  10778  10781     1  0.0000000  1.2552000  3
  10765  10762  10759  10787     1  0.0000000  0.6508444  3
  10768  10769  10772  10775     1  0.0000000  0.6508444  3
  10768  10778  10781  10784     1  0.0000000  0.6508444  3
  10769  10772  10775  10776     1  180.0000771  0.0000000  2
  10769  10772  10775  10777     1  180.0000771  0.0000000  2
  10769  10768  10778  10781     1  180.0000771  2.0083200  2
  10769  10768  10778  10781     1  0.0000000  1.2552000  3
  10772  10769  10768  10778     1  180.0000771  2.0083200  2
  10772  10769  10768  10778     1  0.0000000  1.2552000  3
  10778  10781  10784  10785     1  180.0000771  0.0000000  2
  10778  10781  10784  10786     1  180.0000771  0.0000000  2
  10788  10791  10794  10797     1  0.0000000  0.6508444  3
  10791  10794  10797  10798     1  180.0000771  2.0083200  2
  10791  10794  10797  10798     1  0.0000000  1.2552000  3
  10791  10794  10797  10807     1  180.0000771  2.0083200  2
  10791  10794  10797  10807     1  0.0000000  1.2552000  3
  10794  10791  10788  10816     1  0.0000000  0.6508444  3
  10794  10797  10798  10801     1  180.0000771  2.0083200  2
  10794  10797  10798  10801     1  0.0000000  1.2552000  3
  10794  10797  10807  10810     1  180.0000771  2.0083200  2
  10794  10797  10807  10810     1  0.0000000  1.2552000  3
  10797  10798  10801  10804     1  0.0000000  0.6508444  3
  10797  10807  10810  10813     1  0.0000000  0.6508444  3
  10798  10797  10807  10810     1  180.0000771  2.0083200  2
  10798  10797  10807  10810     1  0.0000000  1.2552000  3
  10798  10801  10804  10805     1  180.0000771  0.0000000  2
  10798  10801  10804  10806     1  180.0000771  0.0000000  2
  10801  10798  10797  10807     1  180.0000771  2.0083200  2
  10801  10798  10797  10807     1  0.0000000  1.2552000  3
  10807  10810  10813  10814     1  180.0000771  0.0000000  2
  10807  10810  10813  10815     1  180.0000771  0.0000000  2
  10817  10820  10823  10826     1  0.0000000  0.6508444  3
  10820  10823  10826  10827     1  180.0000771  2.0083200  2
  10820  10823  10826  10827     1  0.0000000  1.2552000  3
  10820  10823  10826  10836     1  180.0000771  2.0083200  2
  10820  10823  10826  10836     1  0.0000000  1.2552000  3
  10823  10826  10827  10830     1  180.0000771  2.0083200  2
  10823  10826  10827  10830     1  0.0000000  1.2552000  3
  10823  10826  10836  10839     1  180.0000771  2.0083200  2
  10823  10826  10836  10839     1  0.0000000  1.2552000  3
  10823  10820  10817  10845     1  0.0000000  0.6508444  3
  10826  10827  10830  10833     1  0.0000000  0.6508444  3
  10826  10836  10839  10842     1  0.0000000  0.6508444  3
  10827  10830  10833  10834     1  180.0000771  0.0000000  2
  10827  10830  10833  10835     1  180.0000771  0.0000000  2
  10827  10826  10836  10839     1  180.0000771  2.0083200  2
  10827  10826  10836  10839     1  0.0000000  1.2552000  3
  10830  10827  10826  10836     1  180.0000771  2.0083200  2
  10830  10827  10826  10836     1  0.0000000  1.2552000  3
  10836  10839  10842  10843     1  180.0000771  0.0000000  2
  10836  10839  10842  10844     1  180.0000771  0.0000000  2
  10846  10849  10852  10855     1  0.0000000  0.6508444  3
  10849  10852  10855  10856     1  180.0000771  2.0083200  2
  10849  10852  10855  10856     1  0.0000000  1.2552000  3
  10849  10852  10855  10865     1  180.0000771  2.0083200  2
  10849  10852  10855  10865     1  0.0000000  1.2552000  3
  10852  10849  10846  10874     1  0.0000000  0.6508444  3
  10852  10855  10856  10859     1  180.0000771  2.0083200  2
  10852  10855  10856  10859     1  0.0000000  1.2552000  3
  10852  10855  10865  10868     1  180.0000771  2.0083200  2
  10852  10855  10865  10868     1  0.0000000  1.2552000  3
  10855  10856  10859  10862     1  0.0000000  0.6508444  3
  10855  10865  10868  10871     1  0.0000000  0.6508444  3
  10856  10855  10865  10868     1  180.0000771  2.0083200  2
  10856  10855  10865  10868     1  0.0000000  1.2552000  3
  10856  10859  10862  10863     1  180.0000771  0.0000000  2
  10856  10859  10862  10864     1  180.0000771  0.0000000  2
  10859  10856  10855  10865     1  180.0000771  2.0083200  2
  10859  10856  10855  10865     1  0.0000000  1.2552000  3
  10865  10868  10871  10872     1  180.0000771  0.0000000  2
  10865  10868  10871  10873     1  180.0000771  0.0000000  2
  10875  10878  10881  10884     1  0.0000000  0.6508444  3
  10878  10881  10884  10885     1  180.0000771  2.0083200  2
  10878  10881  10884  10885     1  0.0000000  1.2552000  3
  10878  10881  10884  10894     1  180.0000771  2.0083200  2
  10878  10881  10884  10894     1  0.0000000  1.2552000  3
  10881  10884  10885  10888     1  180.0000771  2.0083200  2
  10881  10884  10885  10888     1  0.0000000  1.2552000  3
  10881  10884  10894  10897     1  180.0000771  2.0083200  2
  10881  10884  10894  10897     1  0.0000000  1.2552000  3
  10881  10878  10875  10903     1  0.0000000  0.6508444  3
  10884  10885  10888  10891     1  0.0000000  0.6508444  3
  10884  10894  10897  10900     1  0.0000000  0.6508444  3
  10885  10888  10891  10892     1  180.0000771  0.0000000  2
  10885  10888  10891  10893     1  180.0000771  0.0000000  2
  10885  10884  10894  10897     1  180.0000771  2.0083200  2
  10885  10884  10894  10897     1  0.0000000  1.2552000  3
  10888  10885  10884  10894     1  180.0000771  2.0083200  2
  10888  10885  10884  10894     1  0.0000000  1.2552000  3
  10894  10897  10900  10901     1  180.0000771  0.0000000  2
  10894  10897  10900  10902     1  180.0000771  0.0000000  2
  10904  10907  10910  10913     1  0.0000000  0.6508444  3
  10907  10910  10913  10914     1  180.0000771  2.0083200  2
  10907  10910  10913  10914     1  0.0000000  1.2552000  3
  10907  10910  10913  10923     1  180.0000771  2.0083200  2
  10907  10910  10913  10923     1  0.0000000  1.2552000  3
  10910  10907  10904  10932     1  0.0000000  0.6508444  3
  10910  10913  10914  10917     1  180.0000771  2.0083200  2
  10910  10913  10914  10917     1  0.0000000  1.2552000  3
  10910  10913  10923  10926     1  180.0000771  2.0083200  2
  10910  10913  10923  10926     1  0.0000000  1.2552000  3
  10913  10914  10917  10920     1  0.0000000  0.6508444  3
  10913  10923  10926  10929     1  0.0000000  0.6508444  3
  10914  10913  10923  10926     1  180.0000771  2.0083200  2
  10914  10913  10923  10926     1  0.0000000  1.2552000  3
  10914  10917  10920  10921     1  180.0000771  0.0000000  2
  10914  10917  10920  10922     1  180.0000771  0.0000000  2
  10917  10914  10913  10923     1  180.0000771  2.0083200  2
  10917  10914  10913  10923     1  0.0000000  1.2552000  3
  10923  10926  10929  10930     1  180.0000771  0.0000000  2
  10923  10926  10929  10931     1  180.0000771  0.0000000  2
  10933  10936  10939  10942     1  0.0000000  0.6508444  3
  10936  10939  10942  10943     1  180.0000771  2.0083200  2
  10936  10939  10942  10943     1  0.0000000  1.2552000  3
  10936  10939  10942  10952     1  180.0000771  2.0083200  2
  10936  10939  10942  10952     1  0.0000000  1.2552000  3
  10939  10942  10943  10946     1  180.0000771  2.0083200  2
  10939  10942  10943  10946     1  0.0000000  1.2552000  3
  10939  10942  10952  10955     1  180.0000771  2.0083200  2
  10939  10942  10952  10955     1  0.0000000  1.2552000  3
  10939  10936  10933  10961     1  0.0000000  0.6508444  3
  10942  10943  10946  10949     1  0.0000000  0.6508444  3
  10942  10952  10955  10958     1  0.0000000  0.6508444  3
  10943  10946  10949  10950     1  180.0000771  0.0000000  2
  10943  10946  10949  10951     1  180.0000771  0.0000000  2
  10943  10942  10952  10955     1  180.0000771  2.0083200  2
  10943  10942  10952  10955     1  0.0000000  1.2552000  3
  10946  10943  10942  10952     1  180.0000771  2.0083200  2
  10946  10943  10942  10952     1  0.0000000  1.2552000  3
  10952  10955  10958  10959     1  180.0000771  0.0000000  2
  10952  10955  10958  10960     1  180.0000771  0.0000000  2
  10962  10965  10968  10971     1  0.0000000  0.6508444  3
  10965  10968  10971  10972     1  180.0000771  2.0083200  2
  10965  10968  10971  10972     1  0.0000000  1.2552000  3
  10965  10968  10971  10981     1  180.0000771  2.0083200  2
  10965  10968  10971  10981     1  0.0000000  1.2552000  3
  10968  10965  10962  10990     1  0.0000000  0.6508444  3
  10968  10971  10972  10975     1  180.0000771  2.0083200  2
  10968  10971  10972  10975     1  0.0000000  1.2552000  3
  10968  10971  10981  10984     1  180.0000771  2.0083200  2
  10968  10971  10981  10984     1  0.0000000  1.2552000  3
  10971  10972  10975  10978     1  0.0000000  0.6508444  3
  10971  10981  10984  10987     1  0.0000000  0.6508444  3
  10972  10971  10981  10984     1  180.0000771  2.0083200  2
  10972  10971  10981  10984     1  0.0000000  1.2552000  3
  10972  10975  10978  10979     1  180.0000771  0.0000000  2
  10972  10975  10978  10980     1  180.0000771  0.0000000  2
  10975  10972  10971  10981     1  180.0000771  2.0083200  2
  10975  10972  10971  10981     1  0.0000000  1.2552000  3
  10981  10984  10987  10988     1  180.0000771  0.0000000  2
  10981  10984  10987  10989     1  180.0000771  0.0000000  2
  10991  10994  10997  11000     1  0.0000000  0.6508444  3
  10994  10997  11000  11001     1  180.0000771  2.0083200  2
  10994  10997  11000  11001     1  0.0000000  1.2552000  3
  10994  10997  11000  11010     1  180.0000771  2.0083200  2
  10994  10997  11000  11010     1  0.0000000  1.2552000  3
  10997  11000  11001  11004     1  180.0000771  2.0083200  2
  10997  11000  11001  11004     1  0.0000000  1.2552000  3
  10997  11000  11010  11013     1  180.0000771  2.0083200  2
  10997  11000  11010  11013     1  0.0000000  1.2552000  3
  10997  10994  10991  11019     1  0.0000000  0.6508444  3
  11000  11001  11004  11007     1  0.0000000  0.6508444  3
  11000  11010  11013  11016     1  0.0000000  0.6508444  3
  11001  11004  11007  11008     1  180.0000771  0.0000000  2
  11001  11004  11007  11009     1  180.0000771  0.0000000  2
  11001  11000  11010  11013     1  180.0000771  2.0083200  2
  11001  11000  11010  11013     1  0.0000000  1.2552000  3
  11004  11001  11000  11010     1  180.0000771  2.0083200  2
  11004  11001  11000  11010     1  0.0000000  1.2552000  3
  11010  11013  11016  11017     1  180.0000771  0.0000000  2
  11010  11013  11016  11018     1  180.0000771  0.0000000  2
  11020  11023  11026  11029     1  0.0000000  0.6508444  3
  11023  11026  11029  11030     1  180.0000771  2.0083200  2
  11023  11026  11029  11030     1  0.0000000  1.2552000  3
  11023  11026  11029  11039     1  180.0000771  2.0083200  2
  11023  11026  11029  11039     1  0.0000000  1.2552000  3
  11026  11023  11020  11048     1  0.0000000  0.6508444  3
  11026  11029  11030  11033     1  180.0000771  2.0083200  2
  11026  11029  11030  11033     1  0.0000000  1.2552000  3
  11026  11029  11039  11042     1  180.0000771  2.0083200  2
  11026  11029  11039  11042     1  0.0000000  1.2552000  3
  11029  11030  11033  11036     1  0.0000000  0.6508444  3
  11029  11039  11042  11045     1  0.0000000  0.6508444  3
  11030  11029  11039  11042     1  180.0000771  2.0083200  2
  11030  11029  11039  11042     1  0.0000000  1.2552000  3
  11030  11033  11036  11037     1  180.0000771  0.0000000  2
  11030  11033  11036  11038     1  180.0000771  0.0000000  2
  11033  11030  11029  11039     1  180.0000771  2.0083200  2
  11033  11030  11029  11039     1  0.0000000  1.2552000  3
  11039  11042  11045  11046     1  180.0000771  0.0000000  2
  11039  11042  11045  11047     1  180.0000771  0.0000000  2
  11049  11052  11055  11058     1  0.0000000  0.6508444  3
  11052  11055  11058  11059     1  180.0000771  2.0083200  2
  11052  11055  11058  11059     1  0.0000000  1.2552000  3
  11052  11055  11058  11068     1  180.0000771  2.0083200  2
  11052  11055  11058  11068     1  0.0000000  1.2552000  3
  11055  11058  11059  11062     1  180.0000771  2.0083200  2
  11055  11058  11059  11062     1  0.0000000  1.2552000  3
  11055  11058  11068  11071     1  180.0000771  2.0083200  2
  11055  11058  11068  11071     1  0.0000000  1.2552000  3
  11055  11052  11049  11077     1  0.0000000  0.6508444  3
  11058  11059  11062  11065     1  0.0000000  0.6508444  3
  11058  11068  11071  11074     1  0.0000000  0.6508444  3
  11059  11062  11065  11066     1  180.0000771  0.0000000  2
  11059  11062  11065  11067     1  180.0000771  0.0000000  2
  11059  11058  11068  11071     1  180.0000771  2.0083200  2
  11059  11058  11068  11071     1  0.0000000  1.2552000  3
  11062  11059  11058  11068     1  180.0000771  2.0083200  2
  11062  11059  11058  11068     1  0.0000000  1.2552000  3
  11068  11071  11074  11075     1  180.0000771  0.0000000  2
  11068  11071  11074  11076     1  180.0000771  0.0000000  2
   5523   5527   5526   5528     4  180.0000771  4.6024000  2
   5532   5536   5535   5537     4  180.0000771  4.6024000  2
   5552   5556   5555   5557     4  180.0000771  4.6024000  2
   5561   5565   5564   5566     4  180.0000771  4.6024000  2
   5581   5585   5584   5586     4  180.0000771  4.6024000  2
   5590   5594   5593   5595     4  180.0000771  4.6024000  2
   5610   5614   5613   5615     4  180.0000771  4.6024000  2
   5619   5623   5622   5624     4  180.0000771  4.6024000  2
   5639   5643   5642   5644     4  180.0000771  4.6024000  2
   5648   5652   5651   5653     4  180.0000771  4.6024000  2
   5668   5672   5671   5673     4  180.0000771  4.6024000  2
   5677   5681   5680   5682     4  180.0000771  4.6024000  2
   5697   5701   5700   5702     4  180.0000771  4.6024000  2
   5706   5710   5709   5711     4  180.0000771  4.6024000  2
   5726   5730   5729   5731     4  180.0000771  4.6024000  2
   5735   5739   5738   5740     4  180.0000771  4.6024000  2
   5755   5759   5758   5760     4  180.0000771  4.6024000  2
   5764   5768   5767   5769     4  180.0000771  4.6024000  2
   5784   5788   5787   5789     4  180.0000771  4.6024000  2
   5793   5797   5796   5798     4  180.0000771  4.6024000  2
   5813   5817   5816   5818     4  180.0000771  4.6024000  2
   5822   5826   5825   5827     4  180.0000771  4.6024000  2
   5842   5846   5845   5847     4  180.0000771  4.6024000  2
   5851   5855   5854   5856     4  180.0000771  4.6024000  2
   5871   5875   5874   5876     4  180.0000771  4.6024000  2
   5880   5884   5883   5885     4  180.0000771  4.6024000  2
   5900   5904   5903   5905     4  180.0000771  4.6024000  2
   5909   5913   5912   5914     4  180.0000771  4.6024000  2
   5929   5933   5932   5934     4  180.0000771  4.6024000  2
   5938   5942   5941   5943     4  180.0000771  4.6024000  2
   5958   5962   5961   5963     4  180.0000771  4.6024000  2
   5967   5971   5970   5972     4  180.0000771  4.6024000  2
   5987   5991   5990   5992     4  180.0000771  4.6024000  2
   5996   6000   5999   6001     4  180.0000771  4.6024000  2
   6016   6020   6019   6021     4  180.0000771  4.6024000  2
   6025   6029   6028   6030     4  180.0000771  4.6024000  2
   6045   6049   6048   6050     4  180.0000771  4.6024000  2
   6054   6058   6057   6059     4  180.0000771  4.6024000  2
   6074   6078   6077   6079     4  180.0000771  4.6024000  2
   6083   6087   6086   6088     4  180.0000771  4.6024000  2
   6103   6107   6106   6108     4  180.0000771  4.6024000  2
   6112   6116   6115   6117     4  180.0000771  4.6024000  2
   6132   6136   6135   6137     4  180.0000771  4.6024000  2
   6141   6145   6144   6146     4  180.0000771  4.6024000  2
   6161   6165   6164   6166     4  180.0000771  4.6024000  2
   6170   6174   6173   6175     4  180.0000771  4.6024000  2
   6190   6194   6193   6195     4  180.0000771  4.6024000  2
   6199   6203   6202   6204     4  180.0000771  4.6024000  2
   6219   6223   6222   6224     4  180.0000771  4.6024000  2
   6228   6232   6231   6233     4  180.0000771  4.6024000  2
   6248   6252   6251   6253     4  180.0000771  4.6024000  2
   6257   6261   6260   6262     4  180.0000771  4.6024000  2
   6277   6281   6280   6282     4  180.0000771  4.6024000  2
   6286   6290   6289   6291     4  180.0000771  4.6024000  2
   6306   6310   6309   6311     4  180.0000771  4.6024000  2
   6315   6319   6318   6320     4  180.0000771  4.6024000  2
   6335   6339   6338   6340     4  180.0000771  4.6024000  2
   6344   6348   6347   6349     4  180.0000771  4.6024000  2
   6364   6368   6367   6369     4  180.0000771  4.6024000  2
   6373   6377   6376   6378     4  180.0000771  4.6024000  2
   6393   6397   6396   6398     4  180.0000771  4.6024000  2
   6402   6406   6405   6407     4  180.0000771  4.6024000  2
   6422   6426   6425   6427     4  180.0000771  4.6024000  2
   6431   6435   6434   6436     4  180.0000771  4.6024000  2
   6451   6455   6454   6456     4  180.0000771  4.6024000  2
   6460   6464   6463   6465     4  180.0000771  4.6024000  2
   6480   6484   6483   6485     4  180.0000771  4.6024000  2
   6489   6493   6492   6494     4  180.0000771  4.6024000  2
   6509   6513   6512   6514     4  180.0000771  4.6024000  2
   6518   6522   6521   6523     4  180.0000771  4.6024000  2
   6538   6542   6541   6543     4  180.0000771  4.6024000  2
   6547   6551   6550   6552     4  180.0000771  4.6024000  2
   6567   6571   6570   6572     4  180.0000771  4.6024000  2
   6576   6580   6579   6581     4  180.0000771  4.6024000  2
   6596   6600   6599   6601     4  180.0000771  4.6024000  2
   6605   6609   6608   6610     4  180.0000771  4.6024000  2
   6625   6629   6628   6630     4  180.0000771  4.6024000  2
   6634   6638   6637   6639     4  180.0000771  4.6024000  2
   6654   6658   6657   6659     4  180.0000771  4.6024000  2
   6663   6667   6666   6668     4  180.0000771  4.6024000  2
   6683   6687   6686   6688     4  180.0000771  4.6024000  2
   6692   6696   6695   6697     4  180.0000771  4.6024000  2
   6712   6716   6715   6717     4  180.0000771  4.6024000  2
   6721   6725   6724   6726     4  180.0000771  4.6024000  2
   6741   6745   6744   6746     4  180.0000771  4.6024000  2
   6750   6754   6753   6755     4  180.0000771  4.6024000  2
   6770   6774   6773   6775     4  180.0000771  4.6024000  2
   6779   6783   6782   6784     4  180.0000771  4.6024000  2
   6799   6803   6802   6804     4  180.0000771  4.6024000  2
   6808   6812   6811   6813     4  180.0000771  4.6024000  2
   6828   6832   6831   6833     4  180.0000771  4.6024000  2
   6837   6841   6840   6842     4  180.0000771  4.6024000  2
   6857   6861   6860   6862     4  180.0000771  4.6024000  2
   6866   6870   6869   6871     4  180.0000771  4.6024000  2
   6886   6890   6889   6891     4  180.0000771  4.6024000  2
   6895   6899   6898   6900     4  180.0000771  4.6024000  2
   6915   6919   6918   6920     4  180.0000771  4.6024000  2
   6924   6928   6927   6929     4  180.0000771  4.6024000  2
   6944   6948   6947   6949     4  180.0000771  4.6024000  2
   6953   6957   6956   6958     4  180.0000771  4.6024000  2
   6973   6977   6976   6978     4  180.0000771  4.6024000  2
   6982   6986   6985   6987     4  180.0000771  4.6024000  2
   7002   7006   7005   7007     4  180.0000771  4.6024000  2
   7011   7015   7014   7016     4  180.0000771  4.6024000  2
   7031   7035   7034   7036     4  180.0000771  4.6024000  2
   7040   7044   7043   7045     4  180.0000771  4.6024000  2
   7060   7064   7063   7065     4  180.0000771  4.6024000  2
   7069   7073   7072   7074     4  180.0000771  4.6024000  2
   7089   7093   7092   7094     4  180.0000771  4.6024000  2
   7098   7102   7101   7103     4  180.0000771  4.6024000  2
   7118   7122   7121   7123     4  180.0000771  4.6024000  2
   7127   7131   7130   7132     4  180.0000771  4.6024000  2
   7147   7151   7150   7152     4  180.0000771  4.6024000  2
   7156   7160   7159   7161     4  180.0000771  4.6024000  2
   7176   7180   7179   7181     4  180.0000771  4.6024000  2
   7185   7189   7188   7190     4  180.0000771  4.6024000  2
   7205   7209   7208   7210     4  180.0000771  4.6024000  2
   7214   7218   7217   7219     4  180.0000771  4.6024000  2
   7234   7238   7237   7239     4  180.0000771  4.6024000  2
   7243   7247   7246   7248     4  180.0000771  4.6024000  2
   7263   7267   7266   7268     4  180.0000771  4.6024000  2
   7272   7276   7275   7277     4  180.0000771  4.6024000  2
   7292   7296   7295   7297     4  180.0000771  4.6024000  2
   7301   7305   7304   7306     4  180.0000771  4.6024000  2
   7321   7325   7324   7326     4  180.0000771  4.6024000  2
   7330   7334   7333   7335     4  180.0000771  4.6024000  2
   7350   7354   7353   7355     4  180.0000771  4.6024000  2
   7359   7363   7362   7364     4  180.0000771  4.6024000  2
   7379   7383   7382   7384     4  180.0000771  4.6024000  2
   7388   7392   7391   7393     4  180.0000771  4.6024000  2
   7408   7412   7411   7413     4  180.0000771  4.6024000  2
   7417   7421   7420   7422     4  180.0000771  4.6024000  2
   7437   7441   7440   7442     4  180.0000771  4.6024000  2
   7446   7450   7449   7451     4  180.0000771  4.6024000  2
   7466   7470   7469   7471     4  180.0000771  4.6024000  2
   7475   7479   7478   7480     4  180.0000771  4.6024000  2
   7495   7499   7498   7500     4  180.0000771  4.6024000  2
   7504   7508   7507   7509     4  180.0000771  4.6024000  2
   7524   7528   7527   7529     4  180.0000771  4.6024000  2
   7533   7537   7536   7538     4  180.0000771  4.6024000  2
   7553   7557   7556   7558     4  180.0000771  4.6024000  2
   7562   7566   7565   7567     4  180.0000771  4.6024000  2
   7582   7586   7585   7587     4  180.0000771  4.6024000  2
   7591   7595   7594   7596     4  180.0000771  4.6024000  2
   7611   7615   7614   7616     4  180.0000771  4.6024000  2
   7620   7624   7623   7625     4  180.0000771  4.6024000  2
   7640   7644   7643   7645     4  180.0000771  4.6024000  2
   7649   7653   7652   7654     4  180.0000771  4.6024000  2
   7669   7673   7672   7674     4  180.0000771  4.6024000  2
   7678   7682   7681   7683     4  180.0000771  4.6024000  2
   7698   7702   7701   7703     4  180.0000771  4.6024000  2
   7707   7711   7710   7712     4  180.0000771  4.6024000  2
   7727   7731   7730   7732     4  180.0000771  4.6024000  2
   7736   7740   7739   7741     4  180.0000771  4.6024000  2
   7756   7760   7759   7761     4  180.0000771  4.6024000  2
   7765   7769   7768   7770     4  180.0000771  4.6024000  2
   7785   7789   7788   7790     4  180.0000771  4.6024000  2
   7794   7798   7797   7799     4  180.0000771  4.6024000  2
   7814   7818   7817   7819     4  180.0000771  4.6024000  2
   7823   7827   7826   7828     4  180.0000771  4.6024000  2
   7843   7847   7846   7848     4  180.0000771  4.6024000  2
   7852   7856   7855   7857     4  180.0000771  4.6024000  2
   7872   7876   7875   7877     4  180.0000771  4.6024000  2
   7881   7885   7884   7886     4  180.0000771  4.6024000  2
   7901   7905   7904   7906     4  180.0000771  4.6024000  2
   7910   7914   7913   7915     4  180.0000771  4.6024000  2
   7930   7934   7933   7935     4  180.0000771  4.6024000  2
   7939   7943   7942   7944     4  180.0000771  4.6024000  2
   7959   7963   7962   7964     4  180.0000771  4.6024000  2
   7968   7972   7971   7973     4  180.0000771  4.6024000  2
   7988   7992   7991   7993     4  180.0000771  4.6024000  2
   7997   8001   8000   8002     4  180.0000771  4.6024000  2
   8017   8021   8020   8022     4  180.0000771  4.6024000  2
   8026   8030   8029   8031     4  180.0000771  4.6024000  2
   8046   8050   8049   8051     4  180.0000771  4.6024000  2
   8055   8059   8058   8060     4  180.0000771  4.6024000  2
   8075   8079   8078   8080     4  180.0000771  4.6024000  2
   8084   8088   8087   8089     4  180.0000771  4.6024000  2
   8104   8108   8107   8109     4  180.0000771  4.6024000  2
   8113   8117   8116   8118     4  180.0000771  4.6024000  2
   8133   8137   8136   8138     4  180.0000771  4.6024000  2
   8142   8146   8145   8147     4  180.0000771  4.6024000  2
   8162   8166   8165   8167     4  180.0000771  4.6024000  2
   8171   8175   8174   8176     4  180.0000771  4.6024000  2
   8191   8195   8194   8196     4  180.0000771  4.6024000  2
   8200   8204   8203   8205     4  180.0000771  4.6024000  2
   8220   8224   8223   8225     4  180.0000771  4.6024000  2
   8229   8233   8232   8234     4  180.0000771  4.6024000  2
   8249   8253   8252   8254     4  180.0000771  4.6024000  2
   8258   8262   8261   8263     4  180.0000771  4.6024000  2
   8278   8282   8281   8283     4  180.0000771  4.6024000  2
   8287   8291   8290   8292     4  180.0000771  4.6024000  2
   8307   8311   8310   8312     4  180.0000771  4.6024000  2
   8316   8320   8319   8321     4  180.0000771  4.6024000  2
   8336   8340   8339   8341     4  180.0000771  4.6024000  2
   8345   8349   8348   8350     4  180.0000771  4.6024000  2
   8365   8369   8368   8370     4  180.0000771  4.6024000  2
   8374   8378   8377   8379     4  180.0000771  4.6024000  2
   8394   8398   8397   8399     4  180.0000771  4.6024000  2
   8403   8407   8406   8408     4  180.0000771  4.6024000  2
   8423   8427   8426   8428     4  180.0000771  4.6024000  2
   8432   8436   8435   8437     4  180.0000771  4.6024000  2
   8452   8456   8455   8457     4  180.0000771  4.6024000  2
   8461   8465   8464   8466     4  180.0000771  4.6024000  2
   8481   8485   8484   8486     4  180.0000771  4.6024000  2
   8490   8494   8493   8495     4  180.0000771  4.6024000  2
   8510   8514   8513   8515     4  180.0000771  4.6024000  2
   8519   8523   8522   8524     4  180.0000771  4.6024000  2
   8539   8543   8542   8544     4  180.0000771  4.6024000  2
   8548   8552   8551   8553     4  180.0000771  4.6024000  2
   8568   8572   8571   8573     4  180.0000771  4.6024000  2
   8577   8581   8580   8582     4  180.0000771  4.6024000  2
   8597   8601   8600   8602     4  180.0000771  4.6024000  2
   8606   8610   8609   8611     4  180.0000771  4.6024000  2
   8626   8630   8629   8631     4  180.0000771  4.6024000  2
   8635   8639   8638   8640     4  180.0000771  4.6024000  2
   8655   8659   8658   8660     4  180.0000771  4.6024000  2
   8664   8668   8667   8669     4  180.0000771  4.6024000  2
   8684   8688   8687   8689     4  180.0000771  4.6024000  2
   8693   8697   8696   8698     4  180.0000771  4.6024000  2
   8713   8717   8716   8718     4  180.0000771  4.6024000  2
   8722   8726   8725   8727     4  180.0000771  4.6024000  2
   8742   8746   8745   8747     4  180.0000771  4.6024000  2
   8751   8755   8754   8756     4  180.0000771  4.6024000  2
   8771   8775   8774   8776     4  180.0000771  4.6024000  2
   8780   8784   8783   8785     4  180.0000771  4.6024000  2
   8800   8804   8803   8805     4  180.0000771  4.6024000  2
   8809   8813   8812   8814     4  180.0000771  4.6024000  2
   8829   8833   8832   8834     4  180.0000771  4.6024000  2
   8838   8842   8841   8843     4  180.0000771  4.6024000  2
   8858   8862   8861   8863     4  180.0000771  4.6024000  2
   8867   8871   8870   8872     4  180.0000771  4.6024000  2
   8887   8891   8890   8892     4  180.0000771  4.6024000  2
   8896   8900   8899   8901     4  180.0000771  4.6024000  2
   8916   8920   8919   8921     4  180.0000771  4.6024000  2
   8925   8929   8928   8930     4  180.0000771  4.6024000  2
   8945   8949   8948   8950     4  180.0000771  4.6024000  2
   8954   8958   8957   8959     4  180.0000771  4.6024000  2
   8974   8978   8977   8979     4  180.0000771  4.6024000  2
   8983   8987   8986   8988     4  180.0000771  4.6024000  2
   9003   9007   9006   9008     4  180.0000771  4.6024000  2
   9012   9016   9015   9017     4  180.0000771  4.6024000  2
   9032   9036   9035   9037     4  180.0000771  4.6024000  2
   9041   9045   9044   9046     4  180.0000771  4.6024000  2
   9061   9065   9064   9066     4  180.0000771  4.6024000  2
   9070   9074   9073   9075     4  180.0000771  4.6024000  2
   9090   9094   9093   9095     4  180.0000771  4.6024000  2
   9099   9103   9102   9104     4  180.0000771  4.6024000  2
   9119   9123   9122   9124     4  180.0000771  4.6024000  2
   9128   9132   9131   9133     4  180.0000771  4.6024000  2
   9148   9152   9151   9153     4  180.0000771  4.6024000  2
   9157   9161   9160   9162     4  180.0000771  4.6024000  2
   9177   9181   9180   9182     4  180.0000771  4.6024000  2
   9186   9190   9189   9191     4  180.0000771  4.6024000  2
   9206   9210   9209   9211     4  180.0000771  4.6024000  2
   9215   9219   9218   9220     4  180.0000771  4.6024000  2
   9235   9239   9238   9240     4  180.0000771  4.6024000  2
   9244   9248   9247   9249     4  180.0000771  4.6024000  2
   9264   9268   9267   9269     4  180.0000771  4.6024000  2
   9273   9277   9276   9278     4  180.0000771  4.6024000  2
   9293   9297   9296   9298     4  180.0000771  4.6024000  2
   9302   9306   9305   9307     4  180.0000771  4.6024000  2
   9322   9326   9325   9327     4  180.0000771  4.6024000  2
   9331   9335   9334   9336     4  180.0000771  4.6024000  2
   9351   9355   9354   9356     4  180.0000771  4.6024000  2
   9360   9364   9363   9365     4  180.0000771  4.6024000  2
   9380   9384   9383   9385     4  180.0000771  4.6024000  2
   9389   9393   9392   9394     4  180.0000771  4.6024000  2
   9409   9413   9412   9414     4  180.0000771  4.6024000  2
   9418   9422   9421   9423     4  180.0000771  4.6024000  2
   9438   9442   9441   9443     4  180.0000771  4.6024000  2
   9447   9451   9450   9452     4  180.0000771  4.6024000  2
   9467   9471   9470   9472     4  180.0000771  4.6024000  2
   9476   9480   9479   9481     4  180.0000771  4.6024000  2
   9496   9500   9499   9501     4  180.0000771  4.6024000  2
   9505   9509   9508   9510     4  180.0000771  4.6024000  2
   9525   9529   9528   9530     4  180.0000771  4.6024000  2
   9534   9538   9537   9539     4  180.0000771  4.6024000  2
   9554   9558   9557   9559     4  180.0000771  4.6024000  2
   9563   9567   9566   9568     4  180.0000771  4.6024000  2
   9583   9587   9586   9588     4  180.0000771  4.6024000  2
   9592   9596   9595   9597     4  180.0000771  4.6024000  2
   9612   9616   9615   9617     4  180.0000771  4.6024000  2
   9621   9625   9624   9626     4  180.0000771  4.6024000  2
   9641   9645   9644   9646     4  180.0000771  4.6024000  2
   9650   9654   9653   9655     4  180.0000771  4.6024000  2
   9670   9674   9673   9675     4  180.0000771  4.6024000  2
   9679   9683   9682   9684     4  180.0000771  4.6024000  2
   9699   9703   9702   9704     4  180.0000771  4.6024000  2
   9708   9712   9711   9713     4  180.0000771  4.6024000  2
   9728   9732   9731   9733     4  180.0000771  4.6024000  2
   9737   9741   9740   9742     4  180.0000771  4.6024000  2
   9757   9761   9760   9762     4  180.0000771  4.6024000  2
   9766   9770   9769   9771     4  180.0000771  4.6024000  2
   9786   9790   9789   9791     4  180.0000771  4.6024000  2
   9795   9799   9798   9800     4  180.0000771  4.6024000  2
   9815   9819   9818   9820     4  180.0000771  4.6024000  2
   9824   9828   9827   9829     4  180.0000771  4.6024000  2
   9844   9848   9847   9849     4  180.0000771  4.6024000  2
   9853   9857   9856   9858     4  180.0000771  4.6024000  2
   9873   9877   9876   9878     4  180.0000771  4.6024000  2
   9882   9886   9885   9887     4  180.0000771  4.6024000  2
   9902   9906   9905   9907     4  180.0000771  4.6024000  2
   9911   9915   9914   9916     4  180.0000771  4.6024000  2
   9931   9935   9934   9936     4  180.0000771  4.6024000  2
   9940   9944   9943   9945     4  180.0000771  4.6024000  2
   9960   9964   9963   9965     4  180.0000771  4.6024000  2
   9969   9973   9972   9974     4  180.0000771  4.6024000  2
   9989   9993   9992   9994     4  180.0000771  4.6024000  2
   9998  10002  10001  10003     4  180.0000771  4.6024000  2
  10018  10022  10021  10023     4  180.0000771  4.6024000  2
  10027  10031  10030  10032     4  180.0000771  4.6024000  2
  10047  10051  10050  10052     4  180.0000771  4.6024000  2
  10056  10060  10059  10061     4  180.0000771  4.6024000  2
  10076  10080  10079  10081     4  180.0000771  4.6024000  2
  10085  10089  10088  10090     4  180.0000771  4.6024000  2
  10105  10109  10108  10110     4  180.0000771  4.6024000  2
  10114  10118  10117  10119     4  180.0000771  4.6024000  2
  10134  10138  10137  10139     4  180.0000771  4.6024000  2
  10143  10147  10146  10148     4  180.0000771  4.6024000  2
  10163  10167  10166  10168     4  180.0000771  4.6024000  2
  10172  10176  10175  10177     4  180.0000771  4.6024000  2
  10192  10196  10195  10197     4  180.0000771  4.6024000  2
  10201  10205  10204  10206     4  180.0000771  4.6024000  2
  10221  10225  10224  10226     4  180.0000771  4.6024000  2
  10230  10234  10233  10235     4  180.0000771  4.6024000  2
  10250  10254  10253  10255     4  180.0000771  4.6024000  2
  10259  10263  10262  10264     4  180.0000771  4.6024000  2
  10279  10283  10282  10284     4  180.0000771  4.6024000  2
  10288  10292  10291  10293     4  180.0000771  4.6024000  2
  10308  10312  10311  10313     4  180.0000771  4.6024000  2
  10317  10321  10320  10322     4  180.0000771  4.6024000  2
  10337  10341  10340  10342     4  180.0000771  4.6024000  2
  10346  10350  10349  10351     4  180.0000771  4.6024000  2
  10366  10370  10369  10371     4  180.0000771  4.6024000  2
  10375  10379  10378  10380     4  180.0000771  4.6024000  2
  10395  10399  10398  10400     4  180.0000771  4.6024000  2
  10404  10408  10407  10409     4  180.0000771  4.6024000  2
  10424  10428  10427  10429     4  180.0000771  4.6024000  2
  10433  10437  10436  10438     4  180.0000771  4.6024000  2
  10453  10457  10456  10458     4  180.0000771  4.6024000  2
  10462  10466  10465  10467     4  180.0000771  4.6024000  2
  10482  10486  10485  10487     4  180.0000771  4.6024000  2
  10491  10495  10494  10496     4  180.0000771  4.6024000  2
  10511  10515  10514  10516     4  180.0000771  4.6024000  2
  10520  10524  10523  10525     4  180.0000771  4.6024000  2
  10540  10544  10543  10545     4  180.0000771  4.6024000  2
  10549  10553  10552  10554     4  180.0000771  4.6024000  2
  10569  10573  10572  10574     4  180.0000771  4.6024000  2
  10578  10582  10581  10583     4  180.0000771  4.6024000  2
  10598  10602  10601  10603     4  180.0000771  4.6024000  2
  10607  10611  10610  10612     4  180.0000771  4.6024000  2
  10627  10631  10630  10632     4  180.0000771  4.6024000  2
  10636  10640  10639  10641     4  180.0000771  4.6024000  2
  10656  10660  10659  10661     4  180.0000771  4.6024000  2
  10665  10669  10668  10670     4  180.0000771  4.6024000  2
  10685  10689  10688  10690     4  180.0000771  4.6024000  2
  10694  10698  10697  10699     4  180.0000771  4.6024000  2
  10714  10718  10717  10719     4  180.0000771  4.6024000  2
  10723  10727  10726  10728     4  180.0000771  4.6024000  2
  10743  10747  10746  10748     4  180.0000771  4.6024000  2
  10752  10756  10755  10757     4  180.0000771  4.6024000  2
  10772  10776  10775  10777     4  180.0000771  4.6024000  2
  10781  10785  10784  10786     4  180.0000771  4.6024000  2
  10801  10805  10804  10806     4  180.0000771  4.6024000  2
  10810  10814  10813  10815     4  180.0000771  4.6024000  2
  10830  10834  10833  10835     4  180.0000771  4.6024000  2
  10839  10843  10842  10844     4  180.0000771  4.6024000  2
  10859  10863  10862  10864     4  180.0000771  4.6024000  2
  10868  10872  10871  10873     4  180.0000771  4.6024000  2
  10888  10892  10891  10893     4  180.0000771  4.6024000  2
  10897  10901  10900  10902     4  180.0000771  4.6024000  2
  10917  10921  10920  10922     4  180.0000771  4.6024000  2
  10926  10930  10929  10931     4  180.0000771  4.6024000  2
  10946  10950  10949  10951     4  180.0000771  4.6024000  2
  10955  10959  10958  10960     4  180.0000771  4.6024000  2
  10975  10979  10978  10980     4  180.0000771  4.6024000  2
  10984  10988  10987  10989     4  180.0000771  4.6024000  2
  11004  11008  11007  11009     4  180.0000771  4.6024000  2
  11013  11017  11016  11018     4  180.0000771  4.6024000  2
  11033  11037  11036  11038     4  180.0000771  4.6024000  2
  11042  11046  11045  11047     4  180.0000771  4.6024000  2
  11062  11066  11065  11067     4  180.0000771  4.6024000  2
  11071  11075  11074  11076     4  180.0000771  4.6024000  2
      1      2     14     15     1  0.0000000  0.6508444  3
      1      2     14     16     1  0.0000000  0.6508444  3
      1      5     17     18     1  0.0000000  0.6508444  3
      1      5     17     19     1  0.0000000  0.6508444  3
      1      8     11     12     1  0.0000000  0.6508444  3
      1      8     11     13     1  0.0000000  0.6508444  3
      2      1      5      6     1  0.0000000  1.2552000  3
      2      1      5      7     1  0.0000000  1.2552000  3
      2      1      8      9     1  0.0000000  1.2552000  3
      2      1      8     10     1  0.0000000  1.2552000  3
      2     14     26     27     1  0.0000000  0.6508444  3
      2     14     26     28     1  0.0000000  0.6508444  3
      5      1      2      3     1  0.0000000  1.2552000  3
      8      1      2      3     1  0.0000000  1.2552000  3
      3      2     14     26     1  0.0000000  0.6508444  3
      3      2     14     15     1  0.0000000  0.6508444  3
      3      2     14     16     1  0.0000000  0.6508444  3
      5      1      2      4     1  0.0000000  1.2552000  3
      8      1      2      4     1  0.0000000  1.2552000  3
      4      2     14     26     1  0.0000000  0.6508444  3
      4      2     14     15     1  0.0000000  0.6508444  3
      4      2     14     16     1  0.0000000  0.6508444  3
      5      1      8      9     1  0.0000000  1.2552000  3
      5      1      8     10     1  0.0000000  1.2552000  3
      5     17     20     21     1  0.0000000  0.6508444  3
      5     17     20     22     1  0.0000000  0.6508444  3
      8      1      5      6     1  0.0000000  1.2552000  3
      6      5     17     20     1  0.0000000  0.6508444  3
      6      5     17     18     1  0.0000000  0.6508444  3
      6      5     17     19     1  0.0000000  0.6508444  3
      8      1      5      7     1  0.0000000  1.2552000  3
      7      5     17     20     1  0.0000000  0.6508444  3
      7      5     17     18     1  0.0000000  0.6508444  3
      7      5     17     19     1  0.0000000  0.6508444  3
      8     11     23     24     1  0.0000000  0.6508444  3
      8     11     23     25     1  0.0000000  0.6508444  3
      9      8     11     23     1  0.0000000  0.6508444  3
      9      8     11     12     1  0.0000000  0.6508444  3
      9      8     11     13     1  0.0000000  0.6508444  3
     10      8     11     23     1  0.0000000  0.6508444  3
     10      8     11     12     1  0.0000000  0.6508444  3
     10      8     11     13     1  0.0000000  0.6508444  3
     12     11     23     86     1  0.0000000  1.0460000  1
     12     11     23     86     1  0.0000000  0.0000000  3
     12     11     23     24     1  0.0000000  0.6508444  3
     12     11     23     25     1  0.0000000  0.6508444  3
     13     11     23     86     1  0.0000000  1.0460000  1
     13     11     23     86     1  0.0000000  0.0000000  3
     13     11     23     24     1  0.0000000  0.6508444  3
     13     11     23     25     1  0.0000000  0.6508444  3
     15     14     26    115     1  0.0000000  1.0460000  1
     15     14     26    115     1  0.0000000  0.0000000  3
     15     14     26     27     1  0.0000000  0.6508444  3
     15     14     26     28     1  0.0000000  0.6508444  3
     16     14     26    115     1  0.0000000  1.0460000  1
     16     14     26    115     1  0.0000000  0.0000000  3
     16     14     26     27     1  0.0000000  0.6508444  3
     16     14     26     28     1  0.0000000  0.6508444  3
     18     17     20     57     1  0.0000000  1.0460000  1
     18     17     20     57     1  0.0000000  0.0000000  3
     18     17     20     21     1  0.0000000  0.6508444  3
     18     17     20     22     1  0.0000000  0.6508444  3
     19     17     20     57     1  0.0000000  1.0460000  1
     19     17     20     57     1  0.0000000  0.0000000  3
     19     17     20     21     1  0.0000000  0.6508444  3
     19     17     20     22     1  0.0000000  0.6508444  3
     20     57     48     49     1  0.0000000  1.6038667  3
     20     57     48     50     1  0.0000000  1.6038667  3
     21     20     57     48     1  0.0000000  1.6038667  3
     22     20     57     48     1  0.0000000  1.6038667  3
     23     86     77     78     1  0.0000000  1.6038667  3
     23     86     77     79     1  0.0000000  1.6038667  3
     24     23     86     77     1  0.0000000  1.6038667  3
     25     23     86     77     1  0.0000000  1.6038667  3
     26    115    106    107     1  0.0000000  1.6038667  3
     26    115    106    108     1  0.0000000  1.6038667  3
     27     26    115    106     1  0.0000000  1.6038667  3
     28     26    115    106     1  0.0000000  1.6038667  3
     29     30     42     43     1  0.0000000  0.6508444  3
     29     30     42     44     1  0.0000000  0.6508444  3
     29     33     45     46     1  0.0000000  0.6508444  3
     29     33     45     47     1  0.0000000  0.6508444  3
     29     36     39     40     1  0.0000000  0.6508444  3
     29     36     39     41     1  0.0000000  0.6508444  3
     30     29     33     34     1  0.0000000  1.2552000  3
     30     29     33     35     1  0.0000000  1.2552000  3
     30     29     36     37     1  0.0000000  1.2552000  3
     30     29     36     38     1  0.0000000  1.2552000  3
     30     42     54     55     1  0.0000000  0.6508444  3
     30     42     54     56     1  0.0000000  0.6508444  3
     31     30     29     33     1  0.0000000  1.2552000  3
     31     30     29     36     1  0.0000000  1.2552000  3
     31     30     42     54     1  0.0000000  0.6508444  3
     31     30     42     43     1  0.0000000  0.6508444  3
     31     30     42     44     1  0.0000000  0.6508444  3
     32     30     29     33     1  0.0000000  1.2552000  3
     32     30     29     36     1  0.0000000  1.2552000  3
     32     30     42     54     1  0.0000000  0.6508444  3
     32     30     42     43     1  0.0000000  0.6508444  3
     32     30     42     44     1  0.0000000  0.6508444  3
     33     29     36     37     1  0.0000000  1.2552000  3
     33     29     36     38     1  0.0000000  1.2552000  3
     33     45     51     52     1  0.0000000  0.6508444  3
     33     45     51     53     1  0.0000000  0.6508444  3
     34     33     29     36     1  0.0000000  1.2552000  3
     34     33     45     51     1  0.0000000  0.6508444  3
     34     33     45     46     1  0.0000000  0.6508444  3
     34     33     45     47     1  0.0000000  0.6508444  3
     35     33     29     36     1  0.0000000  1.2552000  3
     35     33     45     51     1  0.0000000  0.6508444  3
     35     33     45     46     1  0.0000000  0.6508444  3
     35     33     45     47     1  0.0000000  0.6508444  3
     36     39     48     49     1  0.0000000  0.6508444  3
     36     39     48     50     1  0.0000000  0.6508444  3
     37     36     39     48     1  0.0000000  0.6508444  3
     37     36     39     40     1  0.0000000  0.6508444  3
     37     36     39     41     1  0.0000000  0.6508444  3
     38     36     39     48     1  0.0000000  0.6508444  3
     38     36     39     40     1  0.0000000  0.6508444  3
     38     36     39     41     1  0.0000000  0.6508444  3
     40     39     48     57     1  0.0000000  1.0460000  1
     40     39     48     57     1  0.0000000  0.0000000  3
     40     39     48     49     1  0.0000000  0.6508444  3
     40     39     48     50     1  0.0000000  0.6508444  3
     41     39     48     57     1  0.0000000  1.0460000  1
     41     39     48     57     1  0.0000000  0.0000000  3
     41     39     48     49     1  0.0000000  0.6508444  3
     41     39     48     50     1  0.0000000  0.6508444  3
     43     42     54    173     1  0.0000000  1.0460000  1
     43     42     54    173     1  0.0000000  0.0000000  3
     43     42     54     55     1  0.0000000  0.6508444  3
     43     42     54     56     1  0.0000000  0.6508444  3
     44     42     54    173     1  0.0000000  1.0460000  1
     44     42     54    173     1  0.0000000  0.0000000  3
     44     42     54     55     1  0.0000000  0.6508444  3
     44     42     54     56     1  0.0000000  0.6508444  3
     46     45     51    144     1  0.0000000  1.0460000  1
     46     45     51    144     1  0.0000000  0.0000000  3
     46     45     51     52     1  0.0000000  0.6508444  3
     46     45     51     53     1  0.0000000  0.6508444  3
     47     45     51    144     1  0.0000000  1.0460000  1
     47     45     51    144     1  0.0000000  0.0000000  3
     47     45     51     52     1  0.0000000  0.6508444  3
     47     45     51     53     1  0.0000000  0.6508444  3
     51    144    135    136     1  0.0000000  1.6038667  3
     51    144    135    137     1  0.0000000  1.6038667  3
     52     51    144    135     1  0.0000000  1.6038667  3
     53     51    144    135     1  0.0000000  1.6038667  3
     54    173    164    165     1  0.0000000  1.6038667  3
     54    173    164    166     1  0.0000000  1.6038667  3
     55     54    173    164     1  0.0000000  1.6038667  3
     56     54    173    164     1  0.0000000  1.6038667  3
     58     59     71     72     1  0.0000000  0.6508444  3
     58     59     71     73     1  0.0000000  0.6508444  3
     58     62     74     75     1  0.0000000  0.6508444  3
     58     62     74     76     1  0.0000000  0.6508444  3
     58     65     68     69     1  0.0000000  0.6508444  3
     58     65     68     70     1  0.0000000  0.6508444  3
     59     58     62     63     1  0.0000000  1.2552000  3
     59     58     62     64     1  0.0000000  1.2552000  3
     59     58     65     66     1  0.0000000  1.2552000  3
     59     58     65     67     1  0.0000000  1.2552000  3
     59     71     83     84     1  0.0000000  0.6508444  3
     59     71     83     85     1  0.0000000  0.6508444  3
     60     59     58     62     1  0.0000000  1.2552000  3
     60     59     58     65     1  0.0000000  1.2552000  3
     60     59     71     83     1  0.0000000  0.6508444  3
     60     59     71     72     1  0.0000000  0.6508444  3
     60     59     71     73     1  0.0000000  0.6508444  3
     61     59     58     62     1  0.0000000  1.2552000  3
     61     59     58     65     1  0.0000000  1.2552000  3
     61     59     71     83     1  0.0000000  0.6508444  3
     61     59     71     72     1  0.0000000  0.6508444  3
     61     59     71     73     1  0.0000000  0.6508444  3
     62     58     65     66     1  0.0000000  1.2552000  3
     62     58     65     67     1  0.0000000  1.2552000  3
     62     74     80     81     1  0.0000000  0.6508444  3
     62     74     80     82     1  0.0000000  0.6508444  3
     63     62     58     65     1  0.0000000  1.2552000  3
     63     62     74     80     1  0.0000000  0.6508444  3
     63     62     74     75     1  0.0000000  0.6508444  3
     63     62     74     76     1  0.0000000  0.6508444  3
     64     62     58     65     1  0.0000000  1.2552000  3
     64     62     74     80     1  0.0000000  0.6508444  3
     64     62     74     75     1  0.0000000  0.6508444  3
     64     62     74     76     1  0.0000000  0.6508444  3
     65     68     77     78     1  0.0000000  0.6508444  3
     65     68     77     79     1  0.0000000  0.6508444  3
     66     65     68     77     1  0.0000000  0.6508444  3
     66     65     68     69     1  0.0000000  0.6508444  3
     66     65     68     70     1  0.0000000  0.6508444  3
     67     65     68     77     1  0.0000000  0.6508444  3
     67     65     68     69     1  0.0000000  0.6508444  3
     67     65     68     70     1  0.0000000  0.6508444  3
     69     68     77     86     1  0.0000000  1.0460000  1
     69     68     77     86     1  0.0000000  0.0000000  3
     69     68     77     78     1  0.0000000  0.6508444  3
     69     68     77     79     1  0.0000000  0.6508444  3
     70     68     77     86     1  0.0000000  1.0460000  1
     70     68     77     86     1  0.0000000  0.0000000  3
     70     68     77     78     1  0.0000000  0.6508444  3
     70     68     77     79     1  0.0000000  0.6508444  3
     72     71     83    231     1  0.0000000  1.0460000  1
     72     71     83    231     1  0.0000000  0.0000000  3
     72     71     83     84     1  0.0000000  0.6508444  3
     72     71     83     85     1  0.0000000  0.6508444  3
     73     71     83    231     1  0.0000000  1.0460000  1
     73     71     83    231     1  0.0000000  0.0000000  3
     73     71     83     84     1  0.0000000  0.6508444  3
     73     71     83     85     1  0.0000000  0.6508444  3
     75     74     80    202     1  0.0000000  1.0460000  1
     75     74     80    202     1  0.0000000  0.0000000  3
     75     74     80     81     1  0.0000000  0.6508444  3
     75     74     80     82     1  0.0000000  0.6508444  3
     76     74     80    202     1  0.0000000  1.0460000  1
     76     74     80    202     1  0.0000000  0.0000000  3
     76     74     80     81     1  0.0000000  0.6508444  3
     76     74     80     82     1  0.0000000  0.6508444  3
     80    202    193    194     1  0.0000000  1.6038667  3
     80    202    193    195     1  0.0000000  1.6038667  3
     81     80    202    193     1  0.0000000  1.6038667  3
     82     80    202    193     1  0.0000000  1.6038667  3
     83    231    222    223     1  0.0000000  1.6038667  3
     83    231    222    224     1  0.0000000  1.6038667  3
     84     83    231    222     1  0.0000000  1.6038667  3
     85     83    231    222     1  0.0000000  1.6038667  3
     87     88    100    101     1  0.0000000  0.6508444  3
     87     88    100    102     1  0.0000000  0.6508444  3
     87     91    103    104     1  0.0000000  0.6508444  3
     87     91    103    105     1  0.0000000  0.6508444  3
     87     94     97     98     1  0.0000000  0.6508444  3
     87     94     97     99     1  0.0000000  0.6508444  3
     88     87     91     92     1  0.0000000  1.2552000  3
     88     87     91     93     1  0.0000000  1.2552000  3
     88     87     94     95     1  0.0000000  1.2552000  3
     88     87     94     96     1  0.0000000  1.2552000  3
     88    100    112    113     1  0.0000000  0.6508444  3
     88    100    112    114     1  0.0000000  0.6508444  3
     89     88     87     91     1  0.0000000  1.2552000  3
     89     88     87     94     1  0.0000000  1.2552000  3
     89     88    100    112     1  0.0000000  0.6508444  3
     89     88    100    101     1  0.0000000  0.6508444  3
     89     88    100    102     1  0.0000000  0.6508444  3
     90     88     87     91     1  0.0000000  1.2552000  3
     90     88     87     94     1  0.0000000  1.2552000  3
     90     88    100    112     1  0.0000000  0.6508444  3
     90     88    100    101     1  0.0000000  0.6508444  3
     90     88    100    102     1  0.0000000  0.6508444  3
     91     87     94     95     1  0.0000000  1.2552000  3
     91     87     94     96     1  0.0000000  1.2552000  3
     91    103    109    110     1  0.0000000  0.6508444  3
     91    103    109    111     1  0.0000000  0.6508444  3
     92     91     87     94     1  0.0000000  1.2552000  3
     92     91    103    109     1  0.0000000  0.6508444  3
     92     91    103    104     1  0.0000000  0.6508444  3
     92     91    103    105     1  0.0000000  0.6508444  3
     93     91     87     94     1  0.0000000  1.2552000  3
     93     91    103    109     1  0.0000000  0.6508444  3
     93     91    103    104     1  0.0000000  0.6508444  3
     93     91    103    105     1  0.0000000  0.6508444  3
     94     97    106    107     1  0.0000000  0.6508444  3
     94     97    106    108     1  0.0000000  0.6508444  3
     95     94     97    106     1  0.0000000  0.6508444  3
     95     94     97     98     1  0.0000000  0.6508444  3
     95     94     97     99     1  0.0000000  0.6508444  3
     96     94     97    106     1  0.0000000  0.6508444  3
     96     94     97     98     1  0.0000000  0.6508444  3
     96     94     97     99     1  0.0000000  0.6508444  3
     98     97    106    115     1  0.0000000  1.0460000  1
     98     97    106    115     1  0.0000000  0.0000000  3
     98     97    106    107     1  0.0000000  0.6508444  3
     98     97    106    108     1  0.0000000  0.6508444  3
     99     97    106    115     1  0.0000000  1.0460000  1
     99     97    106    115     1  0.0000000  0.0000000  3
     99     97    106    107     1  0.0000000  0.6508444  3
     99     97    106    108     1  0.0000000  0.6508444  3
    101    100    112    289     1  0.0000000  1.0460000  1
    101    100    112    289     1  0.0000000  0.0000000  3
    101    100    112    113     1  0.0000000  0.6508444  3
    101    100    112    114     1  0.0000000  0.6508444  3
    102    100    112    289     1  0.0000000  1.0460000  1
    102    100    112    289     1  0.0000000  0.0000000  3
    102    100    112    113     1  0.0000000  0.6508444  3
    102    100    112    114     1  0.0000000  0.6508444  3
    104    103    109    260     1  0.0000000  1.0460000  1
    104    103    109    260     1  0.0000000  0.0000000  3
    104    103    109    110     1  0.0000000  0.6508444  3
    104    103    109    111     1  0.0000000  0.6508444  3
    105    103    109    260     1  0.0000000  1.0460000  1
    105    103    109    260     1  0.0000000  0.0000000  3
    105    103    109    110     1  0.0000000  0.6508444  3
    105    103    109    111     1  0.0000000  0.6508444  3
    109    260    251    252     1  0.0000000  1.6038667  3
    109    260    251    253     1  0.0000000  1.6038667  3
    110    109    260    251     1  0.0000000  1.6038667  3
    111    109    260    251     1  0.0000000  1.6038667  3
    112    289    280    281     1  0.0000000  1.6038667  3
    112    289    280    282     1  0.0000000  1.6038667  3
    113    112    289    280     1  0.0000000  1.6038667  3
    114    112    289    280     1  0.0000000  1.6038667  3
    116    117    129    130     1  0.0000000  0.6508444  3
    116    117    129    131     1  0.0000000  0.6508444  3
    116    120    132    133     1  0.0000000  0.6508444  3
    116    120    132    134     1  0.0000000  0.6508444  3
    116    123    126    127     1  0.0000000  0.6508444  3
    116    123    126    128     1  0.0000000  0.6508444  3
    117    116    120    121     1  0.0000000  1.2552000  3
    117    116    120    122     1  0.0000000  1.2552000  3
    117    116    123    124     1  0.0000000  1.2552000  3
    117    116    123    125     1  0.0000000  1.2552000  3
    117    129    141    142     1  0.0000000  0.6508444  3
    117    129    141    143     1  0.0000000  0.6508444  3
    118    117    116    120     1  0.0000000  1.2552000  3
    118    117    116    123     1  0.0000000  1.2552000  3
    118    117    129    141     1  0.0000000  0.6508444  3
    118    117    129    130     1  0.0000000  0.6508444  3
    118    117    129    131     1  0.0000000  0.6508444  3
    119    117    116    120     1  0.0000000  1.2552000  3
    119    117    116    123     1  0.0000000  1.2552000  3
    119    117    129    141     1  0.0000000  0.6508444  3
    119    117    129    130     1  0.0000000  0.6508444  3
    119    117    129    131     1  0.0000000  0.6508444  3
    120    116    123    124     1  0.0000000  1.2552000  3
    120    116    123    125     1  0.0000000  1.2552000  3
    120    132    138    139     1  0.0000000  0.6508444  3
    120    132    138    140     1  0.0000000  0.6508444  3
    121    120    116    123     1  0.0000000  1.2552000  3
    121    120    132    138     1  0.0000000  0.6508444  3
    121    120    132    133     1  0.0000000  0.6508444  3
    121    120    132    134     1  0.0000000  0.6508444  3
    122    120    116    123     1  0.0000000  1.2552000  3
    122    120    132    138     1  0.0000000  0.6508444  3
    122    120    132    133     1  0.0000000  0.6508444  3
    122    120    132    134     1  0.0000000  0.6508444  3
    123    126    135    136     1  0.0000000  0.6508444  3
    123    126    135    137     1  0.0000000  0.6508444  3
    124    123    126    135     1  0.0000000  0.6508444  3
    124    123    126    127     1  0.0000000  0.6508444  3
    124    123    126    128     1  0.0000000  0.6508444  3
    125    123    126    135     1  0.0000000  0.6508444  3
    125    123    126    127     1  0.0000000  0.6508444  3
    125    123    126    128     1  0.0000000  0.6508444  3
    127    126    135    144     1  0.0000000  1.0460000  1
    127    126    135    144     1  0.0000000  0.0000000  3
    127    126    135    136     1  0.0000000  0.6508444  3
    127    126    135    137     1  0.0000000  0.6508444  3
    128    126    135    144     1  0.0000000  1.0460000  1
    128    126    135    144     1  0.0000000  0.0000000  3
    128    126    135    136     1  0.0000000  0.6508444  3
    128    126    135    137     1  0.0000000  0.6508444  3
    130    129    141    347     1  0.0000000  1.0460000  1
    130    129    141    347     1  0.0000000  0.0000000  3
    130    129    141    142     1  0.0000000  0.6508444  3
    130    129    141    143     1  0.0000000  0.6508444  3
    131    129    141    347     1  0.0000000  1.0460000  1
    131    129    141    347     1  0.0000000  0.0000000  3
    131    129    141    142     1  0.0000000  0.6508444  3
    131    129    141    143     1  0.0000000  0.6508444  3
    133    132    138    318     1  0.0000000  1.0460000  1
    133    132    138    318     1  0.0000000  0.0000000  3
    133    132    138    139     1  0.0000000  0.6508444  3
    133    132    138    140     1  0.0000000  0.6508444  3
    134    132    138    318     1  0.0000000  1.0460000  1
    134    132    138    318     1  0.0000000  0.0000000  3
    134    132    138    139     1  0.0000000  0.6508444  3
    134    132    138    140     1  0.0000000  0.6508444  3
    138    318    309    310     1  0.0000000  1.6038667  3
    138    318    309    311     1  0.0000000  1.6038667  3
    139    138    318    309     1  0.0000000  1.6038667  3
    140    138    318    309     1  0.0000000  1.6038667  3
    141    347    338    339     1  0.0000000  1.6038667  3
    141    347    338    340     1  0.0000000  1.6038667  3
    142    141    347    338     1  0.0000000  1.6038667  3
    143    141    347    338     1  0.0000000  1.6038667  3
    145    146    158    159     1  0.0000000  0.6508444  3
    145    146    158    160     1  0.0000000  0.6508444  3
    145    149    161    162     1  0.0000000  0.6508444  3
    145    149    161    163     1  0.0000000  0.6508444  3
    145    152    155    156     1  0.0000000  0.6508444  3
    145    152    155    157     1  0.0000000  0.6508444  3
    146    145    149    150     1  0.0000000  1.2552000  3
    146    145    149    151     1  0.0000000  1.2552000  3
    146    145    152    153     1  0.0000000  1.2552000  3
    146    145    152    154     1  0.0000000  1.2552000  3
    146    158    170    171     1  0.0000000  0.6508444  3
    146    158    170    172     1  0.0000000  0.6508444  3
    147    146    145    149     1  0.0000000  1.2552000  3
    147    146    145    152     1  0.0000000  1.2552000  3
    147    146    158    170     1  0.0000000  0.6508444  3
    147    146    158    159     1  0.0000000  0.6508444  3
    147    146    158    160     1  0.0000000  0.6508444  3
    148    146    145    149     1  0.0000000  1.2552000  3
    148    146    145    152     1  0.0000000  1.2552000  3
    148    146    158    170     1  0.0000000  0.6508444  3
    148    146    158    159     1  0.0000000  0.6508444  3
    148    146    158    160     1  0.0000000  0.6508444  3
    149    145    152    153     1  0.0000000  1.2552000  3
    149    145    152    154     1  0.0000000  1.2552000  3
    149    161    167    168     1  0.0000000  0.6508444  3
    149    161    167    169     1  0.0000000  0.6508444  3
    150    149    145    152     1  0.0000000  1.2552000  3
    150    149    161    167     1  0.0000000  0.6508444  3
    150    149    161    162     1  0.0000000  0.6508444  3
    150    149    161    163     1  0.0000000  0.6508444  3
    151    149    145    152     1  0.0000000  1.2552000  3
    151    149    161    167     1  0.0000000  0.6508444  3
    151    149    161    162     1  0.0000000  0.6508444  3
    151    149    161    163     1  0.0000000  0.6508444  3
    152    155    164    165     1  0.0000000  0.6508444  3
    152    155    164    166     1  0.0000000  0.6508444  3
    153    152    155    164     1  0.0000000  0.6508444  3
    153    152    155    156     1  0.0000000  0.6508444  3
    153    152    155    157     1  0.0000000  0.6508444  3
    154    152    155    164     1  0.0000000  0.6508444  3
    154    152    155    156     1  0.0000000  0.6508444  3
    154    152    155    157     1  0.0000000  0.6508444  3
    156    155    164    173     1  0.0000000  1.0460000  1
    156    155    164    173     1  0.0000000  0.0000000  3
    156    155    164    165     1  0.0000000  0.6508444  3
    156    155    164    166     1  0.0000000  0.6508444  3
    157    155    164    173     1  0.0000000  1.0460000  1
    157    155    164    173     1  0.0000000  0.0000000  3
    157    155    164    165     1  0.0000000  0.6508444  3
    157    155    164    166     1  0.0000000  0.6508444  3
    159    158    170    405     1  0.0000000  1.0460000  1
    159    158    170    405     1  0.0000000  0.0000000  3
    159    158    170    171     1  0.0000000  0.6508444  3
    159    158    170    172     1  0.0000000  0.6508444  3
    160    158    170    405     1  0.0000000  1.0460000  1
    160    158    170    405     1  0.0000000  0.0000000  3
    160    158    170    171     1  0.0000000  0.6508444  3
    160    158    170    172     1  0.0000000  0.6508444  3
    162    161    167    376     1  0.0000000  1.0460000  1
    162    161    167    376     1  0.0000000  0.0000000  3
    162    161    167    168     1  0.0000000  0.6508444  3
    162    161    167    169     1  0.0000000  0.6508444  3
    163    161    167    376     1  0.0000000  1.0460000  1
    163    161    167    376     1  0.0000000  0.0000000  3
    163    161    167    168     1  0.0000000  0.6508444  3
    163    161    167    169     1  0.0000000  0.6508444  3
    167    376    367    368     1  0.0000000  1.6038667  3
    167    376    367    369     1  0.0000000  1.6038667  3
    168    167    376    367     1  0.0000000  1.6038667  3
    169    167    376    367     1  0.0000000  1.6038667  3
    170    405    396    397     1  0.0000000  1.6038667  3
    170    405    396    398     1  0.0000000  1.6038667  3
    171    170    405    396     1  0.0000000  1.6038667  3
    172    170    405    396     1  0.0000000  1.6038667  3
    174    175    187    188     1  0.0000000  0.6508444  3
    174    175    187    189     1  0.0000000  0.6508444  3
    174    178    190    191     1  0.0000000  0.6508444  3
    174    178    190    192     1  0.0000000  0.6508444  3
    174    181    184    185     1  0.0000000  0.6508444  3
    174    181    184    186     1  0.0000000  0.6508444  3
    175    174    178    179     1  0.0000000  1.2552000  3
    175    174    178    180     1  0.0000000  1.2552000  3
    175    174    181    182     1  0.0000000  1.2552000  3
    175    174    181    183     1  0.0000000  1.2552000  3
    175    187    199    200     1  0.0000000  0.6508444  3
    175    187    199    201     1  0.0000000  0.6508444  3
    176    175    174    178     1  0.0000000  1.2552000  3
    176    175    174    181     1  0.0000000  1.2552000  3
    176    175    187    199     1  0.0000000  0.6508444  3
    176    175    187    188     1  0.0000000  0.6508444  3
    176    175    187    189     1  0.0000000  0.6508444  3
    177    175    174    178     1  0.0000000  1.2552000  3
    177    175    174    181     1  0.0000000  1.2552000  3
    177    175    187    199     1  0.0000000  0.6508444  3
    177    175    187    188     1  0.0000000  0.6508444  3
    177    175    187    189     1  0.0000000  0.6508444  3
    178    174    181    182     1  0.0000000  1.2552000  3
    178    174    181    183     1  0.0000000  1.2552000  3
    178    190    196    197     1  0.0000000  0.6508444  3
    178    190    196    198     1  0.0000000  0.6508444  3
    179    178    174    181     1  0.0000000  1.2552000  3
    179    178    190    196     1  0.0000000  0.6508444  3
    179    178    190    191     1  0.0000000  0.6508444  3
    179    178    190    192     1  0.0000000  0.6508444  3
    180    178    174    181     1  0.0000000  1.2552000  3
    180    178    190    196     1  0.0000000  0.6508444  3
    180    178    190    191     1  0.0000000  0.6508444  3
    180    178    190    192     1  0.0000000  0.6508444  3
    181    184    193    194     1  0.0000000  0.6508444  3
    181    184    193    195     1  0.0000000  0.6508444  3
    182    181    184    193     1  0.0000000  0.6508444  3
    182    181    184    185     1  0.0000000  0.6508444  3
    182    181    184    186     1  0.0000000  0.6508444  3
    183    181    184    193     1  0.0000000  0.6508444  3
    183    181    184    185     1  0.0000000  0.6508444  3
    183    181    184    186     1  0.0000000  0.6508444  3
    185    184    193    202     1  0.0000000  1.0460000  1
    185    184    193    202     1  0.0000000  0.0000000  3
    185    184    193    194     1  0.0000000  0.6508444  3
    185    184    193    195     1  0.0000000  0.6508444  3
    186    184    193    202     1  0.0000000  1.0460000  1
    186    184    193    202     1  0.0000000  0.0000000  3
    186    184    193    194     1  0.0000000  0.6508444  3
    186    184    193    195     1  0.0000000  0.6508444  3
    188    187    199    463     1  0.0000000  1.0460000  1
    188    187    199    463     1  0.0000000  0.0000000  3
    188    187    199    200     1  0.0000000  0.6508444  3
    188    187    199    201     1  0.0000000  0.6508444  3
    189    187    199    463     1  0.0000000  1.0460000  1
    189    187    199    463     1  0.0000000  0.0000000  3
    189    187    199    200     1  0.0000000  0.6508444  3
    189    187    199    201     1  0.0000000  0.6508444  3
    191    190    196    434     1  0.0000000  1.0460000  1
    191    190    196    434     1  0.0000000  0.0000000  3
    191    190    196    197     1  0.0000000  0.6508444  3
    191    190    196    198     1  0.0000000  0.6508444  3
    192    190    196    434     1  0.0000000  1.0460000  1
    192    190    196    434     1  0.0000000  0.0000000  3
    192    190    196    197     1  0.0000000  0.6508444  3
    192    190    196    198     1  0.0000000  0.6508444  3
    196    434    425    426     1  0.0000000  1.6038667  3
    196    434    425    427     1  0.0000000  1.6038667  3
    197    196    434    425     1  0.0000000  1.6038667  3
    198    196    434    425     1  0.0000000  1.6038667  3
    199    463    454    455     1  0.0000000  1.6038667  3
    199    463    454    456     1  0.0000000  1.6038667  3
    200    199    463    454     1  0.0000000  1.6038667  3
    201    199    463    454     1  0.0000000  1.6038667  3
    203    204    216    217     1  0.0000000  0.6508444  3
    203    204    216    218     1  0.0000000  0.6508444  3
    203    207    219    220     1  0.0000000  0.6508444  3
    203    207    219    221     1  0.0000000  0.6508444  3
    203    210    213    214     1  0.0000000  0.6508444  3
    203    210    213    215     1  0.0000000  0.6508444  3
    204    203    207    208     1  0.0000000  1.2552000  3
    204    203    207    209     1  0.0000000  1.2552000  3
    204    203    210    211     1  0.0000000  1.2552000  3
    204    203    210    212     1  0.0000000  1.2552000  3
    204    216    228    229     1  0.0000000  0.6508444  3
    204    216    228    230     1  0.0000000  0.6508444  3
    205    204    203    207     1  0.0000000  1.2552000  3
    205    204    203    210     1  0.0000000  1.2552000  3
    205    204    216    228     1  0.0000000  0.6508444  3
    205    204    216    217     1  0.0000000  0.6508444  3
    205    204    216    218     1  0.0000000  0.6508444  3
    206    204    203    207     1  0.0000000  1.2552000  3
    206    204    203    210     1  0.0000000  1.2552000  3
    206    204    216    228     1  0.0000000  0.6508444  3
    206    204    216    217     1  0.0000000  0.6508444  3
    206    204    216    218     1  0.0000000  0.6508444  3
    207    203    210    211     1  0.0000000  1.2552000  3
    207    203    210    212     1  0.0000000  1.2552000  3
    207    219    225    226     1  0.0000000  0.6508444  3
    207    219    225    227     1  0.0000000  0.6508444  3
    208    207    203    210     1  0.0000000  1.2552000  3
    208    207    219    225     1  0.0000000  0.6508444  3
    208    207    219    220     1  0.0000000  0.6508444  3
    208    207    219    221     1  0.0000000  0.6508444  3
    209    207    203    210     1  0.0000000  1.2552000  3
    209    207    219    225     1  0.0000000  0.6508444  3
    209    207    219    220     1  0.0000000  0.6508444  3
    209    207    219    221     1  0.0000000  0.6508444  3
    210    213    222    223     1  0.0000000  0.6508444  3
    210    213    222    224     1  0.0000000  0.6508444  3
    211    210    213    222     1  0.0000000  0.6508444  3
    211    210    213    214     1  0.0000000  0.6508444  3
    211    210    213    215     1  0.0000000  0.6508444  3
    212    210    213    222     1  0.0000000  0.6508444  3
    212    210    213    214     1  0.0000000  0.6508444  3
    212    210    213    215     1  0.0000000  0.6508444  3
    214    213    222    231     1  0.0000000  1.0460000  1
    214    213    222    231     1  0.0000000  0.0000000  3
    214    213    222    223     1  0.0000000  0.6508444  3
    214    213    222    224     1  0.0000000  0.6508444  3
    215    213    222    231     1  0.0000000  1.0460000  1
    215    213    222    231     1  0.0000000  0.0000000  3
    215    213    222    223     1  0.0000000  0.6508444  3
    215    213    222    224     1  0.0000000  0.6508444  3
    217    216    228    521     1  0.0000000  1.0460000  1
    217    216    228    521     1  0.0000000  0.0000000  3
    217    216    228    229     1  0.0000000  0.6508444  3
    217    216    228    230     1  0.0000000  0.6508444  3
    218    216    228    521     1  0.0000000  1.0460000  1
    218    216    228    521     1  0.0000000  0.0000000  3
    218    216    228    229     1  0.0000000  0.6508444  3
    218    216    228    230     1  0.0000000  0.6508444  3
    220    219    225    492     1  0.0000000  1.0460000  1
    220    219    225    492     1  0.0000000  0.0000000  3
    220    219    225    226     1  0.0000000  0.6508444  3
    220    219    225    227     1  0.0000000  0.6508444  3
    221    219    225    492     1  0.0000000  1.0460000  1
    221    219    225    492     1  0.0000000  0.0000000  3
    221    219    225    226     1  0.0000000  0.6508444  3
    221    219    225    227     1  0.0000000  0.6508444  3
    225    492    483    484     1  0.0000000  1.6038667  3
    225    492    483    485     1  0.0000000  1.6038667  3
    226    225    492    483     1  0.0000000  1.6038667  3
    227    225    492    483     1  0.0000000  1.6038667  3
    228    521    512    513     1  0.0000000  1.6038667  3
    228    521    512    514     1  0.0000000  1.6038667  3
    229    228    521    512     1  0.0000000  1.6038667  3
    230    228    521    512     1  0.0000000  1.6038667  3
    232    233    245    246     1  0.0000000  0.6508444  3
    232    233    245    247     1  0.0000000  0.6508444  3
    232    236    248    249     1  0.0000000  0.6508444  3
    232    236    248    250     1  0.0000000  0.6508444  3
    232    239    242    243     1  0.0000000  0.6508444  3
    232    239    242    244     1  0.0000000  0.6508444  3
    233    232    236    237     1  0.0000000  1.2552000  3
    233    232    236    238     1  0.0000000  1.2552000  3
    233    232    239    240     1  0.0000000  1.2552000  3
    233    232    239    241     1  0.0000000  1.2552000  3
    233    245    257    258     1  0.0000000  0.6508444  3
    233    245    257    259     1  0.0000000  0.6508444  3
    234    233    232    236     1  0.0000000  1.2552000  3
    234    233    232    239     1  0.0000000  1.2552000  3
    234    233    245    257     1  0.0000000  0.6508444  3
    234    233    245    246     1  0.0000000  0.6508444  3
    234    233    245    247     1  0.0000000  0.6508444  3
    235    233    232    236     1  0.0000000  1.2552000  3
    235    233    232    239     1  0.0000000  1.2552000  3
    235    233    245    257     1  0.0000000  0.6508444  3
    235    233    245    246     1  0.0000000  0.6508444  3
    235    233    245    247     1  0.0000000  0.6508444  3
    236    232    239    240     1  0.0000000  1.2552000  3
    236    232    239    241     1  0.0000000  1.2552000  3
    236    248    254    255     1  0.0000000  0.6508444  3
    236    248    254    256     1  0.0000000  0.6508444  3
    237    236    232    239     1  0.0000000  1.2552000  3
    237    236    248    254     1  0.0000000  0.6508444  3
    237    236    248    249     1  0.0000000  0.6508444  3
    237    236    248    250     1  0.0000000  0.6508444  3
    238    236    232    239     1  0.0000000  1.2552000  3
    238    236    248    254     1  0.0000000  0.6508444  3
    238    236    248    249     1  0.0000000  0.6508444  3
    238    236    248    250     1  0.0000000  0.6508444  3
    239    242    251    252     1  0.0000000  0.6508444  3
    239    242    251    253     1  0.0000000  0.6508444  3
    240    239    242    251     1  0.0000000  0.6508444  3
    240    239    242    243     1  0.0000000  0.6508444  3
    240    239    242    244     1  0.0000000  0.6508444  3
    241    239    242    251     1  0.0000000  0.6508444  3
    241    239    242    243     1  0.0000000  0.6508444  3
    241    239    242    244     1  0.0000000  0.6508444  3
    243    242    251    260     1  0.0000000  1.0460000  1
    243    242    251    260     1  0.0000000  0.0000000  3
    243    242    251    252     1  0.0000000  0.6508444  3
    243    242    251    253     1  0.0000000  0.6508444  3
    244    242    251    260     1  0.0000000  1.0460000  1
    244    242    251    260     1  0.0000000  0.0000000  3
    244    242    251    252     1  0.0000000  0.6508444  3
    244    242    251    253     1  0.0000000  0.6508444  3
    246    245    257    579     1  0.0000000  1.0460000  1
    246    245    257    579     1  0.0000000  0.0000000  3
    246    245    257    258     1  0.0000000  0.6508444  3
    246    245    257    259     1  0.0000000  0.6508444  3
    247    245    257    579     1  0.0000000  1.0460000  1
    247    245    257    579     1  0.0000000  0.0000000  3
    247    245    257    258     1  0.0000000  0.6508444  3
    247    245    257    259     1  0.0000000  0.6508444  3
    249    248    254    550     1  0.0000000  1.0460000  1
    249    248    254    550     1  0.0000000  0.0000000  3
    249    248    254    255     1  0.0000000  0.6508444  3
    249    248    254    256     1  0.0000000  0.6508444  3
    250    248    254    550     1  0.0000000  1.0460000  1
    250    248    254    550     1  0.0000000  0.0000000  3
    250    248    254    255     1  0.0000000  0.6508444  3
    250    248    254    256     1  0.0000000  0.6508444  3
    254    550    541    542     1  0.0000000  1.6038667  3
    254    550    541    543     1  0.0000000  1.6038667  3
    255    254    550    541     1  0.0000000  1.6038667  3
    256    254    550    541     1  0.0000000  1.6038667  3
    257    579    570    571     1  0.0000000  1.6038667  3
    257    579    570    572     1  0.0000000  1.6038667  3
    258    257    579    570     1  0.0000000  1.6038667  3
    259    257    579    570     1  0.0000000  1.6038667  3
    261    262    274    275     1  0.0000000  0.6508444  3
    261    262    274    276     1  0.0000000  0.6508444  3
    261    265    277    278     1  0.0000000  0.6508444  3
    261    265    277    279     1  0.0000000  0.6508444  3
    261    268    271    272     1  0.0000000  0.6508444  3
    261    268    271    273     1  0.0000000  0.6508444  3
    262    261    265    266     1  0.0000000  1.2552000  3
    262    261    265    267     1  0.0000000  1.2552000  3
    262    261    268    269     1  0.0000000  1.2552000  3
    262    261    268    270     1  0.0000000  1.2552000  3
    262    274    286    287     1  0.0000000  0.6508444  3
    262    274    286    288     1  0.0000000  0.6508444  3
    263    262    261    265     1  0.0000000  1.2552000  3
    263    262    261    268     1  0.0000000  1.2552000  3
    263    262    274    286     1  0.0000000  0.6508444  3
    263    262    274    275     1  0.0000000  0.6508444  3
    263    262    274    276     1  0.0000000  0.6508444  3
    264    262    261    265     1  0.0000000  1.2552000  3
    264    262    261    268     1  0.0000000  1.2552000  3
    264    262    274    286     1  0.0000000  0.6508444  3
    264    262    274    275     1  0.0000000  0.6508444  3
    264    262    274    276     1  0.0000000  0.6508444  3
    265    261    268    269     1  0.0000000  1.2552000  3
    265    261    268    270     1  0.0000000  1.2552000  3
    265    277    283    284     1  0.0000000  0.6508444  3
    265    277    283    285     1  0.0000000  0.6508444  3
    266    265    261    268     1  0.0000000  1.2552000  3
    266    265    277    283     1  0.0000000  0.6508444  3
    266    265    277    278     1  0.0000000  0.6508444  3
    266    265    277    279     1  0.0000000  0.6508444  3
    267    265    261    268     1  0.0000000  1.2552000  3
    267    265    277    283     1  0.0000000  0.6508444  3
    267    265    277    278     1  0.0000000  0.6508444  3
    267    265    277    279     1  0.0000000  0.6508444  3
    268    271    280    281     1  0.0000000  0.6508444  3
    268    271    280    282     1  0.0000000  0.6508444  3
    269    268    271    280     1  0.0000000  0.6508444  3
    269    268    271    272     1  0.0000000  0.6508444  3
    269    268    271    273     1  0.0000000  0.6508444  3
    270    268    271    280     1  0.0000000  0.6508444  3
    270    268    271    272     1  0.0000000  0.6508444  3
    270    268    271    273     1  0.0000000  0.6508444  3
    272    271    280    289     1  0.0000000  1.0460000  1
    272    271    280    289     1  0.0000000  0.0000000  3
    272    271    280    281     1  0.0000000  0.6508444  3
    272    271    280    282     1  0.0000000  0.6508444  3
    273    271    280    289     1  0.0000000  1.0460000  1
    273    271    280    289     1  0.0000000  0.0000000  3
    273    271    280    281     1  0.0000000  0.6508444  3
    273    271    280    282     1  0.0000000  0.6508444  3
    275    274    286    637     1  0.0000000  1.0460000  1
    275    274    286    637     1  0.0000000  0.0000000  3
    275    274    286    287     1  0.0000000  0.6508444  3
    275    274    286    288     1  0.0000000  0.6508444  3
    276    274    286    637     1  0.0000000  1.0460000  1
    276    274    286    637     1  0.0000000  0.0000000  3
    276    274    286    287     1  0.0000000  0.6508444  3
    276    274    286    288     1  0.0000000  0.6508444  3
    278    277    283    608     1  0.0000000  1.0460000  1
    278    277    283    608     1  0.0000000  0.0000000  3
    278    277    283    284     1  0.0000000  0.6508444  3
    278    277    283    285     1  0.0000000  0.6508444  3
    279    277    283    608     1  0.0000000  1.0460000  1
    279    277    283    608     1  0.0000000  0.0000000  3
    279    277    283    284     1  0.0000000  0.6508444  3
    279    277    283    285     1  0.0000000  0.6508444  3
    283    608    599    600     1  0.0000000  1.6038667  3
    283    608    599    601     1  0.0000000  1.6038667  3
    284    283    608    599     1  0.0000000  1.6038667  3
    285    283    608    599     1  0.0000000  1.6038667  3
    286    637    628    629     1  0.0000000  1.6038667  3
    286    637    628    630     1  0.0000000  1.6038667  3
    287    286    637    628     1  0.0000000  1.6038667  3
    288    286    637    628     1  0.0000000  1.6038667  3
    290    291    303    304     1  0.0000000  0.6508444  3
    290    291    303    305     1  0.0000000  0.6508444  3
    290    294    306    307     1  0.0000000  0.6508444  3
    290    294    306    308     1  0.0000000  0.6508444  3
    290    297    300    301     1  0.0000000  0.6508444  3
    290    297    300    302     1  0.0000000  0.6508444  3
    291    290    294    295     1  0.0000000  1.2552000  3
    291    290    294    296     1  0.0000000  1.2552000  3
    291    290    297    298     1  0.0000000  1.2552000  3
    291    290    297    299     1  0.0000000  1.2552000  3
    291    303    315    316     1  0.0000000  0.6508444  3
    291    303    315    317     1  0.0000000  0.6508444  3
    292    291    290    294     1  0.0000000  1.2552000  3
    292    291    290    297     1  0.0000000  1.2552000  3
    292    291    303    315     1  0.0000000  0.6508444  3
    292    291    303    304     1  0.0000000  0.6508444  3
    292    291    303    305     1  0.0000000  0.6508444  3
    293    291    290    294     1  0.0000000  1.2552000  3
    293    291    290    297     1  0.0000000  1.2552000  3
    293    291    303    315     1  0.0000000  0.6508444  3
    293    291    303    304     1  0.0000000  0.6508444  3
    293    291    303    305     1  0.0000000  0.6508444  3
    294    290    297    298     1  0.0000000  1.2552000  3
    294    290    297    299     1  0.0000000  1.2552000  3
    294    306    312    313     1  0.0000000  0.6508444  3
    294    306    312    314     1  0.0000000  0.6508444  3
    295    294    290    297     1  0.0000000  1.2552000  3
    295    294    306    312     1  0.0000000  0.6508444  3
    295    294    306    307     1  0.0000000  0.6508444  3
    295    294    306    308     1  0.0000000  0.6508444  3
    296    294    290    297     1  0.0000000  1.2552000  3
    296    294    306    312     1  0.0000000  0.6508444  3
    296    294    306    307     1  0.0000000  0.6508444  3
    296    294    306    308     1  0.0000000  0.6508444  3
    297    300    309    310     1  0.0000000  0.6508444  3
    297    300    309    311     1  0.0000000  0.6508444  3
    298    297    300    309     1  0.0000000  0.6508444  3
    298    297    300    301     1  0.0000000  0.6508444  3
    298    297    300    302     1  0.0000000  0.6508444  3
    299    297    300    309     1  0.0000000  0.6508444  3
    299    297    300    301     1  0.0000000  0.6508444  3
    299    297    300    302     1  0.0000000  0.6508444  3
    301    300    309    318     1  0.0000000  1.0460000  1
    301    300    309    318     1  0.0000000  0.0000000  3
    301    300    309    310     1  0.0000000  0.6508444  3
    301    300    309    311     1  0.0000000  0.6508444  3
    302    300    309    318     1  0.0000000  1.0460000  1
    302    300    309    318     1  0.0000000  0.0000000  3
    302    300    309    310     1  0.0000000  0.6508444  3
    302    300    309    311     1  0.0000000  0.6508444  3
    304    303    315    695     1  0.0000000  1.0460000  1
    304    303    315    695     1  0.0000000  0.0000000  3
    304    303    315    316     1  0.0000000  0.6508444  3
    304    303    315    317     1  0.0000000  0.6508444  3
    305    303    315    695     1  0.0000000  1.0460000  1
    305    303    315    695     1  0.0000000  0.0000000  3
    305    303    315    316     1  0.0000000  0.6508444  3
    305    303    315    317     1  0.0000000  0.6508444  3
    307    306    312    666     1  0.0000000  1.0460000  1
    307    306    312    666     1  0.0000000  0.0000000  3
    307    306    312    313     1  0.0000000  0.6508444  3
    307    306    312    314     1  0.0000000  0.6508444  3
    308    306    312    666     1  0.0000000  1.0460000  1
    308    306    312    666     1  0.0000000  0.0000000  3
    308    306    312    313     1  0.0000000  0.6508444  3
    308    306    312    314     1  0.0000000  0.6508444  3
    312    666    657    658     1  0.0000000  1.6038667  3
    312    666    657    659     1  0.0000000  1.6038667  3
    313    312    666    657     1  0.0000000  1.6038667  3
    314    312    666    657     1  0.0000000  1.6038667  3
    315    695    686    687     1  0.0000000  1.6038667  3
    315    695    686    688     1  0.0000000  1.6038667  3
    316    315    695    686     1  0.0000000  1.6038667  3
    317    315    695    686     1  0.0000000  1.6038667  3
    319    320    332    333     1  0.0000000  0.6508444  3
    319    320    332    334     1  0.0000000  0.6508444  3
    319    323    335    336     1  0.0000000  0.6508444  3
    319    323    335    337     1  0.0000000  0.6508444  3
    319    326    329    330     1  0.0000000  0.6508444  3
    319    326    329    331     1  0.0000000  0.6508444  3
    320    319    323    324     1  0.0000000  1.2552000  3
    320    319    323    325     1  0.0000000  1.2552000  3
    320    319    326    327     1  0.0000000  1.2552000  3
    320    319    326    328     1  0.0000000  1.2552000  3
    320    332    344    345     1  0.0000000  0.6508444  3
    320    332    344    346     1  0.0000000  0.6508444  3
    321    320    319    323     1  0.0000000  1.2552000  3
    321    320    319    326     1  0.0000000  1.2552000  3
    321    320    332    344     1  0.0000000  0.6508444  3
    321    320    332    333     1  0.0000000  0.6508444  3
    321    320    332    334     1  0.0000000  0.6508444  3
    322    320    319    323     1  0.0000000  1.2552000  3
    322    320    319    326     1  0.0000000  1.2552000  3
    322    320    332    344     1  0.0000000  0.6508444  3
    322    320    332    333     1  0.0000000  0.6508444  3
    322    320    332    334     1  0.0000000  0.6508444  3
    323    319    326    327     1  0.0000000  1.2552000  3
    323    319    326    328     1  0.0000000  1.2552000  3
    323    335    341    342     1  0.0000000  0.6508444  3
    323    335    341    343     1  0.0000000  0.6508444  3
    324    323    319    326     1  0.0000000  1.2552000  3
    324    323    335    341     1  0.0000000  0.6508444  3
    324    323    335    336     1  0.0000000  0.6508444  3
    324    323    335    337     1  0.0000000  0.6508444  3
    325    323    319    326     1  0.0000000  1.2552000  3
    325    323    335    341     1  0.0000000  0.6508444  3
    325    323    335    336     1  0.0000000  0.6508444  3
    325    323    335    337     1  0.0000000  0.6508444  3
    326    329    338    339     1  0.0000000  0.6508444  3
    326    329    338    340     1  0.0000000  0.6508444  3
    327    326    329    338     1  0.0000000  0.6508444  3
    327    326    329    330     1  0.0000000  0.6508444  3
    327    326    329    331     1  0.0000000  0.6508444  3
    328    326    329    338     1  0.0000000  0.6508444  3
    328    326    329    330     1  0.0000000  0.6508444  3
    328    326    329    331     1  0.0000000  0.6508444  3
    330    329    338    347     1  0.0000000  1.0460000  1
    330    329    338    347     1  0.0000000  0.0000000  3
    330    329    338    339     1  0.0000000  0.6508444  3
    330    329    338    340     1  0.0000000  0.6508444  3
    331    329    338    347     1  0.0000000  1.0460000  1
    331    329    338    347     1  0.0000000  0.0000000  3
    331    329    338    339     1  0.0000000  0.6508444  3
    331    329    338    340     1  0.0000000  0.6508444  3
    333    332    344    753     1  0.0000000  1.0460000  1
    333    332    344    753     1  0.0000000  0.0000000  3
    333    332    344    345     1  0.0000000  0.6508444  3
    333    332    344    346     1  0.0000000  0.6508444  3
    334    332    344    753     1  0.0000000  1.0460000  1
    334    332    344    753     1  0.0000000  0.0000000  3
    334    332    344    345     1  0.0000000  0.6508444  3
    334    332    344    346     1  0.0000000  0.6508444  3
    336    335    341    724     1  0.0000000  1.0460000  1
    336    335    341    724     1  0.0000000  0.0000000  3
    336    335    341    342     1  0.0000000  0.6508444  3
    336    335    341    343     1  0.0000000  0.6508444  3
    337    335    341    724     1  0.0000000  1.0460000  1
    337    335    341    724     1  0.0000000  0.0000000  3
    337    335    341    342     1  0.0000000  0.6508444  3
    337    335    341    343     1  0.0000000  0.6508444  3
    341    724    715    716     1  0.0000000  1.6038667  3
    341    724    715    717     1  0.0000000  1.6038667  3
    342    341    724    715     1  0.0000000  1.6038667  3
    343    341    724    715     1  0.0000000  1.6038667  3
    344    753    744    745     1  0.0000000  1.6038667  3
    344    753    744    746     1  0.0000000  1.6038667  3
    345    344    753    744     1  0.0000000  1.6038667  3
    346    344    753    744     1  0.0000000  1.6038667  3
    348    349    361    362     1  0.0000000  0.6508444  3
    348    349    361    363     1  0.0000000  0.6508444  3
    348    352    364    365     1  0.0000000  0.6508444  3
    348    352    364    366     1  0.0000000  0.6508444  3
    348    355    358    359     1  0.0000000  0.6508444  3
    348    355    358    360     1  0.0000000  0.6508444  3
    349    348    352    353     1  0.0000000  1.2552000  3
    349    348    352    354     1  0.0000000  1.2552000  3
    349    348    355    356     1  0.0000000  1.2552000  3
    349    348    355    357     1  0.0000000  1.2552000  3
    349    361    373    374     1  0.0000000  0.6508444  3
    349    361    373    375     1  0.0000000  0.6508444  3
    350    349    348    352     1  0.0000000  1.2552000  3
    350    349    348    355     1  0.0000000  1.2552000  3
    350    349    361    373     1  0.0000000  0.6508444  3
    350    349    361    362     1  0.0000000  0.6508444  3
    350    349    361    363     1  0.0000000  0.6508444  3
    351    349    348    352     1  0.0000000  1.2552000  3
    351    349    348    355     1  0.0000000  1.2552000  3
    351    349    361    373     1  0.0000000  0.6508444  3
    351    349    361    362     1  0.0000000  0.6508444  3
    351    349    361    363     1  0.0000000  0.6508444  3
    352    348    355    356     1  0.0000000  1.2552000  3
    352    348    355    357     1  0.0000000  1.2552000  3
    352    364    370    371     1  0.0000000  0.6508444  3
    352    364    370    372     1  0.0000000  0.6508444  3
    353    352    348    355     1  0.0000000  1.2552000  3
    353    352    364    370     1  0.0000000  0.6508444  3
    353    352    364    365     1  0.0000000  0.6508444  3
    353    352    364    366     1  0.0000000  0.6508444  3
    354    352    348    355     1  0.0000000  1.2552000  3
    354    352    364    370     1  0.0000000  0.6508444  3
    354    352    364    365     1  0.0000000  0.6508444  3
    354    352    364    366     1  0.0000000  0.6508444  3
    355    358    367    368     1  0.0000000  0.6508444  3
    355    358    367    369     1  0.0000000  0.6508444  3
    356    355    358    367     1  0.0000000  0.6508444  3
    356    355    358    359     1  0.0000000  0.6508444  3
    356    355    358    360     1  0.0000000  0.6508444  3
    357    355    358    367     1  0.0000000  0.6508444  3
    357    355    358    359     1  0.0000000  0.6508444  3
    357    355    358    360     1  0.0000000  0.6508444  3
    359    358    367    376     1  0.0000000  1.0460000  1
    359    358    367    376     1  0.0000000  0.0000000  3
    359    358    367    368     1  0.0000000  0.6508444  3
    359    358    367    369     1  0.0000000  0.6508444  3
    360    358    367    376     1  0.0000000  1.0460000  1
    360    358    367    376     1  0.0000000  0.0000000  3
    360    358    367    368     1  0.0000000  0.6508444  3
    360    358    367    369     1  0.0000000  0.6508444  3
    362    361    373    811     1  0.0000000  1.0460000  1
    362    361    373    811     1  0.0000000  0.0000000  3
    362    361    373    374     1  0.0000000  0.6508444  3
    362    361    373    375     1  0.0000000  0.6508444  3
    363    361    373    811     1  0.0000000  1.0460000  1
    363    361    373    811     1  0.0000000  0.0000000  3
    363    361    373    374     1  0.0000000  0.6508444  3
    363    361    373    375     1  0.0000000  0.6508444  3
    365    364    370    782     1  0.0000000  1.0460000  1
    365    364    370    782     1  0.0000000  0.0000000  3
    365    364    370    371     1  0.0000000  0.6508444  3
    365    364    370    372     1  0.0000000  0.6508444  3
    366    364    370    782     1  0.0000000  1.0460000  1
    366    364    370    782     1  0.0000000  0.0000000  3
    366    364    370    371     1  0.0000000  0.6508444  3
    366    364    370    372     1  0.0000000  0.6508444  3
    370    782    773    774     1  0.0000000  1.6038667  3
    370    782    773    775     1  0.0000000  1.6038667  3
    371    370    782    773     1  0.0000000  1.6038667  3
    372    370    782    773     1  0.0000000  1.6038667  3
    373    811    802    803     1  0.0000000  1.6038667  3
    373    811    802    804     1  0.0000000  1.6038667  3
    374    373    811    802     1  0.0000000  1.6038667  3
    375    373    811    802     1  0.0000000  1.6038667  3
    377    378    390    391     1  0.0000000  0.6508444  3
    377    378    390    392     1  0.0000000  0.6508444  3
    377    381    393    394     1  0.0000000  0.6508444  3
    377    381    393    395     1  0.0000000  0.6508444  3
    377    384    387    388     1  0.0000000  0.6508444  3
    377    384    387    389     1  0.0000000  0.6508444  3
    378    377    381    382     1  0.0000000  1.2552000  3
    378    377    381    383     1  0.0000000  1.2552000  3
    378    377    384    385     1  0.0000000  1.2552000  3
    378    377    384    386     1  0.0000000  1.2552000  3
    378    390    402    403     1  0.0000000  0.6508444  3
    378    390    402    404     1  0.0000000  0.6508444  3
    379    378    377    381     1  0.0000000  1.2552000  3
    379    378    377    384     1  0.0000000  1.2552000  3
    379    378    390    402     1  0.0000000  0.6508444  3
    379    378    390    391     1  0.0000000  0.6508444  3
    379    378    390    392     1  0.0000000  0.6508444  3
    380    378    377    381     1  0.0000000  1.2552000  3
    380    378    377    384     1  0.0000000  1.2552000  3
    380    378    390    402     1  0.0000000  0.6508444  3
    380    378    390    391     1  0.0000000  0.6508444  3
    380    378    390    392     1  0.0000000  0.6508444  3
    381    377    384    385     1  0.0000000  1.2552000  3
    381    377    384    386     1  0.0000000  1.2552000  3
    381    393    399    400     1  0.0000000  0.6508444  3
    381    393    399    401     1  0.0000000  0.6508444  3
    382    381    377    384     1  0.0000000  1.2552000  3
    382    381    393    399     1  0.0000000  0.6508444  3
    382    381    393    394     1  0.0000000  0.6508444  3
    382    381    393    395     1  0.0000000  0.6508444  3
    383    381    377    384     1  0.0000000  1.2552000  3
    383    381    393    399     1  0.0000000  0.6508444  3
    383    381    393    394     1  0.0000000  0.6508444  3
    383    381    393    395     1  0.0000000  0.6508444  3
    384    387    396    397     1  0.0000000  0.6508444  3
    384    387    396    398     1  0.0000000  0.6508444  3
    385    384    387    396     1  0.0000000  0.6508444  3
    385    384    387    388     1  0.0000000  0.6508444  3
    385    384    387    389     1  0.0000000  0.6508444  3
    386    384    387    396     1  0.0000000  0.6508444  3
    386    384    387    388     1  0.0000000  0.6508444  3
    386    384    387    389     1  0.0000000  0.6508444  3
    388    387    396    405     1  0.0000000  1.0460000  1
    388    387    396    405     1  0.0000000  0.0000000  3
    388    387    396    397     1  0.0000000  0.6508444  3
    388    387    396    398     1  0.0000000  0.6508444  3
    389    387    396    405     1  0.0000000  1.0460000  1
    389    387    396    405     1  0.0000000  0.0000000  3
    389    387    396    397     1  0.0000000  0.6508444  3
    389    387    396    398     1  0.0000000  0.6508444  3
    391    390    402    869     1  0.0000000  1.0460000  1
    391    390    402    869     1  0.0000000  0.0000000  3
    391    390    402    403     1  0.0000000  0.6508444  3
    391    390    402    404     1  0.0000000  0.6508444  3
    392    390    402    869     1  0.0000000  1.0460000  1
    392    390    402    869     1  0.0000000  0.0000000  3
    392    390    402    403     1  0.0000000  0.6508444  3
    392    390    402    404     1  0.0000000  0.6508444  3
    394    393    399    840     1  0.0000000  1.0460000  1
    394    393    399    840     1  0.0000000  0.0000000  3
    394    393    399    400     1  0.0000000  0.6508444  3
    394    393    399    401     1  0.0000000  0.6508444  3
    395    393    399    840     1  0.0000000  1.0460000  1
    395    393    399    840     1  0.0000000  0.0000000  3
    395    393    399    400     1  0.0000000  0.6508444  3
    395    393    399    401     1  0.0000000  0.6508444  3
    399    840    831    832     1  0.0000000  1.6038667  3
    399    840    831    833     1  0.0000000  1.6038667  3
    400    399    840    831     1  0.0000000  1.6038667  3
    401    399    840    831     1  0.0000000  1.6038667  3
    402    869    860    861     1  0.0000000  1.6038667  3
    402    869    860    862     1  0.0000000  1.6038667  3
    403    402    869    860     1  0.0000000  1.6038667  3
    404    402    869    860     1  0.0000000  1.6038667  3
    406    407    419    420     1  0.0000000  0.6508444  3
    406    407    419    421     1  0.0000000  0.6508444  3
    406    410    422    423     1  0.0000000  0.6508444  3
    406    410    422    424     1  0.0000000  0.6508444  3
    406    413    416    417     1  0.0000000  0.6508444  3
    406    413    416    418     1  0.0000000  0.6508444  3
    407    406    410    411     1  0.0000000  1.2552000  3
    407    406    410    412     1  0.0000000  1.2552000  3
    407    406    413    414     1  0.0000000  1.2552000  3
    407    406    413    415     1  0.0000000  1.2552000  3
    407    419    431    432     1  0.0000000  0.6508444  3
    407    419    431    433     1  0.0000000  0.6508444  3
    408    407    406    410     1  0.0000000  1.2552000  3
    408    407    406    413     1  0.0000000  1.2552000  3
    408    407    419    431     1  0.0000000  0.6508444  3
    408    407    419    420     1  0.0000000  0.6508444  3
    408    407    419    421     1  0.0000000  0.6508444  3
    409    407    406    410     1  0.0000000  1.2552000  3
    409    407    406    413     1  0.0000000  1.2552000  3
    409    407    419    431     1  0.0000000  0.6508444  3
    409    407    419    420     1  0.0000000  0.6508444  3
    409    407    419    421     1  0.0000000  0.6508444  3
    410    406    413    414     1  0.0000000  1.2552000  3
    410    406    413    415     1  0.0000000  1.2552000  3
    410    422    428    429     1  0.0000000  0.6508444  3
    410    422    428    430     1  0.0000000  0.6508444  3
    411    410    406    413     1  0.0000000  1.2552000  3
    411    410    422    428     1  0.0000000  0.6508444  3
    411    410    422    423     1  0.0000000  0.6508444  3
    411    410    422    424     1  0.0000000  0.6508444  3
    412    410    406    413     1  0.0000000  1.2552000  3
    412    410    422    428     1  0.0000000  0.6508444  3
    412    410    422    423     1  0.0000000  0.6508444  3
    412    410    422    424     1  0.0000000  0.6508444  3
    413    416    425    426     1  0.0000000  0.6508444  3
    413    416    425    427     1  0.0000000  0.6508444  3
    414    413    416    425     1  0.0000000  0.6508444  3
    414    413    416    417     1  0.0000000  0.6508444  3
    414    413    416    418     1  0.0000000  0.6508444  3
    415    413    416    425     1  0.0000000  0.6508444  3
    415    413    416    417     1  0.0000000  0.6508444  3
    415    413    416    418     1  0.0000000  0.6508444  3
    417    416    425    434     1  0.0000000  1.0460000  1
    417    416    425    434     1  0.0000000  0.0000000  3
    417    416    425    426     1  0.0000000  0.6508444  3
    417    416    425    427     1  0.0000000  0.6508444  3
    418    416    425    434     1  0.0000000  1.0460000  1
    418    416    425    434     1  0.0000000  0.0000000  3
    418    416    425    426     1  0.0000000  0.6508444  3
    418    416    425    427     1  0.0000000  0.6508444  3
    420    419    431    927     1  0.0000000  1.0460000  1
    420    419    431    927     1  0.0000000  0.0000000  3
    420    419    431    432     1  0.0000000  0.6508444  3
    420    419    431    433     1  0.0000000  0.6508444  3
    421    419    431    927     1  0.0000000  1.0460000  1
    421    419    431    927     1  0.0000000  0.0000000  3
    421    419    431    432     1  0.0000000  0.6508444  3
    421    419    431    433     1  0.0000000  0.6508444  3
    423    422    428    898     1  0.0000000  1.0460000  1
    423    422    428    898     1  0.0000000  0.0000000  3
    423    422    428    429     1  0.0000000  0.6508444  3
    423    422    428    430     1  0.0000000  0.6508444  3
    424    422    428    898     1  0.0000000  1.0460000  1
    424    422    428    898     1  0.0000000  0.0000000  3
    424    422    428    429     1  0.0000000  0.6508444  3
    424    422    428    430     1  0.0000000  0.6508444  3
    428    898    889    890     1  0.0000000  1.6038667  3
    428    898    889    891     1  0.0000000  1.6038667  3
    429    428    898    889     1  0.0000000  1.6038667  3
    430    428    898    889     1  0.0000000  1.6038667  3
    431    927    918    919     1  0.0000000  1.6038667  3
    431    927    918    920     1  0.0000000  1.6038667  3
    432    431    927    918     1  0.0000000  1.6038667  3
    433    431    927    918     1  0.0000000  1.6038667  3
    435    436    448    449     1  0.0000000  0.6508444  3
    435    436    448    450     1  0.0000000  0.6508444  3
    435    439    451    452     1  0.0000000  0.6508444  3
    435    439    451    453     1  0.0000000  0.6508444  3
    435    442    445    446     1  0.0000000  0.6508444  3
    435    442    445    447     1  0.0000000  0.6508444  3
    436    435    439    440     1  0.0000000  1.2552000  3
    436    435    439    441     1  0.0000000  1.2552000  3
    436    435    442    443     1  0.0000000  1.2552000  3
    436    435    442    444     1  0.0000000  1.2552000  3
    436    448    460    461     1  0.0000000  0.6508444  3
    436    448    460    462     1  0.0000000  0.6508444  3
    437    436    435    439     1  0.0000000  1.2552000  3
    437    436    435    442     1  0.0000000  1.2552000  3
    437    436    448    460     1  0.0000000  0.6508444  3
    437    436    448    449     1  0.0000000  0.6508444  3
    437    436    448    450     1  0.0000000  0.6508444  3
    438    436    435    439     1  0.0000000  1.2552000  3
    438    436    435    442     1  0.0000000  1.2552000  3
    438    436    448    460     1  0.0000000  0.6508444  3
    438    436    448    449     1  0.0000000  0.6508444  3
    438    436    448    450     1  0.0000000  0.6508444  3
    439    435    442    443     1  0.0000000  1.2552000  3
    439    435    442    444     1  0.0000000  1.2552000  3
    439    451    457    458     1  0.0000000  0.6508444  3
    439    451    457    459     1  0.0000000  0.6508444  3
    440    439    435    442     1  0.0000000  1.2552000  3
    440    439    451    457     1  0.0000000  0.6508444  3
    440    439    451    452     1  0.0000000  0.6508444  3
    440    439    451    453     1  0.0000000  0.6508444  3
    441    439    435    442     1  0.0000000  1.2552000  3
    441    439    451    457     1  0.0000000  0.6508444  3
    441    439    451    452     1  0.0000000  0.6508444  3
    441    439    451    453     1  0.0000000  0.6508444  3
    442    445    454    455     1  0.0000000  0.6508444  3
    442    445    454    456     1  0.0000000  0.6508444  3
    443    442    445    454     1  0.0000000  0.6508444  3
    443    442    445    446     1  0.0000000  0.6508444  3
    443    442    445    447     1  0.0000000  0.6508444  3
    444    442    445    454     1  0.0000000  0.6508444  3
    444    442    445    446     1  0.0000000  0.6508444  3
    444    442    445    447     1  0.0000000  0.6508444  3
    446    445    454    463     1  0.0000000  1.0460000  1
    446    445    454    463     1  0.0000000  0.0000000  3
    446    445    454    455     1  0.0000000  0.6508444  3
    446    445    454    456     1  0.0000000  0.6508444  3
    447    445    454    463     1  0.0000000  1.0460000  1
    447    445    454    463     1  0.0000000  0.0000000  3
    447    445    454    455     1  0.0000000  0.6508444  3
    447    445    454    456     1  0.0000000  0.6508444  3
    449    448    460    985     1  0.0000000  1.0460000  1
    449    448    460    985     1  0.0000000  0.0000000  3
    449    448    460    461     1  0.0000000  0.6508444  3
    449    448    460    462     1  0.0000000  0.6508444  3
    450    448    460    985     1  0.0000000  1.0460000  1
    450    448    460    985     1  0.0000000  0.0000000  3
    450    448    460    461     1  0.0000000  0.6508444  3
    450    448    460    462     1  0.0000000  0.6508444  3
    452    451    457    956     1  0.0000000  1.0460000  1
    452    451    457    956     1  0.0000000  0.0000000  3
    452    451    457    458     1  0.0000000  0.6508444  3
    452    451    457    459     1  0.0000000  0.6508444  3
    453    451    457    956     1  0.0000000  1.0460000  1
    453    451    457    956     1  0.0000000  0.0000000  3
    453    451    457    458     1  0.0000000  0.6508444  3
    453    451    457    459     1  0.0000000  0.6508444  3
    457    956    947    948     1  0.0000000  1.6038667  3
    457    956    947    949     1  0.0000000  1.6038667  3
    458    457    956    947     1  0.0000000  1.6038667  3
    459    457    956    947     1  0.0000000  1.6038667  3
    460    985    976    977     1  0.0000000  1.6038667  3
    460    985    976    978     1  0.0000000  1.6038667  3
    461    460    985    976     1  0.0000000  1.6038667  3
    462    460    985    976     1  0.0000000  1.6038667  3
    464    465    477    478     1  0.0000000  0.6508444  3
    464    465    477    479     1  0.0000000  0.6508444  3
    464    468    480    481     1  0.0000000  0.6508444  3
    464    468    480    482     1  0.0000000  0.6508444  3
    464    471    474    475     1  0.0000000  0.6508444  3
    464    471    474    476     1  0.0000000  0.6508444  3
    465    464    468    469     1  0.0000000  1.2552000  3
    465    464    468    470     1  0.0000000  1.2552000  3
    465    464    471    472     1  0.0000000  1.2552000  3
    465    464    471    473     1  0.0000000  1.2552000  3
    465    477    489    490     1  0.0000000  0.6508444  3
    465    477    489    491     1  0.0000000  0.6508444  3
    466    465    464    468     1  0.0000000  1.2552000  3
    466    465    464    471     1  0.0000000  1.2552000  3
    466    465    477    489     1  0.0000000  0.6508444  3
    466    465    477    478     1  0.0000000  0.6508444  3
    466    465    477    479     1  0.0000000  0.6508444  3
    467    465    464    468     1  0.0000000  1.2552000  3
    467    465    464    471     1  0.0000000  1.2552000  3
    467    465    477    489     1  0.0000000  0.6508444  3
    467    465    477    478     1  0.0000000  0.6508444  3
    467    465    477    479     1  0.0000000  0.6508444  3
    468    464    471    472     1  0.0000000  1.2552000  3
    468    464    471    473     1  0.0000000  1.2552000  3
    468    480    486    487     1  0.0000000  0.6508444  3
    468    480    486    488     1  0.0000000  0.6508444  3
    469    468    464    471     1  0.0000000  1.2552000  3
    469    468    480    486     1  0.0000000  0.6508444  3
    469    468    480    481     1  0.0000000  0.6508444  3
    469    468    480    482     1  0.0000000  0.6508444  3
    470    468    464    471     1  0.0000000  1.2552000  3
    470    468    480    486     1  0.0000000  0.6508444  3
    470    468    480    481     1  0.0000000  0.6508444  3
    470    468    480    482     1  0.0000000  0.6508444  3
    471    474    483    484     1  0.0000000  0.6508444  3
    471    474    483    485     1  0.0000000  0.6508444  3
    472    471    474    483     1  0.0000000  0.6508444  3
    472    471    474    475     1  0.0000000  0.6508444  3
    472    471    474    476     1  0.0000000  0.6508444  3
    473    471    474    483     1  0.0000000  0.6508444  3
    473    471    474    475     1  0.0000000  0.6508444  3
    473    471    474    476     1  0.0000000  0.6508444  3
    475    474    483    492     1  0.0000000  1.0460000  1
    475    474    483    492     1  0.0000000  0.0000000  3
    475    474    483    484     1  0.0000000  0.6508444  3
    475    474    483    485     1  0.0000000  0.6508444  3
    476    474    483    492     1  0.0000000  1.0460000  1
    476    474    483    492     1  0.0000000  0.0000000  3
    476    474    483    484     1  0.0000000  0.6508444  3
    476    474    483    485     1  0.0000000  0.6508444  3
    478    477    489   1043     1  0.0000000  1.0460000  1
    478    477    489   1043     1  0.0000000  0.0000000  3
    478    477    489    490     1  0.0000000  0.6508444  3
    478    477    489    491     1  0.0000000  0.6508444  3
    479    477    489   1043     1  0.0000000  1.0460000  1
    479    477    489   1043     1  0.0000000  0.0000000  3
    479    477    489    490     1  0.0000000  0.6508444  3
    479    477    489    491     1  0.0000000  0.6508444  3
    481    480    486   1014     1  0.0000000  1.0460000  1
    481    480    486   1014     1  0.0000000  0.0000000  3
    481    480    486    487     1  0.0000000  0.6508444  3
    481    480    486    488     1  0.0000000  0.6508444  3
    482    480    486   1014     1  0.0000000  1.0460000  1
    482    480    486   1014     1  0.0000000  0.0000000  3
    482    480    486    487     1  0.0000000  0.6508444  3
    482    480    486    488     1  0.0000000  0.6508444  3
    486   1014   1005   1006     1  0.0000000  1.6038667  3
    486   1014   1005   1007     1  0.0000000  1.6038667  3
    487    486   1014   1005     1  0.0000000  1.6038667  3
    488    486   1014   1005     1  0.0000000  1.6038667  3
    489   1043   1034   1035     1  0.0000000  1.6038667  3
    489   1043   1034   1036     1  0.0000000  1.6038667  3
    490    489   1043   1034     1  0.0000000  1.6038667  3
    491    489   1043   1034     1  0.0000000  1.6038667  3
    493    494    506    507     1  0.0000000  0.6508444  3
    493    494    506    508     1  0.0000000  0.6508444  3
    493    497    509    510     1  0.0000000  0.6508444  3
    493    497    509    511     1  0.0000000  0.6508444  3
    493    500    503    504     1  0.0000000  0.6508444  3
    493    500    503    505     1  0.0000000  0.6508444  3
    494    493    497    498     1  0.0000000  1.2552000  3
    494    493    497    499     1  0.0000000  1.2552000  3
    494    493    500    501     1  0.0000000  1.2552000  3
    494    493    500    502     1  0.0000000  1.2552000  3
    494    506    518    519     1  0.0000000  0.6508444  3
    494    506    518    520     1  0.0000000  0.6508444  3
    495    494    493    497     1  0.0000000  1.2552000  3
    495    494    493    500     1  0.0000000  1.2552000  3
    495    494    506    518     1  0.0000000  0.6508444  3
    495    494    506    507     1  0.0000000  0.6508444  3
    495    494    506    508     1  0.0000000  0.6508444  3
    496    494    493    497     1  0.0000000  1.2552000  3
    496    494    493    500     1  0.0000000  1.2552000  3
    496    494    506    518     1  0.0000000  0.6508444  3
    496    494    506    507     1  0.0000000  0.6508444  3
    496    494    506    508     1  0.0000000  0.6508444  3
    497    493    500    501     1  0.0000000  1.2552000  3
    497    493    500    502     1  0.0000000  1.2552000  3
    497    509    515    516     1  0.0000000  0.6508444  3
    497    509    515    517     1  0.0000000  0.6508444  3
    498    497    493    500     1  0.0000000  1.2552000  3
    498    497    509    515     1  0.0000000  0.6508444  3
    498    497    509    510     1  0.0000000  0.6508444  3
    498    497    509    511     1  0.0000000  0.6508444  3
    499    497    493    500     1  0.0000000  1.2552000  3
    499    497    509    515     1  0.0000000  0.6508444  3
    499    497    509    510     1  0.0000000  0.6508444  3
    499    497    509    511     1  0.0000000  0.6508444  3
    500    503    512    513     1  0.0000000  0.6508444  3
    500    503    512    514     1  0.0000000  0.6508444  3
    501    500    503    512     1  0.0000000  0.6508444  3
    501    500    503    504     1  0.0000000  0.6508444  3
    501    500    503    505     1  0.0000000  0.6508444  3
    502    500    503    512     1  0.0000000  0.6508444  3
    502    500    503    504     1  0.0000000  0.6508444  3
    502    500    503    505     1  0.0000000  0.6508444  3
    504    503    512    521     1  0.0000000  1.0460000  1
    504    503    512    521     1  0.0000000  0.0000000  3
    504    503    512    513     1  0.0000000  0.6508444  3
    504    503    512    514     1  0.0000000  0.6508444  3
    505    503    512    521     1  0.0000000  1.0460000  1
    505    503    512    521     1  0.0000000  0.0000000  3
    505    503    512    513     1  0.0000000  0.6508444  3
    505    503    512    514     1  0.0000000  0.6508444  3
    507    506    518   1101     1  0.0000000  1.0460000  1
    507    506    518   1101     1  0.0000000  0.0000000  3
    507    506    518    519     1  0.0000000  0.6508444  3
    507    506    518    520     1  0.0000000  0.6508444  3
    508    506    518   1101     1  0.0000000  1.0460000  1
    508    506    518   1101     1  0.0000000  0.0000000  3
    508    506    518    519     1  0.0000000  0.6508444  3
    508    506    518    520     1  0.0000000  0.6508444  3
    510    509    515   1072     1  0.0000000  1.0460000  1
    510    509    515   1072     1  0.0000000  0.0000000  3
    510    509    515    516     1  0.0000000  0.6508444  3
    510    509    515    517     1  0.0000000  0.6508444  3
    511    509    515   1072     1  0.0000000  1.0460000  1
    511    509    515   1072     1  0.0000000  0.0000000  3
    511    509    515    516     1  0.0000000  0.6508444  3
    511    509    515    517     1  0.0000000  0.6508444  3
    515   1072   1063   1064     1  0.0000000  1.6038667  3
    515   1072   1063   1065     1  0.0000000  1.6038667  3
    516    515   1072   1063     1  0.0000000  1.6038667  3
    517    515   1072   1063     1  0.0000000  1.6038667  3
    518   1101   1092   1093     1  0.0000000  1.6038667  3
    518   1101   1092   1094     1  0.0000000  1.6038667  3
    519    518   1101   1092     1  0.0000000  1.6038667  3
    520    518   1101   1092     1  0.0000000  1.6038667  3
    522    523    535    536     1  0.0000000  0.6508444  3
    522    523    535    537     1  0.0000000  0.6508444  3
    522    526    538    539     1  0.0000000  0.6508444  3
    522    526    538    540     1  0.0000000  0.6508444  3
    522    529    532    533     1  0.0000000  0.6508444  3
    522    529    532    534     1  0.0000000  0.6508444  3
    523    522    526    527     1  0.0000000  1.2552000  3
    523    522    526    528     1  0.0000000  1.2552000  3
    523    522    529    530     1  0.0000000  1.2552000  3
    523    522    529    531     1  0.0000000  1.2552000  3
    523    535    547    548     1  0.0000000  0.6508444  3
    523    535    547    549     1  0.0000000  0.6508444  3
    524    523    522    526     1  0.0000000  1.2552000  3
    524    523    522    529     1  0.0000000  1.2552000  3
    524    523    535    547     1  0.0000000  0.6508444  3
    524    523    535    536     1  0.0000000  0.6508444  3
    524    523    535    537     1  0.0000000  0.6508444  3
    525    523    522    526     1  0.0000000  1.2552000  3
    525    523    522    529     1  0.0000000  1.2552000  3
    525    523    535    547     1  0.0000000  0.6508444  3
    525    523    535    536     1  0.0000000  0.6508444  3
    525    523    535    537     1  0.0000000  0.6508444  3
    526    522    529    530     1  0.0000000  1.2552000  3
    526    522    529    531     1  0.0000000  1.2552000  3
    526    538    544    545     1  0.0000000  0.6508444  3
    526    538    544    546     1  0.0000000  0.6508444  3
    527    526    522    529     1  0.0000000  1.2552000  3
    527    526    538    544     1  0.0000000  0.6508444  3
    527    526    538    539     1  0.0000000  0.6508444  3
    527    526    538    540     1  0.0000000  0.6508444  3
    528    526    522    529     1  0.0000000  1.2552000  3
    528    526    538    544     1  0.0000000  0.6508444  3
    528    526    538    539     1  0.0000000  0.6508444  3
    528    526    538    540     1  0.0000000  0.6508444  3
    529    532    541    542     1  0.0000000  0.6508444  3
    529    532    541    543     1  0.0000000  0.6508444  3
    530    529    532    541     1  0.0000000  0.6508444  3
    530    529    532    533     1  0.0000000  0.6508444  3
    530    529    532    534     1  0.0000000  0.6508444  3
    531    529    532    541     1  0.0000000  0.6508444  3
    531    529    532    533     1  0.0000000  0.6508444  3
    531    529    532    534     1  0.0000000  0.6508444  3
    533    532    541    550     1  0.0000000  1.0460000  1
    533    532    541    550     1  0.0000000  0.0000000  3
    533    532    541    542     1  0.0000000  0.6508444  3
    533    532    541    543     1  0.0000000  0.6508444  3
    534    532    541    550     1  0.0000000  1.0460000  1
    534    532    541    550     1  0.0000000  0.0000000  3
    534    532    541    542     1  0.0000000  0.6508444  3
    534    532    541    543     1  0.0000000  0.6508444  3
    536    535    547   1159     1  0.0000000  1.0460000  1
    536    535    547   1159     1  0.0000000  0.0000000  3
    536    535    547    548     1  0.0000000  0.6508444  3
    536    535    547    549     1  0.0000000  0.6508444  3
    537    535    547   1159     1  0.0000000  1.0460000  1
    537    535    547   1159     1  0.0000000  0.0000000  3
    537    535    547    548     1  0.0000000  0.6508444  3
    537    535    547    549     1  0.0000000  0.6508444  3
    539    538    544   1130     1  0.0000000  1.0460000  1
    539    538    544   1130     1  0.0000000  0.0000000  3
    539    538    544    545     1  0.0000000  0.6508444  3
    539    538    544    546     1  0.0000000  0.6508444  3
    540    538    544   1130     1  0.0000000  1.0460000  1
    540    538    544   1130     1  0.0000000  0.0000000  3
    540    538    544    545     1  0.0000000  0.6508444  3
    540    538    544    546     1  0.0000000  0.6508444  3
    544   1130   1121   1122     1  0.0000000  1.6038667  3
    544   1130   1121   1123     1  0.0000000  1.6038667  3
    545    544   1130   1121     1  0.0000000  1.6038667  3
    546    544   1130   1121     1  0.0000000  1.6038667  3
    547   1159   1150   1151     1  0.0000000  1.6038667  3
    547   1159   1150   1152     1  0.0000000  1.6038667  3
    548    547   1159   1150     1  0.0000000  1.6038667  3
    549    547   1159   1150     1  0.0000000  1.6038667  3
    551    552    564    565     1  0.0000000  0.6508444  3
    551    552    564    566     1  0.0000000  0.6508444  3
    551    555    567    568     1  0.0000000  0.6508444  3
    551    555    567    569     1  0.0000000  0.6508444  3
    551    558    561    562     1  0.0000000  0.6508444  3
    551    558    561    563     1  0.0000000  0.6508444  3
    552    551    555    556     1  0.0000000  1.2552000  3
    552    551    555    557     1  0.0000000  1.2552000  3
    552    551    558    559     1  0.0000000  1.2552000  3
    552    551    558    560     1  0.0000000  1.2552000  3
    552    564    576    577     1  0.0000000  0.6508444  3
    552    564    576    578     1  0.0000000  0.6508444  3
    553    552    551    555     1  0.0000000  1.2552000  3
    553    552    551    558     1  0.0000000  1.2552000  3
    553    552    564    576     1  0.0000000  0.6508444  3
    553    552    564    565     1  0.0000000  0.6508444  3
    553    552    564    566     1  0.0000000  0.6508444  3
    554    552    551    555     1  0.0000000  1.2552000  3
    554    552    551    558     1  0.0000000  1.2552000  3
    554    552    564    576     1  0.0000000  0.6508444  3
    554    552    564    565     1  0.0000000  0.6508444  3
    554    552    564    566     1  0.0000000  0.6508444  3
    555    551    558    559     1  0.0000000  1.2552000  3
    555    551    558    560     1  0.0000000  1.2552000  3
    555    567    573    574     1  0.0000000  0.6508444  3
    555    567    573    575     1  0.0000000  0.6508444  3
    556    555    551    558     1  0.0000000  1.2552000  3
    556    555    567    573     1  0.0000000  0.6508444  3
    556    555    567    568     1  0.0000000  0.6508444  3
    556    555    567    569     1  0.0000000  0.6508444  3
    557    555    551    558     1  0.0000000  1.2552000  3
    557    555    567    573     1  0.0000000  0.6508444  3
    557    555    567    568     1  0.0000000  0.6508444  3
    557    555    567    569     1  0.0000000  0.6508444  3
    558    561    570    571     1  0.0000000  0.6508444  3
    558    561    570    572     1  0.0000000  0.6508444  3
    559    558    561    570     1  0.0000000  0.6508444  3
    559    558    561    562     1  0.0000000  0.6508444  3
    559    558    561    563     1  0.0000000  0.6508444  3
    560    558    561    570     1  0.0000000  0.6508444  3
    560    558    561    562     1  0.0000000  0.6508444  3
    560    558    561    563     1  0.0000000  0.6508444  3
    562    561    570    579     1  0.0000000  1.0460000  1
    562    561    570    579     1  0.0000000  0.0000000  3
    562    561    570    571     1  0.0000000  0.6508444  3
    562    561    570    572     1  0.0000000  0.6508444  3
    563    561    570    579     1  0.0000000  1.0460000  1
    563    561    570    579     1  0.0000000  0.0000000  3
    563    561    570    571     1  0.0000000  0.6508444  3
    563    561    570    572     1  0.0000000  0.6508444  3
    565    564    576   1217     1  0.0000000  1.0460000  1
    565    564    576   1217     1  0.0000000  0.0000000  3
    565    564    576    577     1  0.0000000  0.6508444  3
    565    564    576    578     1  0.0000000  0.6508444  3
    566    564    576   1217     1  0.0000000  1.0460000  1
    566    564    576   1217     1  0.0000000  0.0000000  3
    566    564    576    577     1  0.0000000  0.6508444  3
    566    564    576    578     1  0.0000000  0.6508444  3
    568    567    573   1188     1  0.0000000  1.0460000  1
    568    567    573   1188     1  0.0000000  0.0000000  3
    568    567    573    574     1  0.0000000  0.6508444  3
    568    567    573    575     1  0.0000000  0.6508444  3
    569    567    573   1188     1  0.0000000  1.0460000  1
    569    567    573   1188     1  0.0000000  0.0000000  3
    569    567    573    574     1  0.0000000  0.6508444  3
    569    567    573    575     1  0.0000000  0.6508444  3
    573   1188   1179   1180     1  0.0000000  1.6038667  3
    573   1188   1179   1181     1  0.0000000  1.6038667  3
    574    573   1188   1179     1  0.0000000  1.6038667  3
    575    573   1188   1179     1  0.0000000  1.6038667  3
    576   1217   1208   1209     1  0.0000000  1.6038667  3
    576   1217   1208   1210     1  0.0000000  1.6038667  3
    577    576   1217   1208     1  0.0000000  1.6038667  3
    578    576   1217   1208     1  0.0000000  1.6038667  3
    580    581    593    594     1  0.0000000  0.6508444  3
    580    581    593    595     1  0.0000000  0.6508444  3
    580    584    596    597     1  0.0000000  0.6508444  3
    580    584    596    598     1  0.0000000  0.6508444  3
    580    587    590    591     1  0.0000000  0.6508444  3
    580    587    590    592     1  0.0000000  0.6508444  3
    581    580    584    585     1  0.0000000  1.2552000  3
    581    580    584    586     1  0.0000000  1.2552000  3
    581    580    587    588     1  0.0000000  1.2552000  3
    581    580    587    589     1  0.0000000  1.2552000  3
    581    593    605    606     1  0.0000000  0.6508444  3
    581    593    605    607     1  0.0000000  0.6508444  3
    582    581    580    584     1  0.0000000  1.2552000  3
    582    581    580    587     1  0.0000000  1.2552000  3
    582    581    593    605     1  0.0000000  0.6508444  3
    582    581    593    594     1  0.0000000  0.6508444  3
    582    581    593    595     1  0.0000000  0.6508444  3
    583    581    580    584     1  0.0000000  1.2552000  3
    583    581    580    587     1  0.0000000  1.2552000  3
    583    581    593    605     1  0.0000000  0.6508444  3
    583    581    593    594     1  0.0000000  0.6508444  3
    583    581    593    595     1  0.0000000  0.6508444  3
    584    580    587    588     1  0.0000000  1.2552000  3
    584    580    587    589     1  0.0000000  1.2552000  3
    584    596    602    603     1  0.0000000  0.6508444  3
    584    596    602    604     1  0.0000000  0.6508444  3
    585    584    580    587     1  0.0000000  1.2552000  3
    585    584    596    602     1  0.0000000  0.6508444  3
    585    584    596    597     1  0.0000000  0.6508444  3
    585    584    596    598     1  0.0000000  0.6508444  3
    586    584    580    587     1  0.0000000  1.2552000  3
    586    584    596    602     1  0.0000000  0.6508444  3
    586    584    596    597     1  0.0000000  0.6508444  3
    586    584    596    598     1  0.0000000  0.6508444  3
    587    590    599    600     1  0.0000000  0.6508444  3
    587    590    599    601     1  0.0000000  0.6508444  3
    588    587    590    599     1  0.0000000  0.6508444  3
    588    587    590    591     1  0.0000000  0.6508444  3
    588    587    590    592     1  0.0000000  0.6508444  3
    589    587    590    599     1  0.0000000  0.6508444  3
    589    587    590    591     1  0.0000000  0.6508444  3
    589    587    590    592     1  0.0000000  0.6508444  3
    591    590    599    608     1  0.0000000  1.0460000  1
    591    590    599    608     1  0.0000000  0.0000000  3
    591    590    599    600     1  0.0000000  0.6508444  3
    591    590    599    601     1  0.0000000  0.6508444  3
    592    590    599    608     1  0.0000000  1.0460000  1
    592    590    599    608     1  0.0000000  0.0000000  3
    592    590    599    600     1  0.0000000  0.6508444  3
    592    590    599    601     1  0.0000000  0.6508444  3
    594    593    605   1275     1  0.0000000  1.0460000  1
    594    593    605   1275     1  0.0000000  0.0000000  3
    594    593    605    606     1  0.0000000  0.6508444  3
    594    593    605    607     1  0.0000000  0.6508444  3
    595    593    605   1275     1  0.0000000  1.0460000  1
    595    593    605   1275     1  0.0000000  0.0000000  3
    595    593    605    606     1  0.0000000  0.6508444  3
    595    593    605    607     1  0.0000000  0.6508444  3
    597    596    602   1246     1  0.0000000  1.0460000  1
    597    596    602   1246     1  0.0000000  0.0000000  3
    597    596    602    603     1  0.0000000  0.6508444  3
    597    596    602    604     1  0.0000000  0.6508444  3
    598    596    602   1246     1  0.0000000  1.0460000  1
    598    596    602   1246     1  0.0000000  0.0000000  3
    598    596    602    603     1  0.0000000  0.6508444  3
    598    596    602    604     1  0.0000000  0.6508444  3
    602   1246   1237   1238     1  0.0000000  1.6038667  3
    602   1246   1237   1239     1  0.0000000  1.6038667  3
    603    602   1246   1237     1  0.0000000  1.6038667  3
    604    602   1246   1237     1  0.0000000  1.6038667  3
    605   1275   1266   1267     1  0.0000000  1.6038667  3
    605   1275   1266   1268     1  0.0000000  1.6038667  3
    606    605   1275   1266     1  0.0000000  1.6038667  3
    607    605   1275   1266     1  0.0000000  1.6038667  3
    609    610    622    623     1  0.0000000  0.6508444  3
    609    610    622    624     1  0.0000000  0.6508444  3
    609    613    625    626     1  0.0000000  0.6508444  3
    609    613    625    627     1  0.0000000  0.6508444  3
    609    616    619    620     1  0.0000000  0.6508444  3
    609    616    619    621     1  0.0000000  0.6508444  3
    610    609    613    614     1  0.0000000  1.2552000  3
    610    609    613    615     1  0.0000000  1.2552000  3
    610    609    616    617     1  0.0000000  1.2552000  3
    610    609    616    618     1  0.0000000  1.2552000  3
    610    622    634    635     1  0.0000000  0.6508444  3
    610    622    634    636     1  0.0000000  0.6508444  3
    611    610    609    613     1  0.0000000  1.2552000  3
    611    610    609    616     1  0.0000000  1.2552000  3
    611    610    622    634     1  0.0000000  0.6508444  3
    611    610    622    623     1  0.0000000  0.6508444  3
    611    610    622    624     1  0.0000000  0.6508444  3
    612    610    609    613     1  0.0000000  1.2552000  3
    612    610    609    616     1  0.0000000  1.2552000  3
    612    610    622    634     1  0.0000000  0.6508444  3
    612    610    622    623     1  0.0000000  0.6508444  3
    612    610    622    624     1  0.0000000  0.6508444  3
    613    609    616    617     1  0.0000000  1.2552000  3
    613    609    616    618     1  0.0000000  1.2552000  3
    613    625    631    632     1  0.0000000  0.6508444  3
    613    625    631    633     1  0.0000000  0.6508444  3
    614    613    609    616     1  0.0000000  1.2552000  3
    614    613    625    631     1  0.0000000  0.6508444  3
    614    613    625    626     1  0.0000000  0.6508444  3
    614    613    625    627     1  0.0000000  0.6508444  3
    615    613    609    616     1  0.0000000  1.2552000  3
    615    613    625    631     1  0.0000000  0.6508444  3
    615    613    625    626     1  0.0000000  0.6508444  3
    615    613    625    627     1  0.0000000  0.6508444  3
    616    619    628    629     1  0.0000000  0.6508444  3
    616    619    628    630     1  0.0000000  0.6508444  3
    617    616    619    628     1  0.0000000  0.6508444  3
    617    616    619    620     1  0.0000000  0.6508444  3
    617    616    619    621     1  0.0000000  0.6508444  3
    618    616    619    628     1  0.0000000  0.6508444  3
    618    616    619    620     1  0.0000000  0.6508444  3
    618    616    619    621     1  0.0000000  0.6508444  3
    620    619    628    637     1  0.0000000  1.0460000  1
    620    619    628    637     1  0.0000000  0.0000000  3
    620    619    628    629     1  0.0000000  0.6508444  3
    620    619    628    630     1  0.0000000  0.6508444  3
    621    619    628    637     1  0.0000000  1.0460000  1
    621    619    628    637     1  0.0000000  0.0000000  3
    621    619    628    629     1  0.0000000  0.6508444  3
    621    619    628    630     1  0.0000000  0.6508444  3
    623    622    634   1333     1  0.0000000  1.0460000  1
    623    622    634   1333     1  0.0000000  0.0000000  3
    623    622    634    635     1  0.0000000  0.6508444  3
    623    622    634    636     1  0.0000000  0.6508444  3
    624    622    634   1333     1  0.0000000  1.0460000  1
    624    622    634   1333     1  0.0000000  0.0000000  3
    624    622    634    635     1  0.0000000  0.6508444  3
    624    622    634    636     1  0.0000000  0.6508444  3
    626    625    631   1304     1  0.0000000  1.0460000  1
    626    625    631   1304     1  0.0000000  0.0000000  3
    626    625    631    632     1  0.0000000  0.6508444  3
    626    625    631    633     1  0.0000000  0.6508444  3
    627    625    631   1304     1  0.0000000  1.0460000  1
    627    625    631   1304     1  0.0000000  0.0000000  3
    627    625    631    632     1  0.0000000  0.6508444  3
    627    625    631    633     1  0.0000000  0.6508444  3
    631   1304   1295   1296     1  0.0000000  1.6038667  3
    631   1304   1295   1297     1  0.0000000  1.6038667  3
    632    631   1304   1295     1  0.0000000  1.6038667  3
    633    631   1304   1295     1  0.0000000  1.6038667  3
    634   1333   1324   1325     1  0.0000000  1.6038667  3
    634   1333   1324   1326     1  0.0000000  1.6038667  3
    635    634   1333   1324     1  0.0000000  1.6038667  3
    636    634   1333   1324     1  0.0000000  1.6038667  3
    638    639    651    652     1  0.0000000  0.6508444  3
    638    639    651    653     1  0.0000000  0.6508444  3
    638    642    654    655     1  0.0000000  0.6508444  3
    638    642    654    656     1  0.0000000  0.6508444  3
    638    645    648    649     1  0.0000000  0.6508444  3
    638    645    648    650     1  0.0000000  0.6508444  3
    639    638    642    643     1  0.0000000  1.2552000  3
    639    638    642    644     1  0.0000000  1.2552000  3
    639    638    645    646     1  0.0000000  1.2552000  3
    639    638    645    647     1  0.0000000  1.2552000  3
    639    651    663    664     1  0.0000000  0.6508444  3
    639    651    663    665     1  0.0000000  0.6508444  3
    640    639    638    642     1  0.0000000  1.2552000  3
    640    639    638    645     1  0.0000000  1.2552000  3
    640    639    651    663     1  0.0000000  0.6508444  3
    640    639    651    652     1  0.0000000  0.6508444  3
    640    639    651    653     1  0.0000000  0.6508444  3
    641    639    638    642     1  0.0000000  1.2552000  3
    641    639    638    645     1  0.0000000  1.2552000  3
    641    639    651    663     1  0.0000000  0.6508444  3
    641    639    651    652     1  0.0000000  0.6508444  3
    641    639    651    653     1  0.0000000  0.6508444  3
    642    638    645    646     1  0.0000000  1.2552000  3
    642    638    645    647     1  0.0000000  1.2552000  3
    642    654    660    661     1  0.0000000  0.6508444  3
    642    654    660    662     1  0.0000000  0.6508444  3
    643    642    638    645     1  0.0000000  1.2552000  3
    643    642    654    660     1  0.0000000  0.6508444  3
    643    642    654    655     1  0.0000000  0.6508444  3
    643    642    654    656     1  0.0000000  0.6508444  3
    644    642    638    645     1  0.0000000  1.2552000  3
    644    642    654    660     1  0.0000000  0.6508444  3
    644    642    654    655     1  0.0000000  0.6508444  3
    644    642    654    656     1  0.0000000  0.6508444  3
    645    648    657    658     1  0.0000000  0.6508444  3
    645    648    657    659     1  0.0000000  0.6508444  3
    646    645    648    657     1  0.0000000  0.6508444  3
    646    645    648    649     1  0.0000000  0.6508444  3
    646    645    648    650     1  0.0000000  0.6508444  3
    647    645    648    657     1  0.0000000  0.6508444  3
    647    645    648    649     1  0.0000000  0.6508444  3
    647    645    648    650     1  0.0000000  0.6508444  3
    649    648    657    666     1  0.0000000  1.0460000  1
    649    648    657    666     1  0.0000000  0.0000000  3
    649    648    657    658     1  0.0000000  0.6508444  3
    649    648    657    659     1  0.0000000  0.6508444  3
    650    648    657    666     1  0.0000000  1.0460000  1
    650    648    657    666     1  0.0000000  0.0000000  3
    650    648    657    658     1  0.0000000  0.6508444  3
    650    648    657    659     1  0.0000000  0.6508444  3
    652    651    663   1391     1  0.0000000  1.0460000  1
    652    651    663   1391     1  0.0000000  0.0000000  3
    652    651    663    664     1  0.0000000  0.6508444  3
    652    651    663    665     1  0.0000000  0.6508444  3
    653    651    663   1391     1  0.0000000  1.0460000  1
    653    651    663   1391     1  0.0000000  0.0000000  3
    653    651    663    664     1  0.0000000  0.6508444  3
    653    651    663    665     1  0.0000000  0.6508444  3
    655    654    660   1362     1  0.0000000  1.0460000  1
    655    654    660   1362     1  0.0000000  0.0000000  3
    655    654    660    661     1  0.0000000  0.6508444  3
    655    654    660    662     1  0.0000000  0.6508444  3
    656    654    660   1362     1  0.0000000  1.0460000  1
    656    654    660   1362     1  0.0000000  0.0000000  3
    656    654    660    661     1  0.0000000  0.6508444  3
    656    654    660    662     1  0.0000000  0.6508444  3
    660   1362   1353   1354     1  0.0000000  1.6038667  3
    660   1362   1353   1355     1  0.0000000  1.6038667  3
    661    660   1362   1353     1  0.0000000  1.6038667  3
    662    660   1362   1353     1  0.0000000  1.6038667  3
    663   1391   1382   1383     1  0.0000000  1.6038667  3
    663   1391   1382   1384     1  0.0000000  1.6038667  3
    664    663   1391   1382     1  0.0000000  1.6038667  3
    665    663   1391   1382     1  0.0000000  1.6038667  3
    667    668    680    681     1  0.0000000  0.6508444  3
    667    668    680    682     1  0.0000000  0.6508444  3
    667    671    683    684     1  0.0000000  0.6508444  3
    667    671    683    685     1  0.0000000  0.6508444  3
    667    674    677    678     1  0.0000000  0.6508444  3
    667    674    677    679     1  0.0000000  0.6508444  3
    668    667    671    672     1  0.0000000  1.2552000  3
    668    667    671    673     1  0.0000000  1.2552000  3
    668    667    674    675     1  0.0000000  1.2552000  3
    668    667    674    676     1  0.0000000  1.2552000  3
    668    680    692    693     1  0.0000000  0.6508444  3
    668    680    692    694     1  0.0000000  0.6508444  3
    669    668    667    671     1  0.0000000  1.2552000  3
    669    668    667    674     1  0.0000000  1.2552000  3
    669    668    680    692     1  0.0000000  0.6508444  3
    669    668    680    681     1  0.0000000  0.6508444  3
    669    668    680    682     1  0.0000000  0.6508444  3
    670    668    667    671     1  0.0000000  1.2552000  3
    670    668    667    674     1  0.0000000  1.2552000  3
    670    668    680    692     1  0.0000000  0.6508444  3
    670    668    680    681     1  0.0000000  0.6508444  3
    670    668    680    682     1  0.0000000  0.6508444  3
    671    667    674    675     1  0.0000000  1.2552000  3
    671    667    674    676     1  0.0000000  1.2552000  3
    671    683    689    690     1  0.0000000  0.6508444  3
    671    683    689    691     1  0.0000000  0.6508444  3
    672    671    667    674     1  0.0000000  1.2552000  3
    672    671    683    689     1  0.0000000  0.6508444  3
    672    671    683    684     1  0.0000000  0.6508444  3
    672    671    683    685     1  0.0000000  0.6508444  3
    673    671    667    674     1  0.0000000  1.2552000  3
    673    671    683    689     1  0.0000000  0.6508444  3
    673    671    683    684     1  0.0000000  0.6508444  3
    673    671    683    685     1  0.0000000  0.6508444  3
    674    677    686    687     1  0.0000000  0.6508444  3
    674    677    686    688     1  0.0000000  0.6508444  3
    675    674    677    686     1  0.0000000  0.6508444  3
    675    674    677    678     1  0.0000000  0.6508444  3
    675    674    677    679     1  0.0000000  0.6508444  3
    676    674    677    686     1  0.0000000  0.6508444  3
    676    674    677    678     1  0.0000000  0.6508444  3
    676    674    677    679     1  0.0000000  0.6508444  3
    678    677    686    695     1  0.0000000  1.0460000  1
    678    677    686    695     1  0.0000000  0.0000000  3
    678    677    686    687     1  0.0000000  0.6508444  3
    678    677    686    688     1  0.0000000  0.6508444  3
    679    677    686    695     1  0.0000000  1.0460000  1
    679    677    686    695     1  0.0000000  0.0000000  3
    679    677    686    687     1  0.0000000  0.6508444  3
    679    677    686    688     1  0.0000000  0.6508444  3
    681    680    692   1449     1  0.0000000  1.0460000  1
    681    680    692   1449     1  0.0000000  0.0000000  3
    681    680    692    693     1  0.0000000  0.6508444  3
    681    680    692    694     1  0.0000000  0.6508444  3
    682    680    692   1449     1  0.0000000  1.0460000  1
    682    680    692   1449     1  0.0000000  0.0000000  3
    682    680    692    693     1  0.0000000  0.6508444  3
    682    680    692    694     1  0.0000000  0.6508444  3
    684    683    689   1420     1  0.0000000  1.0460000  1
    684    683    689   1420     1  0.0000000  0.0000000  3
    684    683    689    690     1  0.0000000  0.6508444  3
    684    683    689    691     1  0.0000000  0.6508444  3
    685    683    689   1420     1  0.0000000  1.0460000  1
    685    683    689   1420     1  0.0000000  0.0000000  3
    685    683    689    690     1  0.0000000  0.6508444  3
    685    683    689    691     1  0.0000000  0.6508444  3
    689   1420   1411   1412     1  0.0000000  1.6038667  3
    689   1420   1411   1413     1  0.0000000  1.6038667  3
    690    689   1420   1411     1  0.0000000  1.6038667  3
    691    689   1420   1411     1  0.0000000  1.6038667  3
    692   1449   1440   1441     1  0.0000000  1.6038667  3
    692   1449   1440   1442     1  0.0000000  1.6038667  3
    693    692   1449   1440     1  0.0000000  1.6038667  3
    694    692   1449   1440     1  0.0000000  1.6038667  3
    696    697    709    710     1  0.0000000  0.6508444  3
    696    697    709    711     1  0.0000000  0.6508444  3
    696    700    712    713     1  0.0000000  0.6508444  3
    696    700    712    714     1  0.0000000  0.6508444  3
    696    703    706    707     1  0.0000000  0.6508444  3
    696    703    706    708     1  0.0000000  0.6508444  3
    697    696    700    701     1  0.0000000  1.2552000  3
    697    696    700    702     1  0.0000000  1.2552000  3
    697    696    703    704     1  0.0000000  1.2552000  3
    697    696    703    705     1  0.0000000  1.2552000  3
    697    709    721    722     1  0.0000000  0.6508444  3
    697    709    721    723     1  0.0000000  0.6508444  3
    698    697    696    700     1  0.0000000  1.2552000  3
    698    697    696    703     1  0.0000000  1.2552000  3
    698    697    709    721     1  0.0000000  0.6508444  3
    698    697    709    710     1  0.0000000  0.6508444  3
    698    697    709    711     1  0.0000000  0.6508444  3
    699    697    696    700     1  0.0000000  1.2552000  3
    699    697    696    703     1  0.0000000  1.2552000  3
    699    697    709    721     1  0.0000000  0.6508444  3
    699    697    709    710     1  0.0000000  0.6508444  3
    699    697    709    711     1  0.0000000  0.6508444  3
    700    696    703    704     1  0.0000000  1.2552000  3
    700    696    703    705     1  0.0000000  1.2552000  3
    700    712    718    719     1  0.0000000  0.6508444  3
    700    712    718    720     1  0.0000000  0.6508444  3
    701    700    696    703     1  0.0000000  1.2552000  3
    701    700    712    718     1  0.0000000  0.6508444  3
    701    700    712    713     1  0.0000000  0.6508444  3
    701    700    712    714     1  0.0000000  0.6508444  3
    702    700    696    703     1  0.0000000  1.2552000  3
    702    700    712    718     1  0.0000000  0.6508444  3
    702    700    712    713     1  0.0000000  0.6508444  3
    702    700    712    714     1  0.0000000  0.6508444  3
    703    706    715    716     1  0.0000000  0.6508444  3
    703    706    715    717     1  0.0000000  0.6508444  3
    704    703    706    715     1  0.0000000  0.6508444  3
    704    703    706    707     1  0.0000000  0.6508444  3
    704    703    706    708     1  0.0000000  0.6508444  3
    705    703    706    715     1  0.0000000  0.6508444  3
    705    703    706    707     1  0.0000000  0.6508444  3
    705    703    706    708     1  0.0000000  0.6508444  3
    707    706    715    724     1  0.0000000  1.0460000  1
    707    706    715    724     1  0.0000000  0.0000000  3
    707    706    715    716     1  0.0000000  0.6508444  3
    707    706    715    717     1  0.0000000  0.6508444  3
    708    706    715    724     1  0.0000000  1.0460000  1
    708    706    715    724     1  0.0000000  0.0000000  3
    708    706    715    716     1  0.0000000  0.6508444  3
    708    706    715    717     1  0.0000000  0.6508444  3
    710    709    721   1507     1  0.0000000  1.0460000  1
    710    709    721   1507     1  0.0000000  0.0000000  3
    710    709    721    722     1  0.0000000  0.6508444  3
    710    709    721    723     1  0.0000000  0.6508444  3
    711    709    721   1507     1  0.0000000  1.0460000  1
    711    709    721   1507     1  0.0000000  0.0000000  3
    711    709    721    722     1  0.0000000  0.6508444  3
    711    709    721    723     1  0.0000000  0.6508444  3
    713    712    718   1478     1  0.0000000  1.0460000  1
    713    712    718   1478     1  0.0000000  0.0000000  3
    713    712    718    719     1  0.0000000  0.6508444  3
    713    712    718    720     1  0.0000000  0.6508444  3
    714    712    718   1478     1  0.0000000  1.0460000  1
    714    712    718   1478     1  0.0000000  0.0000000  3
    714    712    718    719     1  0.0000000  0.6508444  3
    714    712    718    720     1  0.0000000  0.6508444  3
    718   1478   1469   1470     1  0.0000000  1.6038667  3
    718   1478   1469   1471     1  0.0000000  1.6038667  3
    719    718   1478   1469     1  0.0000000  1.6038667  3
    720    718   1478   1469     1  0.0000000  1.6038667  3
    721   1507   1498   1499     1  0.0000000  1.6038667  3
    721   1507   1498   1500     1  0.0000000  1.6038667  3
    722    721   1507   1498     1  0.0000000  1.6038667  3
    723    721   1507   1498     1  0.0000000  1.6038667  3
    725    726    738    739     1  0.0000000  0.6508444  3
    725    726    738    740     1  0.0000000  0.6508444  3
    725    729    741    742     1  0.0000000  0.6508444  3
    725    729    741    743     1  0.0000000  0.6508444  3
    725    732    735    736     1  0.0000000  0.6508444  3
    725    732    735    737     1  0.0000000  0.6508444  3
    726    725    729    730     1  0.0000000  1.2552000  3
    726    725    729    731     1  0.0000000  1.2552000  3
    726    725    732    733     1  0.0000000  1.2552000  3
    726    725    732    734     1  0.0000000  1.2552000  3
    726    738    750    751     1  0.0000000  0.6508444  3
    726    738    750    752     1  0.0000000  0.6508444  3
    727    726    725    729     1  0.0000000  1.2552000  3
    727    726    725    732     1  0.0000000  1.2552000  3
    727    726    738    750     1  0.0000000  0.6508444  3
    727    726    738    739     1  0.0000000  0.6508444  3
    727    726    738    740     1  0.0000000  0.6508444  3
    728    726    725    729     1  0.0000000  1.2552000  3
    728    726    725    732     1  0.0000000  1.2552000  3
    728    726    738    750     1  0.0000000  0.6508444  3
    728    726    738    739     1  0.0000000  0.6508444  3
    728    726    738    740     1  0.0000000  0.6508444  3
    729    725    732    733     1  0.0000000  1.2552000  3
    729    725    732    734     1  0.0000000  1.2552000  3
    729    741    747    748     1  0.0000000  0.6508444  3
    729    741    747    749     1  0.0000000  0.6508444  3
    730    729    725    732     1  0.0000000  1.2552000  3
    730    729    741    747     1  0.0000000  0.6508444  3
    730    729    741    742     1  0.0000000  0.6508444  3
    730    729    741    743     1  0.0000000  0.6508444  3
    731    729    725    732     1  0.0000000  1.2552000  3
    731    729    741    747     1  0.0000000  0.6508444  3
    731    729    741    742     1  0.0000000  0.6508444  3
    731    729    741    743     1  0.0000000  0.6508444  3
    732    735    744    745     1  0.0000000  0.6508444  3
    732    735    744    746     1  0.0000000  0.6508444  3
    733    732    735    744     1  0.0000000  0.6508444  3
    733    732    735    736     1  0.0000000  0.6508444  3
    733    732    735    737     1  0.0000000  0.6508444  3
    734    732    735    744     1  0.0000000  0.6508444  3
    734    732    735    736     1  0.0000000  0.6508444  3
    734    732    735    737     1  0.0000000  0.6508444  3
    736    735    744    753     1  0.0000000  1.0460000  1
    736    735    744    753     1  0.0000000  0.0000000  3
    736    735    744    745     1  0.0000000  0.6508444  3
    736    735    744    746     1  0.0000000  0.6508444  3
    737    735    744    753     1  0.0000000  1.0460000  1
    737    735    744    753     1  0.0000000  0.0000000  3
    737    735    744    745     1  0.0000000  0.6508444  3
    737    735    744    746     1  0.0000000  0.6508444  3
    739    738    750   1565     1  0.0000000  1.0460000  1
    739    738    750   1565     1  0.0000000  0.0000000  3
    739    738    750    751     1  0.0000000  0.6508444  3
    739    738    750    752     1  0.0000000  0.6508444  3
    740    738    750   1565     1  0.0000000  1.0460000  1
    740    738    750   1565     1  0.0000000  0.0000000  3
    740    738    750    751     1  0.0000000  0.6508444  3
    740    738    750    752     1  0.0000000  0.6508444  3
    742    741    747   1536     1  0.0000000  1.0460000  1
    742    741    747   1536     1  0.0000000  0.0000000  3
    742    741    747    748     1  0.0000000  0.6508444  3
    742    741    747    749     1  0.0000000  0.6508444  3
    743    741    747   1536     1  0.0000000  1.0460000  1
    743    741    747   1536     1  0.0000000  0.0000000  3
    743    741    747    748     1  0.0000000  0.6508444  3
    743    741    747    749     1  0.0000000  0.6508444  3
    747   1536   1527   1528     1  0.0000000  1.6038667  3
    747   1536   1527   1529     1  0.0000000  1.6038667  3
    748    747   1536   1527     1  0.0000000  1.6038667  3
    749    747   1536   1527     1  0.0000000  1.6038667  3
    750   1565   1556   1557     1  0.0000000  1.6038667  3
    750   1565   1556   1558     1  0.0000000  1.6038667  3
    751    750   1565   1556     1  0.0000000  1.6038667  3
    752    750   1565   1556     1  0.0000000  1.6038667  3
    754    755    767    768     1  0.0000000  0.6508444  3
    754    755    767    769     1  0.0000000  0.6508444  3
    754    758    770    771     1  0.0000000  0.6508444  3
    754    758    770    772     1  0.0000000  0.6508444  3
    754    761    764    765     1  0.0000000  0.6508444  3
    754    761    764    766     1  0.0000000  0.6508444  3
    755    754    758    759     1  0.0000000  1.2552000  3
    755    754    758    760     1  0.0000000  1.2552000  3
    755    754    761    762     1  0.0000000  1.2552000  3
    755    754    761    763     1  0.0000000  1.2552000  3
    755    767    779    780     1  0.0000000  0.6508444  3
    755    767    779    781     1  0.0000000  0.6508444  3
    756    755    754    758     1  0.0000000  1.2552000  3
    756    755    754    761     1  0.0000000  1.2552000  3
    756    755    767    779     1  0.0000000  0.6508444  3
    756    755    767    768     1  0.0000000  0.6508444  3
    756    755    767    769     1  0.0000000  0.6508444  3
    757    755    754    758     1  0.0000000  1.2552000  3
    757    755    754    761     1  0.0000000  1.2552000  3
    757    755    767    779     1  0.0000000  0.6508444  3
    757    755    767    768     1  0.0000000  0.6508444  3
    757    755    767    769     1  0.0000000  0.6508444  3
    758    754    761    762     1  0.0000000  1.2552000  3
    758    754    761    763     1  0.0000000  1.2552000  3
    758    770    776    777     1  0.0000000  0.6508444  3
    758    770    776    778     1  0.0000000  0.6508444  3
    759    758    754    761     1  0.0000000  1.2552000  3
    759    758    770    776     1  0.0000000  0.6508444  3
    759    758    770    771     1  0.0000000  0.6508444  3
    759    758    770    772     1  0.0000000  0.6508444  3
    760    758    754    761     1  0.0000000  1.2552000  3
    760    758    770    776     1  0.0000000  0.6508444  3
    760    758    770    771     1  0.0000000  0.6508444  3
    760    758    770    772     1  0.0000000  0.6508444  3
    761    764    773    774     1  0.0000000  0.6508444  3
    761    764    773    775     1  0.0000000  0.6508444  3
    762    761    764    773     1  0.0000000  0.6508444  3
    762    761    764    765     1  0.0000000  0.6508444  3
    762    761    764    766     1  0.0000000  0.6508444  3
    763    761    764    773     1  0.0000000  0.6508444  3
    763    761    764    765     1  0.0000000  0.6508444  3
    763    761    764    766     1  0.0000000  0.6508444  3
    765    764    773    782     1  0.0000000  1.0460000  1
    765    764    773    782     1  0.0000000  0.0000000  3
    765    764    773    774     1  0.0000000  0.6508444  3
    765    764    773    775     1  0.0000000  0.6508444  3
    766    764    773    782     1  0.0000000  1.0460000  1
    766    764    773    782     1  0.0000000  0.0000000  3
    766    764    773    774     1  0.0000000  0.6508444  3
    766    764    773    775     1  0.0000000  0.6508444  3
    768    767    779   1623     1  0.0000000  1.0460000  1
    768    767    779   1623     1  0.0000000  0.0000000  3
    768    767    779    780     1  0.0000000  0.6508444  3
    768    767    779    781     1  0.0000000  0.6508444  3
    769    767    779   1623     1  0.0000000  1.0460000  1
    769    767    779   1623     1  0.0000000  0.0000000  3
    769    767    779    780     1  0.0000000  0.6508444  3
    769    767    779    781     1  0.0000000  0.6508444  3
    771    770    776   1594     1  0.0000000  1.0460000  1
    771    770    776   1594     1  0.0000000  0.0000000  3
    771    770    776    777     1  0.0000000  0.6508444  3
    771    770    776    778     1  0.0000000  0.6508444  3
    772    770    776   1594     1  0.0000000  1.0460000  1
    772    770    776   1594     1  0.0000000  0.0000000  3
    772    770    776    777     1  0.0000000  0.6508444  3
    772    770    776    778     1  0.0000000  0.6508444  3
    776   1594   1585   1586     1  0.0000000  1.6038667  3
    776   1594   1585   1587     1  0.0000000  1.6038667  3
    777    776   1594   1585     1  0.0000000  1.6038667  3
    778    776   1594   1585     1  0.0000000  1.6038667  3
    779   1623   1614   1615     1  0.0000000  1.6038667  3
    779   1623   1614   1616     1  0.0000000  1.6038667  3
    780    779   1623   1614     1  0.0000000  1.6038667  3
    781    779   1623   1614     1  0.0000000  1.6038667  3
    783    784    796    797     1  0.0000000  0.6508444  3
    783    784    796    798     1  0.0000000  0.6508444  3
    783    787    799    800     1  0.0000000  0.6508444  3
    783    787    799    801     1  0.0000000  0.6508444  3
    783    790    793    794     1  0.0000000  0.6508444  3
    783    790    793    795     1  0.0000000  0.6508444  3
    784    783    787    788     1  0.0000000  1.2552000  3
    784    783    787    789     1  0.0000000  1.2552000  3
    784    783    790    791     1  0.0000000  1.2552000  3
    784    783    790    792     1  0.0000000  1.2552000  3
    784    796    808    809     1  0.0000000  0.6508444  3
    784    796    808    810     1  0.0000000  0.6508444  3
    785    784    783    787     1  0.0000000  1.2552000  3
    785    784    783    790     1  0.0000000  1.2552000  3
    785    784    796    808     1  0.0000000  0.6508444  3
    785    784    796    797     1  0.0000000  0.6508444  3
    785    784    796    798     1  0.0000000  0.6508444  3
    786    784    783    787     1  0.0000000  1.2552000  3
    786    784    783    790     1  0.0000000  1.2552000  3
    786    784    796    808     1  0.0000000  0.6508444  3
    786    784    796    797     1  0.0000000  0.6508444  3
    786    784    796    798     1  0.0000000  0.6508444  3
    787    783    790    791     1  0.0000000  1.2552000  3
    787    783    790    792     1  0.0000000  1.2552000  3
    787    799    805    806     1  0.0000000  0.6508444  3
    787    799    805    807     1  0.0000000  0.6508444  3
    788    787    783    790     1  0.0000000  1.2552000  3
    788    787    799    805     1  0.0000000  0.6508444  3
    788    787    799    800     1  0.0000000  0.6508444  3
    788    787    799    801     1  0.0000000  0.6508444  3
    789    787    783    790     1  0.0000000  1.2552000  3
    789    787    799    805     1  0.0000000  0.6508444  3
    789    787    799    800     1  0.0000000  0.6508444  3
    789    787    799    801     1  0.0000000  0.6508444  3
    790    793    802    803     1  0.0000000  0.6508444  3
    790    793    802    804     1  0.0000000  0.6508444  3
    791    790    793    802     1  0.0000000  0.6508444  3
    791    790    793    794     1  0.0000000  0.6508444  3
    791    790    793    795     1  0.0000000  0.6508444  3
    792    790    793    802     1  0.0000000  0.6508444  3
    792    790    793    794     1  0.0000000  0.6508444  3
    792    790    793    795     1  0.0000000  0.6508444  3
    794    793    802    811     1  0.0000000  1.0460000  1
    794    793    802    811     1  0.0000000  0.0000000  3
    794    793    802    803     1  0.0000000  0.6508444  3
    794    793    802    804     1  0.0000000  0.6508444  3
    795    793    802    811     1  0.0000000  1.0460000  1
    795    793    802    811     1  0.0000000  0.0000000  3
    795    793    802    803     1  0.0000000  0.6508444  3
    795    793    802    804     1  0.0000000  0.6508444  3
    797    796    808   1681     1  0.0000000  1.0460000  1
    797    796    808   1681     1  0.0000000  0.0000000  3
    797    796    808    809     1  0.0000000  0.6508444  3
    797    796    808    810     1  0.0000000  0.6508444  3
    798    796    808   1681     1  0.0000000  1.0460000  1
    798    796    808   1681     1  0.0000000  0.0000000  3
    798    796    808    809     1  0.0000000  0.6508444  3
    798    796    808    810     1  0.0000000  0.6508444  3
    800    799    805   1652     1  0.0000000  1.0460000  1
    800    799    805   1652     1  0.0000000  0.0000000  3
    800    799    805    806     1  0.0000000  0.6508444  3
    800    799    805    807     1  0.0000000  0.6508444  3
    801    799    805   1652     1  0.0000000  1.0460000  1
    801    799    805   1652     1  0.0000000  0.0000000  3
    801    799    805    806     1  0.0000000  0.6508444  3
    801    799    805    807     1  0.0000000  0.6508444  3
    805   1652   1643   1644     1  0.0000000  1.6038667  3
    805   1652   1643   1645     1  0.0000000  1.6038667  3
    806    805   1652   1643     1  0.0000000  1.6038667  3
    807    805   1652   1643     1  0.0000000  1.6038667  3
    808   1681   1672   1673     1  0.0000000  1.6038667  3
    808   1681   1672   1674     1  0.0000000  1.6038667  3
    809    808   1681   1672     1  0.0000000  1.6038667  3
    810    808   1681   1672     1  0.0000000  1.6038667  3
    812    813    825    826     1  0.0000000  0.6508444  3
    812    813    825    827     1  0.0000000  0.6508444  3
    812    816    828    829     1  0.0000000  0.6508444  3
    812    816    828    830     1  0.0000000  0.6508444  3
    812    819    822    823     1  0.0000000  0.6508444  3
    812    819    822    824     1  0.0000000  0.6508444  3
    813    812    816    817     1  0.0000000  1.2552000  3
    813    812    816    818     1  0.0000000  1.2552000  3
    813    812    819    820     1  0.0000000  1.2552000  3
    813    812    819    821     1  0.0000000  1.2552000  3
    813    825    837    838     1  0.0000000  0.6508444  3
    813    825    837    839     1  0.0000000  0.6508444  3
    814    813    812    816     1  0.0000000  1.2552000  3
    814    813    812    819     1  0.0000000  1.2552000  3
    814    813    825    837     1  0.0000000  0.6508444  3
    814    813    825    826     1  0.0000000  0.6508444  3
    814    813    825    827     1  0.0000000  0.6508444  3
    815    813    812    816     1  0.0000000  1.2552000  3
    815    813    812    819     1  0.0000000  1.2552000  3
    815    813    825    837     1  0.0000000  0.6508444  3
    815    813    825    826     1  0.0000000  0.6508444  3
    815    813    825    827     1  0.0000000  0.6508444  3
    816    812    819    820     1  0.0000000  1.2552000  3
    816    812    819    821     1  0.0000000  1.2552000  3
    816    828    834    835     1  0.0000000  0.6508444  3
    816    828    834    836     1  0.0000000  0.6508444  3
    817    816    812    819     1  0.0000000  1.2552000  3
    817    816    828    834     1  0.0000000  0.6508444  3
    817    816    828    829     1  0.0000000  0.6508444  3
    817    816    828    830     1  0.0000000  0.6508444  3
    818    816    812    819     1  0.0000000  1.2552000  3
    818    816    828    834     1  0.0000000  0.6508444  3
    818    816    828    829     1  0.0000000  0.6508444  3
    818    816    828    830     1  0.0000000  0.6508444  3
    819    822    831    832     1  0.0000000  0.6508444  3
    819    822    831    833     1  0.0000000  0.6508444  3
    820    819    822    831     1  0.0000000  0.6508444  3
    820    819    822    823     1  0.0000000  0.6508444  3
    820    819    822    824     1  0.0000000  0.6508444  3
    821    819    822    831     1  0.0000000  0.6508444  3
    821    819    822    823     1  0.0000000  0.6508444  3
    821    819    822    824     1  0.0000000  0.6508444  3
    823    822    831    840     1  0.0000000  1.0460000  1
    823    822    831    840     1  0.0000000  0.0000000  3
    823    822    831    832     1  0.0000000  0.6508444  3
    823    822    831    833     1  0.0000000  0.6508444  3
    824    822    831    840     1  0.0000000  1.0460000  1
    824    822    831    840     1  0.0000000  0.0000000  3
    824    822    831    832     1  0.0000000  0.6508444  3
    824    822    831    833     1  0.0000000  0.6508444  3
    826    825    837   1739     1  0.0000000  1.0460000  1
    826    825    837   1739     1  0.0000000  0.0000000  3
    826    825    837    838     1  0.0000000  0.6508444  3
    826    825    837    839     1  0.0000000  0.6508444  3
    827    825    837   1739     1  0.0000000  1.0460000  1
    827    825    837   1739     1  0.0000000  0.0000000  3
    827    825    837    838     1  0.0000000  0.6508444  3
    827    825    837    839     1  0.0000000  0.6508444  3
    829    828    834   1710     1  0.0000000  1.0460000  1
    829    828    834   1710     1  0.0000000  0.0000000  3
    829    828    834    835     1  0.0000000  0.6508444  3
    829    828    834    836     1  0.0000000  0.6508444  3
    830    828    834   1710     1  0.0000000  1.0460000  1
    830    828    834   1710     1  0.0000000  0.0000000  3
    830    828    834    835     1  0.0000000  0.6508444  3
    830    828    834    836     1  0.0000000  0.6508444  3
    834   1710   1701   1702     1  0.0000000  1.6038667  3
    834   1710   1701   1703     1  0.0000000  1.6038667  3
    835    834   1710   1701     1  0.0000000  1.6038667  3
    836    834   1710   1701     1  0.0000000  1.6038667  3
    837   1739   1730   1731     1  0.0000000  1.6038667  3
    837   1739   1730   1732     1  0.0000000  1.6038667  3
    838    837   1739   1730     1  0.0000000  1.6038667  3
    839    837   1739   1730     1  0.0000000  1.6038667  3
    841    842    854    855     1  0.0000000  0.6508444  3
    841    842    854    856     1  0.0000000  0.6508444  3
    841    845    857    858     1  0.0000000  0.6508444  3
    841    845    857    859     1  0.0000000  0.6508444  3
    841    848    851    852     1  0.0000000  0.6508444  3
    841    848    851    853     1  0.0000000  0.6508444  3
    842    841    845    846     1  0.0000000  1.2552000  3
    842    841    845    847     1  0.0000000  1.2552000  3
    842    841    848    849     1  0.0000000  1.2552000  3
    842    841    848    850     1  0.0000000  1.2552000  3
    842    854    866    867     1  0.0000000  0.6508444  3
    842    854    866    868     1  0.0000000  0.6508444  3
    843    842    841    845     1  0.0000000  1.2552000  3
    843    842    841    848     1  0.0000000  1.2552000  3
    843    842    854    866     1  0.0000000  0.6508444  3
    843    842    854    855     1  0.0000000  0.6508444  3
    843    842    854    856     1  0.0000000  0.6508444  3
    844    842    841    845     1  0.0000000  1.2552000  3
    844    842    841    848     1  0.0000000  1.2552000  3
    844    842    854    866     1  0.0000000  0.6508444  3
    844    842    854    855     1  0.0000000  0.6508444  3
    844    842    854    856     1  0.0000000  0.6508444  3
    845    841    848    849     1  0.0000000  1.2552000  3
    845    841    848    850     1  0.0000000  1.2552000  3
    845    857    863    864     1  0.0000000  0.6508444  3
    845    857    863    865     1  0.0000000  0.6508444  3
    846    845    841    848     1  0.0000000  1.2552000  3
    846    845    857    863     1  0.0000000  0.6508444  3
    846    845    857    858     1  0.0000000  0.6508444  3
    846    845    857    859     1  0.0000000  0.6508444  3
    847    845    841    848     1  0.0000000  1.2552000  3
    847    845    857    863     1  0.0000000  0.6508444  3
    847    845    857    858     1  0.0000000  0.6508444  3
    847    845    857    859     1  0.0000000  0.6508444  3
    848    851    860    861     1  0.0000000  0.6508444  3
    848    851    860    862     1  0.0000000  0.6508444  3
    849    848    851    860     1  0.0000000  0.6508444  3
    849    848    851    852     1  0.0000000  0.6508444  3
    849    848    851    853     1  0.0000000  0.6508444  3
    850    848    851    860     1  0.0000000  0.6508444  3
    850    848    851    852     1  0.0000000  0.6508444  3
    850    848    851    853     1  0.0000000  0.6508444  3
    852    851    860    869     1  0.0000000  1.0460000  1
    852    851    860    869     1  0.0000000  0.0000000  3
    852    851    860    861     1  0.0000000  0.6508444  3
    852    851    860    862     1  0.0000000  0.6508444  3
    853    851    860    869     1  0.0000000  1.0460000  1
    853    851    860    869     1  0.0000000  0.0000000  3
    853    851    860    861     1  0.0000000  0.6508444  3
    853    851    860    862     1  0.0000000  0.6508444  3
    855    854    866   1797     1  0.0000000  1.0460000  1
    855    854    866   1797     1  0.0000000  0.0000000  3
    855    854    866    867     1  0.0000000  0.6508444  3
    855    854    866    868     1  0.0000000  0.6508444  3
    856    854    866   1797     1  0.0000000  1.0460000  1
    856    854    866   1797     1  0.0000000  0.0000000  3
    856    854    866    867     1  0.0000000  0.6508444  3
    856    854    866    868     1  0.0000000  0.6508444  3
    858    857    863   1768     1  0.0000000  1.0460000  1
    858    857    863   1768     1  0.0000000  0.0000000  3
    858    857    863    864     1  0.0000000  0.6508444  3
    858    857    863    865     1  0.0000000  0.6508444  3
    859    857    863   1768     1  0.0000000  1.0460000  1
    859    857    863   1768     1  0.0000000  0.0000000  3
    859    857    863    864     1  0.0000000  0.6508444  3
    859    857    863    865     1  0.0000000  0.6508444  3
    863   1768   1759   1760     1  0.0000000  1.6038667  3
    863   1768   1759   1761     1  0.0000000  1.6038667  3
    864    863   1768   1759     1  0.0000000  1.6038667  3
    865    863   1768   1759     1  0.0000000  1.6038667  3
    866   1797   1788   1789     1  0.0000000  1.6038667  3
    866   1797   1788   1790     1  0.0000000  1.6038667  3
    867    866   1797   1788     1  0.0000000  1.6038667  3
    868    866   1797   1788     1  0.0000000  1.6038667  3
    870    871    883    884     1  0.0000000  0.6508444  3
    870    871    883    885     1  0.0000000  0.6508444  3
    870    874    886    887     1  0.0000000  0.6508444  3
    870    874    886    888     1  0.0000000  0.6508444  3
    870    877    880    881     1  0.0000000  0.6508444  3
    870    877    880    882     1  0.0000000  0.6508444  3
    871    870    874    875     1  0.0000000  1.2552000  3
    871    870    874    876     1  0.0000000  1.2552000  3
    871    870    877    878     1  0.0000000  1.2552000  3
    871    870    877    879     1  0.0000000  1.2552000  3
    871    883    895    896     1  0.0000000  0.6508444  3
    871    883    895    897     1  0.0000000  0.6508444  3
    872    871    870    874     1  0.0000000  1.2552000  3
    872    871    870    877     1  0.0000000  1.2552000  3
    872    871    883    895     1  0.0000000  0.6508444  3
    872    871    883    884     1  0.0000000  0.6508444  3
    872    871    883    885     1  0.0000000  0.6508444  3
    873    871    870    874     1  0.0000000  1.2552000  3
    873    871    870    877     1  0.0000000  1.2552000  3
    873    871    883    895     1  0.0000000  0.6508444  3
    873    871    883    884     1  0.0000000  0.6508444  3
    873    871    883    885     1  0.0000000  0.6508444  3
    874    870    877    878     1  0.0000000  1.2552000  3
    874    870    877    879     1  0.0000000  1.2552000  3
    874    886    892    893     1  0.0000000  0.6508444  3
    874    886    892    894     1  0.0000000  0.6508444  3
    875    874    870    877     1  0.0000000  1.2552000  3
    875    874    886    892     1  0.0000000  0.6508444  3
    875    874    886    887     1  0.0000000  0.6508444  3
    875    874    886    888     1  0.0000000  0.6508444  3
    876    874    870    877     1  0.0000000  1.2552000  3
    876    874    886    892     1  0.0000000  0.6508444  3
    876    874    886    887     1  0.0000000  0.6508444  3
    876    874    886    888     1  0.0000000  0.6508444  3
    877    880    889    890     1  0.0000000  0.6508444  3
    877    880    889    891     1  0.0000000  0.6508444  3
    878    877    880    889     1  0.0000000  0.6508444  3
    878    877    880    881     1  0.0000000  0.6508444  3
    878    877    880    882     1  0.0000000  0.6508444  3
    879    877    880    889     1  0.0000000  0.6508444  3
    879    877    880    881     1  0.0000000  0.6508444  3
    879    877    880    882     1  0.0000000  0.6508444  3
    881    880    889    898     1  0.0000000  1.0460000  1
    881    880    889    898     1  0.0000000  0.0000000  3
    881    880    889    890     1  0.0000000  0.6508444  3
    881    880    889    891     1  0.0000000  0.6508444  3
    882    880    889    898     1  0.0000000  1.0460000  1
    882    880    889    898     1  0.0000000  0.0000000  3
    882    880    889    890     1  0.0000000  0.6508444  3
    882    880    889    891     1  0.0000000  0.6508444  3
    884    883    895   1855     1  0.0000000  1.0460000  1
    884    883    895   1855     1  0.0000000  0.0000000  3
    884    883    895    896     1  0.0000000  0.6508444  3
    884    883    895    897     1  0.0000000  0.6508444  3
    885    883    895   1855     1  0.0000000  1.0460000  1
    885    883    895   1855     1  0.0000000  0.0000000  3
    885    883    895    896     1  0.0000000  0.6508444  3
    885    883    895    897     1  0.0000000  0.6508444  3
    887    886    892   1826     1  0.0000000  1.0460000  1
    887    886    892   1826     1  0.0000000  0.0000000  3
    887    886    892    893     1  0.0000000  0.6508444  3
    887    886    892    894     1  0.0000000  0.6508444  3
    888    886    892   1826     1  0.0000000  1.0460000  1
    888    886    892   1826     1  0.0000000  0.0000000  3
    888    886    892    893     1  0.0000000  0.6508444  3
    888    886    892    894     1  0.0000000  0.6508444  3
    892   1826   1817   1818     1  0.0000000  1.6038667  3
    892   1826   1817   1819     1  0.0000000  1.6038667  3
    893    892   1826   1817     1  0.0000000  1.6038667  3
    894    892   1826   1817     1  0.0000000  1.6038667  3
    895   1855   1846   1847     1  0.0000000  1.6038667  3
    895   1855   1846   1848     1  0.0000000  1.6038667  3
    896    895   1855   1846     1  0.0000000  1.6038667  3
    897    895   1855   1846     1  0.0000000  1.6038667  3
    899    900    912    913     1  0.0000000  0.6508444  3
    899    900    912    914     1  0.0000000  0.6508444  3
    899    903    915    916     1  0.0000000  0.6508444  3
    899    903    915    917     1  0.0000000  0.6508444  3
    899    906    909    910     1  0.0000000  0.6508444  3
    899    906    909    911     1  0.0000000  0.6508444  3
    900    899    903    904     1  0.0000000  1.2552000  3
    900    899    903    905     1  0.0000000  1.2552000  3
    900    899    906    907     1  0.0000000  1.2552000  3
    900    899    906    908     1  0.0000000  1.2552000  3
    900    912    924    925     1  0.0000000  0.6508444  3
    900    912    924    926     1  0.0000000  0.6508444  3
    901    900    899    903     1  0.0000000  1.2552000  3
    901    900    899    906     1  0.0000000  1.2552000  3
    901    900    912    924     1  0.0000000  0.6508444  3
    901    900    912    913     1  0.0000000  0.6508444  3
    901    900    912    914     1  0.0000000  0.6508444  3
    902    900    899    903     1  0.0000000  1.2552000  3
    902    900    899    906     1  0.0000000  1.2552000  3
    902    900    912    924     1  0.0000000  0.6508444  3
    902    900    912    913     1  0.0000000  0.6508444  3
    902    900    912    914     1  0.0000000  0.6508444  3
    903    899    906    907     1  0.0000000  1.2552000  3
    903    899    906    908     1  0.0000000  1.2552000  3
    903    915    921    922     1  0.0000000  0.6508444  3
    903    915    921    923     1  0.0000000  0.6508444  3
    904    903    899    906     1  0.0000000  1.2552000  3
    904    903    915    921     1  0.0000000  0.6508444  3
    904    903    915    916     1  0.0000000  0.6508444  3
    904    903    915    917     1  0.0000000  0.6508444  3
    905    903    899    906     1  0.0000000  1.2552000  3
    905    903    915    921     1  0.0000000  0.6508444  3
    905    903    915    916     1  0.0000000  0.6508444  3
    905    903    915    917     1  0.0000000  0.6508444  3
    906    909    918    919     1  0.0000000  0.6508444  3
    906    909    918    920     1  0.0000000  0.6508444  3
    907    906    909    918     1  0.0000000  0.6508444  3
    907    906    909    910     1  0.0000000  0.6508444  3
    907    906    909    911     1  0.0000000  0.6508444  3
    908    906    909    918     1  0.0000000  0.6508444  3
    908    906    909    910     1  0.0000000  0.6508444  3
    908    906    909    911     1  0.0000000  0.6508444  3
    910    909    918    927     1  0.0000000  1.0460000  1
    910    909    918    927     1  0.0000000  0.0000000  3
    910    909    918    919     1  0.0000000  0.6508444  3
    910    909    918    920     1  0.0000000  0.6508444  3
    911    909    918    927     1  0.0000000  1.0460000  1
    911    909    918    927     1  0.0000000  0.0000000  3
    911    909    918    919     1  0.0000000  0.6508444  3
    911    909    918    920     1  0.0000000  0.6508444  3
    913    912    924   1913     1  0.0000000  1.0460000  1
    913    912    924   1913     1  0.0000000  0.0000000  3
    913    912    924    925     1  0.0000000  0.6508444  3
    913    912    924    926     1  0.0000000  0.6508444  3
    914    912    924   1913     1  0.0000000  1.0460000  1
    914    912    924   1913     1  0.0000000  0.0000000  3
    914    912    924    925     1  0.0000000  0.6508444  3
    914    912    924    926     1  0.0000000  0.6508444  3
    916    915    921   1884     1  0.0000000  1.0460000  1
    916    915    921   1884     1  0.0000000  0.0000000  3
    916    915    921    922     1  0.0000000  0.6508444  3
    916    915    921    923     1  0.0000000  0.6508444  3
    917    915    921   1884     1  0.0000000  1.0460000  1
    917    915    921   1884     1  0.0000000  0.0000000  3
    917    915    921    922     1  0.0000000  0.6508444  3
    917    915    921    923     1  0.0000000  0.6508444  3
    921   1884   1875   1876     1  0.0000000  1.6038667  3
    921   1884   1875   1877     1  0.0000000  1.6038667  3
    922    921   1884   1875     1  0.0000000  1.6038667  3
    923    921   1884   1875     1  0.0000000  1.6038667  3
    924   1913   1904   1905     1  0.0000000  1.6038667  3
    924   1913   1904   1906     1  0.0000000  1.6038667  3
    925    924   1913   1904     1  0.0000000  1.6038667  3
    926    924   1913   1904     1  0.0000000  1.6038667  3
    928    929    941    942     1  0.0000000  0.6508444  3
    928    929    941    943     1  0.0000000  0.6508444  3
    928    932    944    945     1  0.0000000  0.6508444  3
    928    932    944    946     1  0.0000000  0.6508444  3
    928    935    938    939     1  0.0000000  0.6508444  3
    928    935    938    940     1  0.0000000  0.6508444  3
    929    928    932    933     1  0.0000000  1.2552000  3
    929    928    932    934     1  0.0000000  1.2552000  3
    929    928    935    936     1  0.0000000  1.2552000  3
    929    928    935    937     1  0.0000000  1.2552000  3
    929    941    953    954     1  0.0000000  0.6508444  3
    929    941    953    955     1  0.0000000  0.6508444  3
    930    929    928    932     1  0.0000000  1.2552000  3
    930    929    928    935     1  0.0000000  1.2552000  3
    930    929    941    953     1  0.0000000  0.6508444  3
    930    929    941    942     1  0.0000000  0.6508444  3
    930    929    941    943     1  0.0000000  0.6508444  3
    931    929    928    932     1  0.0000000  1.2552000  3
    931    929    928    935     1  0.0000000  1.2552000  3
    931    929    941    953     1  0.0000000  0.6508444  3
    931    929    941    942     1  0.0000000  0.6508444  3
    931    929    941    943     1  0.0000000  0.6508444  3
    932    928    935    936     1  0.0000000  1.2552000  3
    932    928    935    937     1  0.0000000  1.2552000  3
    932    944    950    951     1  0.0000000  0.6508444  3
    932    944    950    952     1  0.0000000  0.6508444  3
    933    932    928    935     1  0.0000000  1.2552000  3
    933    932    944    950     1  0.0000000  0.6508444  3
    933    932    944    945     1  0.0000000  0.6508444  3
    933    932    944    946     1  0.0000000  0.6508444  3
    934    932    928    935     1  0.0000000  1.2552000  3
    934    932    944    950     1  0.0000000  0.6508444  3
    934    932    944    945     1  0.0000000  0.6508444  3
    934    932    944    946     1  0.0000000  0.6508444  3
    935    938    947    948     1  0.0000000  0.6508444  3
    935    938    947    949     1  0.0000000  0.6508444  3
    936    935    938    947     1  0.0000000  0.6508444  3
    936    935    938    939     1  0.0000000  0.6508444  3
    936    935    938    940     1  0.0000000  0.6508444  3
    937    935    938    947     1  0.0000000  0.6508444  3
    937    935    938    939     1  0.0000000  0.6508444  3
    937    935    938    940     1  0.0000000  0.6508444  3
    939    938    947    956     1  0.0000000  1.0460000  1
    939    938    947    956     1  0.0000000  0.0000000  3
    939    938    947    948     1  0.0000000  0.6508444  3
    939    938    947    949     1  0.0000000  0.6508444  3
    940    938    947    956     1  0.0000000  1.0460000  1
    940    938    947    956     1  0.0000000  0.0000000  3
    940    938    947    948     1  0.0000000  0.6508444  3
    940    938    947    949     1  0.0000000  0.6508444  3
    942    941    953   1971     1  0.0000000  1.0460000  1
    942    941    953   1971     1  0.0000000  0.0000000  3
    942    941    953    954     1  0.0000000  0.6508444  3
    942    941    953    955     1  0.0000000  0.6508444  3
    943    941    953   1971     1  0.0000000  1.0460000  1
    943    941    953   1971     1  0.0000000  0.0000000  3
    943    941    953    954     1  0.0000000  0.6508444  3
    943    941    953    955     1  0.0000000  0.6508444  3
    945    944    950   1942     1  0.0000000  1.0460000  1
    945    944    950   1942     1  0.0000000  0.0000000  3
    945    944    950    951     1  0.0000000  0.6508444  3
    945    944    950    952     1  0.0000000  0.6508444  3
    946    944    950   1942     1  0.0000000  1.0460000  1
    946    944    950   1942     1  0.0000000  0.0000000  3
    946    944    950    951     1  0.0000000  0.6508444  3
    946    944    950    952     1  0.0000000  0.6508444  3
    950   1942   1933   1934     1  0.0000000  1.6038667  3
    950   1942   1933   1935     1  0.0000000  1.6038667  3
    951    950   1942   1933     1  0.0000000  1.6038667  3
    952    950   1942   1933     1  0.0000000  1.6038667  3
    953   1971   1962   1963     1  0.0000000  1.6038667  3
    953   1971   1962   1964     1  0.0000000  1.6038667  3
    954    953   1971   1962     1  0.0000000  1.6038667  3
    955    953   1971   1962     1  0.0000000  1.6038667  3
    957    958    970    971     1  0.0000000  0.6508444  3
    957    958    970    972     1  0.0000000  0.6508444  3
    957    961    973    974     1  0.0000000  0.6508444  3
    957    961    973    975     1  0.0000000  0.6508444  3
    957    964    967    968     1  0.0000000  0.6508444  3
    957    964    967    969     1  0.0000000  0.6508444  3
    958    957    961    962     1  0.0000000  1.2552000  3
    958    957    961    963     1  0.0000000  1.2552000  3
    958    957    964    965     1  0.0000000  1.2552000  3
    958    957    964    966     1  0.0000000  1.2552000  3
    958    970    982    983     1  0.0000000  0.6508444  3
    958    970    982    984     1  0.0000000  0.6508444  3
    959    958    957    961     1  0.0000000  1.2552000  3
    959    958    957    964     1  0.0000000  1.2552000  3
    959    958    970    982     1  0.0000000  0.6508444  3
    959    958    970    971     1  0.0000000  0.6508444  3
    959    958    970    972     1  0.0000000  0.6508444  3
    960    958    957    961     1  0.0000000  1.2552000  3
    960    958    957    964     1  0.0000000  1.2552000  3
    960    958    970    982     1  0.0000000  0.6508444  3
    960    958    970    971     1  0.0000000  0.6508444  3
    960    958    970    972     1  0.0000000  0.6508444  3
    961    957    964    965     1  0.0000000  1.2552000  3
    961    957    964    966     1  0.0000000  1.2552000  3
    961    973    979    980     1  0.0000000  0.6508444  3
    961    973    979    981     1  0.0000000  0.6508444  3
    962    961    957    964     1  0.0000000  1.2552000  3
    962    961    973    979     1  0.0000000  0.6508444  3
    962    961    973    974     1  0.0000000  0.6508444  3
    962    961    973    975     1  0.0000000  0.6508444  3
    963    961    957    964     1  0.0000000  1.2552000  3
    963    961    973    979     1  0.0000000  0.6508444  3
    963    961    973    974     1  0.0000000  0.6508444  3
    963    961    973    975     1  0.0000000  0.6508444  3
    964    967    976    977     1  0.0000000  0.6508444  3
    964    967    976    978     1  0.0000000  0.6508444  3
    965    964    967    976     1  0.0000000  0.6508444  3
    965    964    967    968     1  0.0000000  0.6508444  3
    965    964    967    969     1  0.0000000  0.6508444  3
    966    964    967    976     1  0.0000000  0.6508444  3
    966    964    967    968     1  0.0000000  0.6508444  3
    966    964    967    969     1  0.0000000  0.6508444  3
    968    967    976    985     1  0.0000000  1.0460000  1
    968    967    976    985     1  0.0000000  0.0000000  3
    968    967    976    977     1  0.0000000  0.6508444  3
    968    967    976    978     1  0.0000000  0.6508444  3
    969    967    976    985     1  0.0000000  1.0460000  1
    969    967    976    985     1  0.0000000  0.0000000  3
    969    967    976    977     1  0.0000000  0.6508444  3
    969    967    976    978     1  0.0000000  0.6508444  3
    971    970    982   2029     1  0.0000000  1.0460000  1
    971    970    982   2029     1  0.0000000  0.0000000  3
    971    970    982    983     1  0.0000000  0.6508444  3
    971    970    982    984     1  0.0000000  0.6508444  3
    972    970    982   2029     1  0.0000000  1.0460000  1
    972    970    982   2029     1  0.0000000  0.0000000  3
    972    970    982    983     1  0.0000000  0.6508444  3
    972    970    982    984     1  0.0000000  0.6508444  3
    974    973    979   2000     1  0.0000000  1.0460000  1
    974    973    979   2000     1  0.0000000  0.0000000  3
    974    973    979    980     1  0.0000000  0.6508444  3
    974    973    979    981     1  0.0000000  0.6508444  3
    975    973    979   2000     1  0.0000000  1.0460000  1
    975    973    979   2000     1  0.0000000  0.0000000  3
    975    973    979    980     1  0.0000000  0.6508444  3
    975    973    979    981     1  0.0000000  0.6508444  3
    979   2000   1991   1992     1  0.0000000  1.6038667  3
    979   2000   1991   1993     1  0.0000000  1.6038667  3
    980    979   2000   1991     1  0.0000000  1.6038667  3
    981    979   2000   1991     1  0.0000000  1.6038667  3
    982   2029   2020   2021     1  0.0000000  1.6038667  3
    982   2029   2020   2022     1  0.0000000  1.6038667  3
    983    982   2029   2020     1  0.0000000  1.6038667  3
    984    982   2029   2020     1  0.0000000  1.6038667  3
    986    987    999   1000     1  0.0000000  0.6508444  3
    986    987    999   1001     1  0.0000000  0.6508444  3
    986    990   1002   1003     1  0.0000000  0.6508444  3
    986    990   1002   1004     1  0.0000000  0.6508444  3
    986    993    996    997     1  0.0000000  0.6508444  3
    986    993    996    998     1  0.0000000  0.6508444  3
    987    986    990    991     1  0.0000000  1.2552000  3
    987    986    990    992     1  0.0000000  1.2552000  3
    987    986    993    994     1  0.0000000  1.2552000  3
    987    986    993    995     1  0.0000000  1.2552000  3
    987    999   1011   1012     1  0.0000000  0.6508444  3
    987    999   1011   1013     1  0.0000000  0.6508444  3
    988    987    986    990     1  0.0000000  1.2552000  3
    988    987    986    993     1  0.0000000  1.2552000  3
    988    987    999   1011     1  0.0000000  0.6508444  3
    988    987    999   1000     1  0.0000000  0.6508444  3
    988    987    999   1001     1  0.0000000  0.6508444  3
    989    987    986    990     1  0.0000000  1.2552000  3
    989    987    986    993     1  0.0000000  1.2552000  3
    989    987    999   1011     1  0.0000000  0.6508444  3
    989    987    999   1000     1  0.0000000  0.6508444  3
    989    987    999   1001     1  0.0000000  0.6508444  3
    990    986    993    994     1  0.0000000  1.2552000  3
    990    986    993    995     1  0.0000000  1.2552000  3
    990   1002   1008   1009     1  0.0000000  0.6508444  3
    990   1002   1008   1010     1  0.0000000  0.6508444  3
    991    990    986    993     1  0.0000000  1.2552000  3
    991    990   1002   1008     1  0.0000000  0.6508444  3
    991    990   1002   1003     1  0.0000000  0.6508444  3
    991    990   1002   1004     1  0.0000000  0.6508444  3
    992    990    986    993     1  0.0000000  1.2552000  3
    992    990   1002   1008     1  0.0000000  0.6508444  3
    992    990   1002   1003     1  0.0000000  0.6508444  3
    992    990   1002   1004     1  0.0000000  0.6508444  3
    993    996   1005   1006     1  0.0000000  0.6508444  3
    993    996   1005   1007     1  0.0000000  0.6508444  3
    994    993    996   1005     1  0.0000000  0.6508444  3
    994    993    996    997     1  0.0000000  0.6508444  3
    994    993    996    998     1  0.0000000  0.6508444  3
    995    993    996   1005     1  0.0000000  0.6508444  3
    995    993    996    997     1  0.0000000  0.6508444  3
    995    993    996    998     1  0.0000000  0.6508444  3
    997    996   1005   1014     1  0.0000000  1.0460000  1
    997    996   1005   1014     1  0.0000000  0.0000000  3
    997    996   1005   1006     1  0.0000000  0.6508444  3
    997    996   1005   1007     1  0.0000000  0.6508444  3
    998    996   1005   1014     1  0.0000000  1.0460000  1
    998    996   1005   1014     1  0.0000000  0.0000000  3
    998    996   1005   1006     1  0.0000000  0.6508444  3
    998    996   1005   1007     1  0.0000000  0.6508444  3
   1000    999   1011   2087     1  0.0000000  1.0460000  1
   1000    999   1011   2087     1  0.0000000  0.0000000  3
   1000    999   1011   1012     1  0.0000000  0.6508444  3
   1000    999   1011   1013     1  0.0000000  0.6508444  3
   1001    999   1011   2087     1  0.0000000  1.0460000  1
   1001    999   1011   2087     1  0.0000000  0.0000000  3
   1001    999   1011   1012     1  0.0000000  0.6508444  3
   1001    999   1011   1013     1  0.0000000  0.6508444  3
   1003   1002   1008   2058     1  0.0000000  1.0460000  1
   1003   1002   1008   2058     1  0.0000000  0.0000000  3
   1003   1002   1008   1009     1  0.0000000  0.6508444  3
   1003   1002   1008   1010     1  0.0000000  0.6508444  3
   1004   1002   1008   2058     1  0.0000000  1.0460000  1
   1004   1002   1008   2058     1  0.0000000  0.0000000  3
   1004   1002   1008   1009     1  0.0000000  0.6508444  3
   1004   1002   1008   1010     1  0.0000000  0.6508444  3
   1008   2058   2049   2050     1  0.0000000  1.6038667  3
   1008   2058   2049   2051     1  0.0000000  1.6038667  3
   1009   1008   2058   2049     1  0.0000000  1.6038667  3
   1010   1008   2058   2049     1  0.0000000  1.6038667  3
   1011   2087   2078   2079     1  0.0000000  1.6038667  3
   1011   2087   2078   2080     1  0.0000000  1.6038667  3
   1012   1011   2087   2078     1  0.0000000  1.6038667  3
   1013   1011   2087   2078     1  0.0000000  1.6038667  3
   1015   1016   1028   1029     1  0.0000000  0.6508444  3
   1015   1016   1028   1030     1  0.0000000  0.6508444  3
   1015   1019   1031   1032     1  0.0000000  0.6508444  3
   1015   1019   1031   1033     1  0.0000000  0.6508444  3
   1015   1022   1025   1026     1  0.0000000  0.6508444  3
   1015   1022   1025   1027     1  0.0000000  0.6508444  3
   1016   1015   1019   1020     1  0.0000000  1.2552000  3
   1016   1015   1019   1021     1  0.0000000  1.2552000  3
   1016   1015   1022   1023     1  0.0000000  1.2552000  3
   1016   1015   1022   1024     1  0.0000000  1.2552000  3
   1016   1028   1040   1041     1  0.0000000  0.6508444  3
   1016   1028   1040   1042     1  0.0000000  0.6508444  3
   1017   1016   1015   1019     1  0.0000000  1.2552000  3
   1017   1016   1015   1022     1  0.0000000  1.2552000  3
   1017   1016   1028   1040     1  0.0000000  0.6508444  3
   1017   1016   1028   1029     1  0.0000000  0.6508444  3
   1017   1016   1028   1030     1  0.0000000  0.6508444  3
   1018   1016   1015   1019     1  0.0000000  1.2552000  3
   1018   1016   1015   1022     1  0.0000000  1.2552000  3
   1018   1016   1028   1040     1  0.0000000  0.6508444  3
   1018   1016   1028   1029     1  0.0000000  0.6508444  3
   1018   1016   1028   1030     1  0.0000000  0.6508444  3
   1019   1015   1022   1023     1  0.0000000  1.2552000  3
   1019   1015   1022   1024     1  0.0000000  1.2552000  3
   1019   1031   1037   1038     1  0.0000000  0.6508444  3
   1019   1031   1037   1039     1  0.0000000  0.6508444  3
   1020   1019   1015   1022     1  0.0000000  1.2552000  3
   1020   1019   1031   1037     1  0.0000000  0.6508444  3
   1020   1019   1031   1032     1  0.0000000  0.6508444  3
   1020   1019   1031   1033     1  0.0000000  0.6508444  3
   1021   1019   1015   1022     1  0.0000000  1.2552000  3
   1021   1019   1031   1037     1  0.0000000  0.6508444  3
   1021   1019   1031   1032     1  0.0000000  0.6508444  3
   1021   1019   1031   1033     1  0.0000000  0.6508444  3
   1022   1025   1034   1035     1  0.0000000  0.6508444  3
   1022   1025   1034   1036     1  0.0000000  0.6508444  3
   1023   1022   1025   1034     1  0.0000000  0.6508444  3
   1023   1022   1025   1026     1  0.0000000  0.6508444  3
   1023   1022   1025   1027     1  0.0000000  0.6508444  3
   1024   1022   1025   1034     1  0.0000000  0.6508444  3
   1024   1022   1025   1026     1  0.0000000  0.6508444  3
   1024   1022   1025   1027     1  0.0000000  0.6508444  3
   1026   1025   1034   1043     1  0.0000000  1.0460000  1
   1026   1025   1034   1043     1  0.0000000  0.0000000  3
   1026   1025   1034   1035     1  0.0000000  0.6508444  3
   1026   1025   1034   1036     1  0.0000000  0.6508444  3
   1027   1025   1034   1043     1  0.0000000  1.0460000  1
   1027   1025   1034   1043     1  0.0000000  0.0000000  3
   1027   1025   1034   1035     1  0.0000000  0.6508444  3
   1027   1025   1034   1036     1  0.0000000  0.6508444  3
   1029   1028   1040   2145     1  0.0000000  1.0460000  1
   1029   1028   1040   2145     1  0.0000000  0.0000000  3
   1029   1028   1040   1041     1  0.0000000  0.6508444  3
   1029   1028   1040   1042     1  0.0000000  0.6508444  3
   1030   1028   1040   2145     1  0.0000000  1.0460000  1
   1030   1028   1040   2145     1  0.0000000  0.0000000  3
   1030   1028   1040   1041     1  0.0000000  0.6508444  3
   1030   1028   1040   1042     1  0.0000000  0.6508444  3
   1032   1031   1037   2116     1  0.0000000  1.0460000  1
   1032   1031   1037   2116     1  0.0000000  0.0000000  3
   1032   1031   1037   1038     1  0.0000000  0.6508444  3
   1032   1031   1037   1039     1  0.0000000  0.6508444  3
   1033   1031   1037   2116     1  0.0000000  1.0460000  1
   1033   1031   1037   2116     1  0.0000000  0.0000000  3
   1033   1031   1037   1038     1  0.0000000  0.6508444  3
   1033   1031   1037   1039     1  0.0000000  0.6508444  3
   1037   2116   2107   2108     1  0.0000000  1.6038667  3
   1037   2116   2107   2109     1  0.0000000  1.6038667  3
   1038   1037   2116   2107     1  0.0000000  1.6038667  3
   1039   1037   2116   2107     1  0.0000000  1.6038667  3
   1040   2145   2136   2137     1  0.0000000  1.6038667  3
   1040   2145   2136   2138     1  0.0000000  1.6038667  3
   1041   1040   2145   2136     1  0.0000000  1.6038667  3
   1042   1040   2145   2136     1  0.0000000  1.6038667  3
   1044   1045   1057   1058     1  0.0000000  0.6508444  3
   1044   1045   1057   1059     1  0.0000000  0.6508444  3
   1044   1048   1060   1061     1  0.0000000  0.6508444  3
   1044   1048   1060   1062     1  0.0000000  0.6508444  3
   1044   1051   1054   1055     1  0.0000000  0.6508444  3
   1044   1051   1054   1056     1  0.0000000  0.6508444  3
   1045   1044   1048   1049     1  0.0000000  1.2552000  3
   1045   1044   1048   1050     1  0.0000000  1.2552000  3
   1045   1044   1051   1052     1  0.0000000  1.2552000  3
   1045   1044   1051   1053     1  0.0000000  1.2552000  3
   1045   1057   1069   1070     1  0.0000000  0.6508444  3
   1045   1057   1069   1071     1  0.0000000  0.6508444  3
   1046   1045   1044   1048     1  0.0000000  1.2552000  3
   1046   1045   1044   1051     1  0.0000000  1.2552000  3
   1046   1045   1057   1069     1  0.0000000  0.6508444  3
   1046   1045   1057   1058     1  0.0000000  0.6508444  3
   1046   1045   1057   1059     1  0.0000000  0.6508444  3
   1047   1045   1044   1048     1  0.0000000  1.2552000  3
   1047   1045   1044   1051     1  0.0000000  1.2552000  3
   1047   1045   1057   1069     1  0.0000000  0.6508444  3
   1047   1045   1057   1058     1  0.0000000  0.6508444  3
   1047   1045   1057   1059     1  0.0000000  0.6508444  3
   1048   1044   1051   1052     1  0.0000000  1.2552000  3
   1048   1044   1051   1053     1  0.0000000  1.2552000  3
   1048   1060   1066   1067     1  0.0000000  0.6508444  3
   1048   1060   1066   1068     1  0.0000000  0.6508444  3
   1049   1048   1044   1051     1  0.0000000  1.2552000  3
   1049   1048   1060   1066     1  0.0000000  0.6508444  3
   1049   1048   1060   1061     1  0.0000000  0.6508444  3
   1049   1048   1060   1062     1  0.0000000  0.6508444  3
   1050   1048   1044   1051     1  0.0000000  1.2552000  3
   1050   1048   1060   1066     1  0.0000000  0.6508444  3
   1050   1048   1060   1061     1  0.0000000  0.6508444  3
   1050   1048   1060   1062     1  0.0000000  0.6508444  3
   1051   1054   1063   1064     1  0.0000000  0.6508444  3
   1051   1054   1063   1065     1  0.0000000  0.6508444  3
   1052   1051   1054   1063     1  0.0000000  0.6508444  3
   1052   1051   1054   1055     1  0.0000000  0.6508444  3
   1052   1051   1054   1056     1  0.0000000  0.6508444  3
   1053   1051   1054   1063     1  0.0000000  0.6508444  3
   1053   1051   1054   1055     1  0.0000000  0.6508444  3
   1053   1051   1054   1056     1  0.0000000  0.6508444  3
   1055   1054   1063   1072     1  0.0000000  1.0460000  1
   1055   1054   1063   1072     1  0.0000000  0.0000000  3
   1055   1054   1063   1064     1  0.0000000  0.6508444  3
   1055   1054   1063   1065     1  0.0000000  0.6508444  3
   1056   1054   1063   1072     1  0.0000000  1.0460000  1
   1056   1054   1063   1072     1  0.0000000  0.0000000  3
   1056   1054   1063   1064     1  0.0000000  0.6508444  3
   1056   1054   1063   1065     1  0.0000000  0.6508444  3
   1058   1057   1069   2203     1  0.0000000  1.0460000  1
   1058   1057   1069   2203     1  0.0000000  0.0000000  3
   1058   1057   1069   1070     1  0.0000000  0.6508444  3
   1058   1057   1069   1071     1  0.0000000  0.6508444  3
   1059   1057   1069   2203     1  0.0000000  1.0460000  1
   1059   1057   1069   2203     1  0.0000000  0.0000000  3
   1059   1057   1069   1070     1  0.0000000  0.6508444  3
   1059   1057   1069   1071     1  0.0000000  0.6508444  3
   1061   1060   1066   2174     1  0.0000000  1.0460000  1
   1061   1060   1066   2174     1  0.0000000  0.0000000  3
   1061   1060   1066   1067     1  0.0000000  0.6508444  3
   1061   1060   1066   1068     1  0.0000000  0.6508444  3
   1062   1060   1066   2174     1  0.0000000  1.0460000  1
   1062   1060   1066   2174     1  0.0000000  0.0000000  3
   1062   1060   1066   1067     1  0.0000000  0.6508444  3
   1062   1060   1066   1068     1  0.0000000  0.6508444  3
   1066   2174   2165   2166     1  0.0000000  1.6038667  3
   1066   2174   2165   2167     1  0.0000000  1.6038667  3
   1067   1066   2174   2165     1  0.0000000  1.6038667  3
   1068   1066   2174   2165     1  0.0000000  1.6038667  3
   1069   2203   2194   2195     1  0.0000000  1.6038667  3
   1069   2203   2194   2196     1  0.0000000  1.6038667  3
   1070   1069   2203   2194     1  0.0000000  1.6038667  3
   1071   1069   2203   2194     1  0.0000000  1.6038667  3
   1073   1074   1086   1087     1  0.0000000  0.6508444  3
   1073   1074   1086   1088     1  0.0000000  0.6508444  3
   1073   1077   1089   1090     1  0.0000000  0.6508444  3
   1073   1077   1089   1091     1  0.0000000  0.6508444  3
   1073   1080   1083   1084     1  0.0000000  0.6508444  3
   1073   1080   1083   1085     1  0.0000000  0.6508444  3
   1074   1073   1077   1078     1  0.0000000  1.2552000  3
   1074   1073   1077   1079     1  0.0000000  1.2552000  3
   1074   1073   1080   1081     1  0.0000000  1.2552000  3
   1074   1073   1080   1082     1  0.0000000  1.2552000  3
   1074   1086   1098   1099     1  0.0000000  0.6508444  3
   1074   1086   1098   1100     1  0.0000000  0.6508444  3
   1075   1074   1073   1077     1  0.0000000  1.2552000  3
   1075   1074   1073   1080     1  0.0000000  1.2552000  3
   1075   1074   1086   1098     1  0.0000000  0.6508444  3
   1075   1074   1086   1087     1  0.0000000  0.6508444  3
   1075   1074   1086   1088     1  0.0000000  0.6508444  3
   1076   1074   1073   1077     1  0.0000000  1.2552000  3
   1076   1074   1073   1080     1  0.0000000  1.2552000  3
   1076   1074   1086   1098     1  0.0000000  0.6508444  3
   1076   1074   1086   1087     1  0.0000000  0.6508444  3
   1076   1074   1086   1088     1  0.0000000  0.6508444  3
   1077   1073   1080   1081     1  0.0000000  1.2552000  3
   1077   1073   1080   1082     1  0.0000000  1.2552000  3
   1077   1089   1095   1096     1  0.0000000  0.6508444  3
   1077   1089   1095   1097     1  0.0000000  0.6508444  3
   1078   1077   1073   1080     1  0.0000000  1.2552000  3
   1078   1077   1089   1095     1  0.0000000  0.6508444  3
   1078   1077   1089   1090     1  0.0000000  0.6508444  3
   1078   1077   1089   1091     1  0.0000000  0.6508444  3
   1079   1077   1073   1080     1  0.0000000  1.2552000  3
   1079   1077   1089   1095     1  0.0000000  0.6508444  3
   1079   1077   1089   1090     1  0.0000000  0.6508444  3
   1079   1077   1089   1091     1  0.0000000  0.6508444  3
   1080   1083   1092   1093     1  0.0000000  0.6508444  3
   1080   1083   1092   1094     1  0.0000000  0.6508444  3
   1081   1080   1083   1092     1  0.0000000  0.6508444  3
   1081   1080   1083   1084     1  0.0000000  0.6508444  3
   1081   1080   1083   1085     1  0.0000000  0.6508444  3
   1082   1080   1083   1092     1  0.0000000  0.6508444  3
   1082   1080   1083   1084     1  0.0000000  0.6508444  3
   1082   1080   1083   1085     1  0.0000000  0.6508444  3
   1084   1083   1092   1101     1  0.0000000  1.0460000  1
   1084   1083   1092   1101     1  0.0000000  0.0000000  3
   1084   1083   1092   1093     1  0.0000000  0.6508444  3
   1084   1083   1092   1094     1  0.0000000  0.6508444  3
   1085   1083   1092   1101     1  0.0000000  1.0460000  1
   1085   1083   1092   1101     1  0.0000000  0.0000000  3
   1085   1083   1092   1093     1  0.0000000  0.6508444  3
   1085   1083   1092   1094     1  0.0000000  0.6508444  3
   1087   1086   1098   2261     1  0.0000000  1.0460000  1
   1087   1086   1098   2261     1  0.0000000  0.0000000  3
   1087   1086   1098   1099     1  0.0000000  0.6508444  3
   1087   1086   1098   1100     1  0.0000000  0.6508444  3
   1088   1086   1098   2261     1  0.0000000  1.0460000  1
   1088   1086   1098   2261     1  0.0000000  0.0000000  3
   1088   1086   1098   1099     1  0.0000000  0.6508444  3
   1088   1086   1098   1100     1  0.0000000  0.6508444  3
   1090   1089   1095   2232     1  0.0000000  1.0460000  1
   1090   1089   1095   2232     1  0.0000000  0.0000000  3
   1090   1089   1095   1096     1  0.0000000  0.6508444  3
   1090   1089   1095   1097     1  0.0000000  0.6508444  3
   1091   1089   1095   2232     1  0.0000000  1.0460000  1
   1091   1089   1095   2232     1  0.0000000  0.0000000  3
   1091   1089   1095   1096     1  0.0000000  0.6508444  3
   1091   1089   1095   1097     1  0.0000000  0.6508444  3
   1095   2232   2223   2224     1  0.0000000  1.6038667  3
   1095   2232   2223   2225     1  0.0000000  1.6038667  3
   1096   1095   2232   2223     1  0.0000000  1.6038667  3
   1097   1095   2232   2223     1  0.0000000  1.6038667  3
   1098   2261   2252   2253     1  0.0000000  1.6038667  3
   1098   2261   2252   2254     1  0.0000000  1.6038667  3
   1099   1098   2261   2252     1  0.0000000  1.6038667  3
   1100   1098   2261   2252     1  0.0000000  1.6038667  3
   1102   1103   1115   1116     1  0.0000000  0.6508444  3
   1102   1103   1115   1117     1  0.0000000  0.6508444  3
   1102   1106   1118   1119     1  0.0000000  0.6508444  3
   1102   1106   1118   1120     1  0.0000000  0.6508444  3
   1102   1109   1112   1113     1  0.0000000  0.6508444  3
   1102   1109   1112   1114     1  0.0000000  0.6508444  3
   1103   1102   1106   1107     1  0.0000000  1.2552000  3
   1103   1102   1106   1108     1  0.0000000  1.2552000  3
   1103   1102   1109   1110     1  0.0000000  1.2552000  3
   1103   1102   1109   1111     1  0.0000000  1.2552000  3
   1103   1115   1127   1128     1  0.0000000  0.6508444  3
   1103   1115   1127   1129     1  0.0000000  0.6508444  3
   1104   1103   1102   1106     1  0.0000000  1.2552000  3
   1104   1103   1102   1109     1  0.0000000  1.2552000  3
   1104   1103   1115   1127     1  0.0000000  0.6508444  3
   1104   1103   1115   1116     1  0.0000000  0.6508444  3
   1104   1103   1115   1117     1  0.0000000  0.6508444  3
   1105   1103   1102   1106     1  0.0000000  1.2552000  3
   1105   1103   1102   1109     1  0.0000000  1.2552000  3
   1105   1103   1115   1127     1  0.0000000  0.6508444  3
   1105   1103   1115   1116     1  0.0000000  0.6508444  3
   1105   1103   1115   1117     1  0.0000000  0.6508444  3
   1106   1102   1109   1110     1  0.0000000  1.2552000  3
   1106   1102   1109   1111     1  0.0000000  1.2552000  3
   1106   1118   1124   1125     1  0.0000000  0.6508444  3
   1106   1118   1124   1126     1  0.0000000  0.6508444  3
   1107   1106   1102   1109     1  0.0000000  1.2552000  3
   1107   1106   1118   1124     1  0.0000000  0.6508444  3
   1107   1106   1118   1119     1  0.0000000  0.6508444  3
   1107   1106   1118   1120     1  0.0000000  0.6508444  3
   1108   1106   1102   1109     1  0.0000000  1.2552000  3
   1108   1106   1118   1124     1  0.0000000  0.6508444  3
   1108   1106   1118   1119     1  0.0000000  0.6508444  3
   1108   1106   1118   1120     1  0.0000000  0.6508444  3
   1109   1112   1121   1122     1  0.0000000  0.6508444  3
   1109   1112   1121   1123     1  0.0000000  0.6508444  3
   1110   1109   1112   1121     1  0.0000000  0.6508444  3
   1110   1109   1112   1113     1  0.0000000  0.6508444  3
   1110   1109   1112   1114     1  0.0000000  0.6508444  3
   1111   1109   1112   1121     1  0.0000000  0.6508444  3
   1111   1109   1112   1113     1  0.0000000  0.6508444  3
   1111   1109   1112   1114     1  0.0000000  0.6508444  3
   1113   1112   1121   1130     1  0.0000000  1.0460000  1
   1113   1112   1121   1130     1  0.0000000  0.0000000  3
   1113   1112   1121   1122     1  0.0000000  0.6508444  3
   1113   1112   1121   1123     1  0.0000000  0.6508444  3
   1114   1112   1121   1130     1  0.0000000  1.0460000  1
   1114   1112   1121   1130     1  0.0000000  0.0000000  3
   1114   1112   1121   1122     1  0.0000000  0.6508444  3
   1114   1112   1121   1123     1  0.0000000  0.6508444  3
   1116   1115   1127   2319     1  0.0000000  1.0460000  1
   1116   1115   1127   2319     1  0.0000000  0.0000000  3
   1116   1115   1127   1128     1  0.0000000  0.6508444  3
   1116   1115   1127   1129     1  0.0000000  0.6508444  3
   1117   1115   1127   2319     1  0.0000000  1.0460000  1
   1117   1115   1127   2319     1  0.0000000  0.0000000  3
   1117   1115   1127   1128     1  0.0000000  0.6508444  3
   1117   1115   1127   1129     1  0.0000000  0.6508444  3
   1119   1118   1124   2290     1  0.0000000  1.0460000  1
   1119   1118   1124   2290     1  0.0000000  0.0000000  3
   1119   1118   1124   1125     1  0.0000000  0.6508444  3
   1119   1118   1124   1126     1  0.0000000  0.6508444  3
   1120   1118   1124   2290     1  0.0000000  1.0460000  1
   1120   1118   1124   2290     1  0.0000000  0.0000000  3
   1120   1118   1124   1125     1  0.0000000  0.6508444  3
   1120   1118   1124   1126     1  0.0000000  0.6508444  3
   1124   2290   2281   2282     1  0.0000000  1.6038667  3
   1124   2290   2281   2283     1  0.0000000  1.6038667  3
   1125   1124   2290   2281     1  0.0000000  1.6038667  3
   1126   1124   2290   2281     1  0.0000000  1.6038667  3
   1127   2319   2310   2311     1  0.0000000  1.6038667  3
   1127   2319   2310   2312     1  0.0000000  1.6038667  3
   1128   1127   2319   2310     1  0.0000000  1.6038667  3
   1129   1127   2319   2310     1  0.0000000  1.6038667  3
   1131   1132   1144   1145     1  0.0000000  0.6508444  3
   1131   1132   1144   1146     1  0.0000000  0.6508444  3
   1131   1135   1147   1148     1  0.0000000  0.6508444  3
   1131   1135   1147   1149     1  0.0000000  0.6508444  3
   1131   1138   1141   1142     1  0.0000000  0.6508444  3
   1131   1138   1141   1143     1  0.0000000  0.6508444  3
   1132   1131   1135   1136     1  0.0000000  1.2552000  3
   1132   1131   1135   1137     1  0.0000000  1.2552000  3
   1132   1131   1138   1139     1  0.0000000  1.2552000  3
   1132   1131   1138   1140     1  0.0000000  1.2552000  3
   1132   1144   1156   1157     1  0.0000000  0.6508444  3
   1132   1144   1156   1158     1  0.0000000  0.6508444  3
   1133   1132   1131   1135     1  0.0000000  1.2552000  3
   1133   1132   1131   1138     1  0.0000000  1.2552000  3
   1133   1132   1144   1156     1  0.0000000  0.6508444  3
   1133   1132   1144   1145     1  0.0000000  0.6508444  3
   1133   1132   1144   1146     1  0.0000000  0.6508444  3
   1134   1132   1131   1135     1  0.0000000  1.2552000  3
   1134   1132   1131   1138     1  0.0000000  1.2552000  3
   1134   1132   1144   1156     1  0.0000000  0.6508444  3
   1134   1132   1144   1145     1  0.0000000  0.6508444  3
   1134   1132   1144   1146     1  0.0000000  0.6508444  3
   1135   1131   1138   1139     1  0.0000000  1.2552000  3
   1135   1131   1138   1140     1  0.0000000  1.2552000  3
   1135   1147   1153   1154     1  0.0000000  0.6508444  3
   1135   1147   1153   1155     1  0.0000000  0.6508444  3
   1136   1135   1131   1138     1  0.0000000  1.2552000  3
   1136   1135   1147   1153     1  0.0000000  0.6508444  3
   1136   1135   1147   1148     1  0.0000000  0.6508444  3
   1136   1135   1147   1149     1  0.0000000  0.6508444  3
   1137   1135   1131   1138     1  0.0000000  1.2552000  3
   1137   1135   1147   1153     1  0.0000000  0.6508444  3
   1137   1135   1147   1148     1  0.0000000  0.6508444  3
   1137   1135   1147   1149     1  0.0000000  0.6508444  3
   1138   1141   1150   1151     1  0.0000000  0.6508444  3
   1138   1141   1150   1152     1  0.0000000  0.6508444  3
   1139   1138   1141   1150     1  0.0000000  0.6508444  3
   1139   1138   1141   1142     1  0.0000000  0.6508444  3
   1139   1138   1141   1143     1  0.0000000  0.6508444  3
   1140   1138   1141   1150     1  0.0000000  0.6508444  3
   1140   1138   1141   1142     1  0.0000000  0.6508444  3
   1140   1138   1141   1143     1  0.0000000  0.6508444  3
   1142   1141   1150   1159     1  0.0000000  1.0460000  1
   1142   1141   1150   1159     1  0.0000000  0.0000000  3
   1142   1141   1150   1151     1  0.0000000  0.6508444  3
   1142   1141   1150   1152     1  0.0000000  0.6508444  3
   1143   1141   1150   1159     1  0.0000000  1.0460000  1
   1143   1141   1150   1159     1  0.0000000  0.0000000  3
   1143   1141   1150   1151     1  0.0000000  0.6508444  3
   1143   1141   1150   1152     1  0.0000000  0.6508444  3
   1145   1144   1156   2377     1  0.0000000  1.0460000  1
   1145   1144   1156   2377     1  0.0000000  0.0000000  3
   1145   1144   1156   1157     1  0.0000000  0.6508444  3
   1145   1144   1156   1158     1  0.0000000  0.6508444  3
   1146   1144   1156   2377     1  0.0000000  1.0460000  1
   1146   1144   1156   2377     1  0.0000000  0.0000000  3
   1146   1144   1156   1157     1  0.0000000  0.6508444  3
   1146   1144   1156   1158     1  0.0000000  0.6508444  3
   1148   1147   1153   2348     1  0.0000000  1.0460000  1
   1148   1147   1153   2348     1  0.0000000  0.0000000  3
   1148   1147   1153   1154     1  0.0000000  0.6508444  3
   1148   1147   1153   1155     1  0.0000000  0.6508444  3
   1149   1147   1153   2348     1  0.0000000  1.0460000  1
   1149   1147   1153   2348     1  0.0000000  0.0000000  3
   1149   1147   1153   1154     1  0.0000000  0.6508444  3
   1149   1147   1153   1155     1  0.0000000  0.6508444  3
   1153   2348   2339   2340     1  0.0000000  1.6038667  3
   1153   2348   2339   2341     1  0.0000000  1.6038667  3
   1154   1153   2348   2339     1  0.0000000  1.6038667  3
   1155   1153   2348   2339     1  0.0000000  1.6038667  3
   1156   2377   2368   2369     1  0.0000000  1.6038667  3
   1156   2377   2368   2370     1  0.0000000  1.6038667  3
   1157   1156   2377   2368     1  0.0000000  1.6038667  3
   1158   1156   2377   2368     1  0.0000000  1.6038667  3
   1160   1161   1173   1174     1  0.0000000  0.6508444  3
   1160   1161   1173   1175     1  0.0000000  0.6508444  3
   1160   1164   1176   1177     1  0.0000000  0.6508444  3
   1160   1164   1176   1178     1  0.0000000  0.6508444  3
   1160   1167   1170   1171     1  0.0000000  0.6508444  3
   1160   1167   1170   1172     1  0.0000000  0.6508444  3
   1161   1160   1164   1165     1  0.0000000  1.2552000  3
   1161   1160   1164   1166     1  0.0000000  1.2552000  3
   1161   1160   1167   1168     1  0.0000000  1.2552000  3
   1161   1160   1167   1169     1  0.0000000  1.2552000  3
   1161   1173   1185   1186     1  0.0000000  0.6508444  3
   1161   1173   1185   1187     1  0.0000000  0.6508444  3
   1162   1161   1160   1164     1  0.0000000  1.2552000  3
   1162   1161   1160   1167     1  0.0000000  1.2552000  3
   1162   1161   1173   1185     1  0.0000000  0.6508444  3
   1162   1161   1173   1174     1  0.0000000  0.6508444  3
   1162   1161   1173   1175     1  0.0000000  0.6508444  3
   1163   1161   1160   1164     1  0.0000000  1.2552000  3
   1163   1161   1160   1167     1  0.0000000  1.2552000  3
   1163   1161   1173   1185     1  0.0000000  0.6508444  3
   1163   1161   1173   1174     1  0.0000000  0.6508444  3
   1163   1161   1173   1175     1  0.0000000  0.6508444  3
   1164   1160   1167   1168     1  0.0000000  1.2552000  3
   1164   1160   1167   1169     1  0.0000000  1.2552000  3
   1164   1176   1182   1183     1  0.0000000  0.6508444  3
   1164   1176   1182   1184     1  0.0000000  0.6508444  3
   1165   1164   1160   1167     1  0.0000000  1.2552000  3
   1165   1164   1176   1182     1  0.0000000  0.6508444  3
   1165   1164   1176   1177     1  0.0000000  0.6508444  3
   1165   1164   1176   1178     1  0.0000000  0.6508444  3
   1166   1164   1160   1167     1  0.0000000  1.2552000  3
   1166   1164   1176   1182     1  0.0000000  0.6508444  3
   1166   1164   1176   1177     1  0.0000000  0.6508444  3
   1166   1164   1176   1178     1  0.0000000  0.6508444  3
   1167   1170   1179   1180     1  0.0000000  0.6508444  3
   1167   1170   1179   1181     1  0.0000000  0.6508444  3
   1168   1167   1170   1179     1  0.0000000  0.6508444  3
   1168   1167   1170   1171     1  0.0000000  0.6508444  3
   1168   1167   1170   1172     1  0.0000000  0.6508444  3
   1169   1167   1170   1179     1  0.0000000  0.6508444  3
   1169   1167   1170   1171     1  0.0000000  0.6508444  3
   1169   1167   1170   1172     1  0.0000000  0.6508444  3
   1171   1170   1179   1188     1  0.0000000  1.0460000  1
   1171   1170   1179   1188     1  0.0000000  0.0000000  3
   1171   1170   1179   1180     1  0.0000000  0.6508444  3
   1171   1170   1179   1181     1  0.0000000  0.6508444  3
   1172   1170   1179   1188     1  0.0000000  1.0460000  1
   1172   1170   1179   1188     1  0.0000000  0.0000000  3
   1172   1170   1179   1180     1  0.0000000  0.6508444  3
   1172   1170   1179   1181     1  0.0000000  0.6508444  3
   1174   1173   1185   2435     1  0.0000000  1.0460000  1
   1174   1173   1185   2435     1  0.0000000  0.0000000  3
   1174   1173   1185   1186     1  0.0000000  0.6508444  3
   1174   1173   1185   1187     1  0.0000000  0.6508444  3
   1175   1173   1185   2435     1  0.0000000  1.0460000  1
   1175   1173   1185   2435     1  0.0000000  0.0000000  3
   1175   1173   1185   1186     1  0.0000000  0.6508444  3
   1175   1173   1185   1187     1  0.0000000  0.6508444  3
   1177   1176   1182   2406     1  0.0000000  1.0460000  1
   1177   1176   1182   2406     1  0.0000000  0.0000000  3
   1177   1176   1182   1183     1  0.0000000  0.6508444  3
   1177   1176   1182   1184     1  0.0000000  0.6508444  3
   1178   1176   1182   2406     1  0.0000000  1.0460000  1
   1178   1176   1182   2406     1  0.0000000  0.0000000  3
   1178   1176   1182   1183     1  0.0000000  0.6508444  3
   1178   1176   1182   1184     1  0.0000000  0.6508444  3
   1182   2406   2397   2398     1  0.0000000  1.6038667  3
   1182   2406   2397   2399     1  0.0000000  1.6038667  3
   1183   1182   2406   2397     1  0.0000000  1.6038667  3
   1184   1182   2406   2397     1  0.0000000  1.6038667  3
   1185   2435   2426   2427     1  0.0000000  1.6038667  3
   1185   2435   2426   2428     1  0.0000000  1.6038667  3
   1186   1185   2435   2426     1  0.0000000  1.6038667  3
   1187   1185   2435   2426     1  0.0000000  1.6038667  3
   1189   1190   1202   1203     1  0.0000000  0.6508444  3
   1189   1190   1202   1204     1  0.0000000  0.6508444  3
   1189   1193   1205   1206     1  0.0000000  0.6508444  3
   1189   1193   1205   1207     1  0.0000000  0.6508444  3
   1189   1196   1199   1200     1  0.0000000  0.6508444  3
   1189   1196   1199   1201     1  0.0000000  0.6508444  3
   1190   1189   1193   1194     1  0.0000000  1.2552000  3
   1190   1189   1193   1195     1  0.0000000  1.2552000  3
   1190   1189   1196   1197     1  0.0000000  1.2552000  3
   1190   1189   1196   1198     1  0.0000000  1.2552000  3
   1190   1202   1214   1215     1  0.0000000  0.6508444  3
   1190   1202   1214   1216     1  0.0000000  0.6508444  3
   1191   1190   1189   1193     1  0.0000000  1.2552000  3
   1191   1190   1189   1196     1  0.0000000  1.2552000  3
   1191   1190   1202   1214     1  0.0000000  0.6508444  3
   1191   1190   1202   1203     1  0.0000000  0.6508444  3
   1191   1190   1202   1204     1  0.0000000  0.6508444  3
   1192   1190   1189   1193     1  0.0000000  1.2552000  3
   1192   1190   1189   1196     1  0.0000000  1.2552000  3
   1192   1190   1202   1214     1  0.0000000  0.6508444  3
   1192   1190   1202   1203     1  0.0000000  0.6508444  3
   1192   1190   1202   1204     1  0.0000000  0.6508444  3
   1193   1189   1196   1197     1  0.0000000  1.2552000  3
   1193   1189   1196   1198     1  0.0000000  1.2552000  3
   1193   1205   1211   1212     1  0.0000000  0.6508444  3
   1193   1205   1211   1213     1  0.0000000  0.6508444  3
   1194   1193   1189   1196     1  0.0000000  1.2552000  3
   1194   1193   1205   1211     1  0.0000000  0.6508444  3
   1194   1193   1205   1206     1  0.0000000  0.6508444  3
   1194   1193   1205   1207     1  0.0000000  0.6508444  3
   1195   1193   1189   1196     1  0.0000000  1.2552000  3
   1195   1193   1205   1211     1  0.0000000  0.6508444  3
   1195   1193   1205   1206     1  0.0000000  0.6508444  3
   1195   1193   1205   1207     1  0.0000000  0.6508444  3
   1196   1199   1208   1209     1  0.0000000  0.6508444  3
   1196   1199   1208   1210     1  0.0000000  0.6508444  3
   1197   1196   1199   1208     1  0.0000000  0.6508444  3
   1197   1196   1199   1200     1  0.0000000  0.6508444  3
   1197   1196   1199   1201     1  0.0000000  0.6508444  3
   1198   1196   1199   1208     1  0.0000000  0.6508444  3
   1198   1196   1199   1200     1  0.0000000  0.6508444  3
   1198   1196   1199   1201     1  0.0000000  0.6508444  3
   1200   1199   1208   1217     1  0.0000000  1.0460000  1
   1200   1199   1208   1217     1  0.0000000  0.0000000  3
   1200   1199   1208   1209     1  0.0000000  0.6508444  3
   1200   1199   1208   1210     1  0.0000000  0.6508444  3
   1201   1199   1208   1217     1  0.0000000  1.0460000  1
   1201   1199   1208   1217     1  0.0000000  0.0000000  3
   1201   1199   1208   1209     1  0.0000000  0.6508444  3
   1201   1199   1208   1210     1  0.0000000  0.6508444  3
   1203   1202   1214   2493     1  0.0000000  1.0460000  1
   1203   1202   1214   2493     1  0.0000000  0.0000000  3
   1203   1202   1214   1215     1  0.0000000  0.6508444  3
   1203   1202   1214   1216     1  0.0000000  0.6508444  3
   1204   1202   1214   2493     1  0.0000000  1.0460000  1
   1204   1202   1214   2493     1  0.0000000  0.0000000  3
   1204   1202   1214   1215     1  0.0000000  0.6508444  3
   1204   1202   1214   1216     1  0.0000000  0.6508444  3
   1206   1205   1211   2464     1  0.0000000  1.0460000  1
   1206   1205   1211   2464     1  0.0000000  0.0000000  3
   1206   1205   1211   1212     1  0.0000000  0.6508444  3
   1206   1205   1211   1213     1  0.0000000  0.6508444  3
   1207   1205   1211   2464     1  0.0000000  1.0460000  1
   1207   1205   1211   2464     1  0.0000000  0.0000000  3
   1207   1205   1211   1212     1  0.0000000  0.6508444  3
   1207   1205   1211   1213     1  0.0000000  0.6508444  3
   1211   2464   2455   2456     1  0.0000000  1.6038667  3
   1211   2464   2455   2457     1  0.0000000  1.6038667  3
   1212   1211   2464   2455     1  0.0000000  1.6038667  3
   1213   1211   2464   2455     1  0.0000000  1.6038667  3
   1214   2493   2484   2485     1  0.0000000  1.6038667  3
   1214   2493   2484   2486     1  0.0000000  1.6038667  3
   1215   1214   2493   2484     1  0.0000000  1.6038667  3
   1216   1214   2493   2484     1  0.0000000  1.6038667  3
   1218   1219   1231   1232     1  0.0000000  0.6508444  3
   1218   1219   1231   1233     1  0.0000000  0.6508444  3
   1218   1222   1234   1235     1  0.0000000  0.6508444  3
   1218   1222   1234   1236     1  0.0000000  0.6508444  3
   1218   1225   1228   1229     1  0.0000000  0.6508444  3
   1218   1225   1228   1230     1  0.0000000  0.6508444  3
   1219   1218   1222   1223     1  0.0000000  1.2552000  3
   1219   1218   1222   1224     1  0.0000000  1.2552000  3
   1219   1218   1225   1226     1  0.0000000  1.2552000  3
   1219   1218   1225   1227     1  0.0000000  1.2552000  3
   1219   1231   1243   1244     1  0.0000000  0.6508444  3
   1219   1231   1243   1245     1  0.0000000  0.6508444  3
   1220   1219   1218   1222     1  0.0000000  1.2552000  3
   1220   1219   1218   1225     1  0.0000000  1.2552000  3
   1220   1219   1231   1243     1  0.0000000  0.6508444  3
   1220   1219   1231   1232     1  0.0000000  0.6508444  3
   1220   1219   1231   1233     1  0.0000000  0.6508444  3
   1221   1219   1218   1222     1  0.0000000  1.2552000  3
   1221   1219   1218   1225     1  0.0000000  1.2552000  3
   1221   1219   1231   1243     1  0.0000000  0.6508444  3
   1221   1219   1231   1232     1  0.0000000  0.6508444  3
   1221   1219   1231   1233     1  0.0000000  0.6508444  3
   1222   1218   1225   1226     1  0.0000000  1.2552000  3
   1222   1218   1225   1227     1  0.0000000  1.2552000  3
   1222   1234   1240   1241     1  0.0000000  0.6508444  3
   1222   1234   1240   1242     1  0.0000000  0.6508444  3
   1223   1222   1218   1225     1  0.0000000  1.2552000  3
   1223   1222   1234   1240     1  0.0000000  0.6508444  3
   1223   1222   1234   1235     1  0.0000000  0.6508444  3
   1223   1222   1234   1236     1  0.0000000  0.6508444  3
   1224   1222   1218   1225     1  0.0000000  1.2552000  3
   1224   1222   1234   1240     1  0.0000000  0.6508444  3
   1224   1222   1234   1235     1  0.0000000  0.6508444  3
   1224   1222   1234   1236     1  0.0000000  0.6508444  3
   1225   1228   1237   1238     1  0.0000000  0.6508444  3
   1225   1228   1237   1239     1  0.0000000  0.6508444  3
   1226   1225   1228   1237     1  0.0000000  0.6508444  3
   1226   1225   1228   1229     1  0.0000000  0.6508444  3
   1226   1225   1228   1230     1  0.0000000  0.6508444  3
   1227   1225   1228   1237     1  0.0000000  0.6508444  3
   1227   1225   1228   1229     1  0.0000000  0.6508444  3
   1227   1225   1228   1230     1  0.0000000  0.6508444  3
   1229   1228   1237   1246     1  0.0000000  1.0460000  1
   1229   1228   1237   1246     1  0.0000000  0.0000000  3
   1229   1228   1237   1238     1  0.0000000  0.6508444  3
   1229   1228   1237   1239     1  0.0000000  0.6508444  3
   1230   1228   1237   1246     1  0.0000000  1.0460000  1
   1230   1228   1237   1246     1  0.0000000  0.0000000  3
   1230   1228   1237   1238     1  0.0000000  0.6508444  3
   1230   1228   1237   1239     1  0.0000000  0.6508444  3
   1232   1231   1243   2551     1  0.0000000  1.0460000  1
   1232   1231   1243   2551     1  0.0000000  0.0000000  3
   1232   1231   1243   1244     1  0.0000000  0.6508444  3
   1232   1231   1243   1245     1  0.0000000  0.6508444  3
   1233   1231   1243   2551     1  0.0000000  1.0460000  1
   1233   1231   1243   2551     1  0.0000000  0.0000000  3
   1233   1231   1243   1244     1  0.0000000  0.6508444  3
   1233   1231   1243   1245     1  0.0000000  0.6508444  3
   1235   1234   1240   2522     1  0.0000000  1.0460000  1
   1235   1234   1240   2522     1  0.0000000  0.0000000  3
   1235   1234   1240   1241     1  0.0000000  0.6508444  3
   1235   1234   1240   1242     1  0.0000000  0.6508444  3
   1236   1234   1240   2522     1  0.0000000  1.0460000  1
   1236   1234   1240   2522     1  0.0000000  0.0000000  3
   1236   1234   1240   1241     1  0.0000000  0.6508444  3
   1236   1234   1240   1242     1  0.0000000  0.6508444  3
   1240   2522   2513   2514     1  0.0000000  1.6038667  3
   1240   2522   2513   2515     1  0.0000000  1.6038667  3
   1241   1240   2522   2513     1  0.0000000  1.6038667  3
   1242   1240   2522   2513     1  0.0000000  1.6038667  3
   1243   2551   2542   2543     1  0.0000000  1.6038667  3
   1243   2551   2542   2544     1  0.0000000  1.6038667  3
   1244   1243   2551   2542     1  0.0000000  1.6038667  3
   1245   1243   2551   2542     1  0.0000000  1.6038667  3
   1247   1248   1260   1261     1  0.0000000  0.6508444  3
   1247   1248   1260   1262     1  0.0000000  0.6508444  3
   1247   1251   1263   1264     1  0.0000000  0.6508444  3
   1247   1251   1263   1265     1  0.0000000  0.6508444  3
   1247   1254   1257   1258     1  0.0000000  0.6508444  3
   1247   1254   1257   1259     1  0.0000000  0.6508444  3
   1248   1247   1251   1252     1  0.0000000  1.2552000  3
   1248   1247   1251   1253     1  0.0000000  1.2552000  3
   1248   1247   1254   1255     1  0.0000000  1.2552000  3
   1248   1247   1254   1256     1  0.0000000  1.2552000  3
   1248   1260   1272   1273     1  0.0000000  0.6508444  3
   1248   1260   1272   1274     1  0.0000000  0.6508444  3
   1249   1248   1247   1251     1  0.0000000  1.2552000  3
   1249   1248   1247   1254     1  0.0000000  1.2552000  3
   1249   1248   1260   1272     1  0.0000000  0.6508444  3
   1249   1248   1260   1261     1  0.0000000  0.6508444  3
   1249   1248   1260   1262     1  0.0000000  0.6508444  3
   1250   1248   1247   1251     1  0.0000000  1.2552000  3
   1250   1248   1247   1254     1  0.0000000  1.2552000  3
   1250   1248   1260   1272     1  0.0000000  0.6508444  3
   1250   1248   1260   1261     1  0.0000000  0.6508444  3
   1250   1248   1260   1262     1  0.0000000  0.6508444  3
   1251   1247   1254   1255     1  0.0000000  1.2552000  3
   1251   1247   1254   1256     1  0.0000000  1.2552000  3
   1251   1263   1269   1270     1  0.0000000  0.6508444  3
   1251   1263   1269   1271     1  0.0000000  0.6508444  3
   1252   1251   1247   1254     1  0.0000000  1.2552000  3
   1252   1251   1263   1269     1  0.0000000  0.6508444  3
   1252   1251   1263   1264     1  0.0000000  0.6508444  3
   1252   1251   1263   1265     1  0.0000000  0.6508444  3
   1253   1251   1247   1254     1  0.0000000  1.2552000  3
   1253   1251   1263   1269     1  0.0000000  0.6508444  3
   1253   1251   1263   1264     1  0.0000000  0.6508444  3
   1253   1251   1263   1265     1  0.0000000  0.6508444  3
   1254   1257   1266   1267     1  0.0000000  0.6508444  3
   1254   1257   1266   1268     1  0.0000000  0.6508444  3
   1255   1254   1257   1266     1  0.0000000  0.6508444  3
   1255   1254   1257   1258     1  0.0000000  0.6508444  3
   1255   1254   1257   1259     1  0.0000000  0.6508444  3
   1256   1254   1257   1266     1  0.0000000  0.6508444  3
   1256   1254   1257   1258     1  0.0000000  0.6508444  3
   1256   1254   1257   1259     1  0.0000000  0.6508444  3
   1258   1257   1266   1275     1  0.0000000  1.0460000  1
   1258   1257   1266   1275     1  0.0000000  0.0000000  3
   1258   1257   1266   1267     1  0.0000000  0.6508444  3
   1258   1257   1266   1268     1  0.0000000  0.6508444  3
   1259   1257   1266   1275     1  0.0000000  1.0460000  1
   1259   1257   1266   1275     1  0.0000000  0.0000000  3
   1259   1257   1266   1267     1  0.0000000  0.6508444  3
   1259   1257   1266   1268     1  0.0000000  0.6508444  3
   1261   1260   1272   2609     1  0.0000000  1.0460000  1
   1261   1260   1272   2609     1  0.0000000  0.0000000  3
   1261   1260   1272   1273     1  0.0000000  0.6508444  3
   1261   1260   1272   1274     1  0.0000000  0.6508444  3
   1262   1260   1272   2609     1  0.0000000  1.0460000  1
   1262   1260   1272   2609     1  0.0000000  0.0000000  3
   1262   1260   1272   1273     1  0.0000000  0.6508444  3
   1262   1260   1272   1274     1  0.0000000  0.6508444  3
   1264   1263   1269   2580     1  0.0000000  1.0460000  1
   1264   1263   1269   2580     1  0.0000000  0.0000000  3
   1264   1263   1269   1270     1  0.0000000  0.6508444  3
   1264   1263   1269   1271     1  0.0000000  0.6508444  3
   1265   1263   1269   2580     1  0.0000000  1.0460000  1
   1265   1263   1269   2580     1  0.0000000  0.0000000  3
   1265   1263   1269   1270     1  0.0000000  0.6508444  3
   1265   1263   1269   1271     1  0.0000000  0.6508444  3
   1269   2580   2571   2572     1  0.0000000  1.6038667  3
   1269   2580   2571   2573     1  0.0000000  1.6038667  3
   1270   1269   2580   2571     1  0.0000000  1.6038667  3
   1271   1269   2580   2571     1  0.0000000  1.6038667  3
   1272   2609   2600   2601     1  0.0000000  1.6038667  3
   1272   2609   2600   2602     1  0.0000000  1.6038667  3
   1273   1272   2609   2600     1  0.0000000  1.6038667  3
   1274   1272   2609   2600     1  0.0000000  1.6038667  3
   1276   1277   1289   1290     1  0.0000000  0.6508444  3
   1276   1277   1289   1291     1  0.0000000  0.6508444  3
   1276   1280   1292   1293     1  0.0000000  0.6508444  3
   1276   1280   1292   1294     1  0.0000000  0.6508444  3
   1276   1283   1286   1287     1  0.0000000  0.6508444  3
   1276   1283   1286   1288     1  0.0000000  0.6508444  3
   1277   1276   1280   1281     1  0.0000000  1.2552000  3
   1277   1276   1280   1282     1  0.0000000  1.2552000  3
   1277   1276   1283   1284     1  0.0000000  1.2552000  3
   1277   1276   1283   1285     1  0.0000000  1.2552000  3
   1277   1289   1301   1302     1  0.0000000  0.6508444  3
   1277   1289   1301   1303     1  0.0000000  0.6508444  3
   1278   1277   1276   1280     1  0.0000000  1.2552000  3
   1278   1277   1276   1283     1  0.0000000  1.2552000  3
   1278   1277   1289   1301     1  0.0000000  0.6508444  3
   1278   1277   1289   1290     1  0.0000000  0.6508444  3
   1278   1277   1289   1291     1  0.0000000  0.6508444  3
   1279   1277   1276   1280     1  0.0000000  1.2552000  3
   1279   1277   1276   1283     1  0.0000000  1.2552000  3
   1279   1277   1289   1301     1  0.0000000  0.6508444  3
   1279   1277   1289   1290     1  0.0000000  0.6508444  3
   1279   1277   1289   1291     1  0.0000000  0.6508444  3
   1280   1276   1283   1284     1  0.0000000  1.2552000  3
   1280   1276   1283   1285     1  0.0000000  1.2552000  3
   1280   1292   1298   1299     1  0.0000000  0.6508444  3
   1280   1292   1298   1300     1  0.0000000  0.6508444  3
   1281   1280   1276   1283     1  0.0000000  1.2552000  3
   1281   1280   1292   1298     1  0.0000000  0.6508444  3
   1281   1280   1292   1293     1  0.0000000  0.6508444  3
   1281   1280   1292   1294     1  0.0000000  0.6508444  3
   1282   1280   1276   1283     1  0.0000000  1.2552000  3
   1282   1280   1292   1298     1  0.0000000  0.6508444  3
   1282   1280   1292   1293     1  0.0000000  0.6508444  3
   1282   1280   1292   1294     1  0.0000000  0.6508444  3
   1283   1286   1295   1296     1  0.0000000  0.6508444  3
   1283   1286   1295   1297     1  0.0000000  0.6508444  3
   1284   1283   1286   1295     1  0.0000000  0.6508444  3
   1284   1283   1286   1287     1  0.0000000  0.6508444  3
   1284   1283   1286   1288     1  0.0000000  0.6508444  3
   1285   1283   1286   1295     1  0.0000000  0.6508444  3
   1285   1283   1286   1287     1  0.0000000  0.6508444  3
   1285   1283   1286   1288     1  0.0000000  0.6508444  3
   1287   1286   1295   1304     1  0.0000000  1.0460000  1
   1287   1286   1295   1304     1  0.0000000  0.0000000  3
   1287   1286   1295   1296     1  0.0000000  0.6508444  3
   1287   1286   1295   1297     1  0.0000000  0.6508444  3
   1288   1286   1295   1304     1  0.0000000  1.0460000  1
   1288   1286   1295   1304     1  0.0000000  0.0000000  3
   1288   1286   1295   1296     1  0.0000000  0.6508444  3
   1288   1286   1295   1297     1  0.0000000  0.6508444  3
   1290   1289   1301   2667     1  0.0000000  1.0460000  1
   1290   1289   1301   2667     1  0.0000000  0.0000000  3
   1290   1289   1301   1302     1  0.0000000  0.6508444  3
   1290   1289   1301   1303     1  0.0000000  0.6508444  3
   1291   1289   1301   2667     1  0.0000000  1.0460000  1
   1291   1289   1301   2667     1  0.0000000  0.0000000  3
   1291   1289   1301   1302     1  0.0000000  0.6508444  3
   1291   1289   1301   1303     1  0.0000000  0.6508444  3
   1293   1292   1298   2638     1  0.0000000  1.0460000  1
   1293   1292   1298   2638     1  0.0000000  0.0000000  3
   1293   1292   1298   1299     1  0.0000000  0.6508444  3
   1293   1292   1298   1300     1  0.0000000  0.6508444  3
   1294   1292   1298   2638     1  0.0000000  1.0460000  1
   1294   1292   1298   2638     1  0.0000000  0.0000000  3
   1294   1292   1298   1299     1  0.0000000  0.6508444  3
   1294   1292   1298   1300     1  0.0000000  0.6508444  3
   1298   2638   2629   2630     1  0.0000000  1.6038667  3
   1298   2638   2629   2631     1  0.0000000  1.6038667  3
   1299   1298   2638   2629     1  0.0000000  1.6038667  3
   1300   1298   2638   2629     1  0.0000000  1.6038667  3
   1301   2667   2658   2659     1  0.0000000  1.6038667  3
   1301   2667   2658   2660     1  0.0000000  1.6038667  3
   1302   1301   2667   2658     1  0.0000000  1.6038667  3
   1303   1301   2667   2658     1  0.0000000  1.6038667  3
   1305   1306   1318   1319     1  0.0000000  0.6508444  3
   1305   1306   1318   1320     1  0.0000000  0.6508444  3
   1305   1309   1321   1322     1  0.0000000  0.6508444  3
   1305   1309   1321   1323     1  0.0000000  0.6508444  3
   1305   1312   1315   1316     1  0.0000000  0.6508444  3
   1305   1312   1315   1317     1  0.0000000  0.6508444  3
   1306   1305   1309   1310     1  0.0000000  1.2552000  3
   1306   1305   1309   1311     1  0.0000000  1.2552000  3
   1306   1305   1312   1313     1  0.0000000  1.2552000  3
   1306   1305   1312   1314     1  0.0000000  1.2552000  3
   1306   1318   1330   1331     1  0.0000000  0.6508444  3
   1306   1318   1330   1332     1  0.0000000  0.6508444  3
   1307   1306   1305   1309     1  0.0000000  1.2552000  3
   1307   1306   1305   1312     1  0.0000000  1.2552000  3
   1307   1306   1318   1330     1  0.0000000  0.6508444  3
   1307   1306   1318   1319     1  0.0000000  0.6508444  3
   1307   1306   1318   1320     1  0.0000000  0.6508444  3
   1308   1306   1305   1309     1  0.0000000  1.2552000  3
   1308   1306   1305   1312     1  0.0000000  1.2552000  3
   1308   1306   1318   1330     1  0.0000000  0.6508444  3
   1308   1306   1318   1319     1  0.0000000  0.6508444  3
   1308   1306   1318   1320     1  0.0000000  0.6508444  3
   1309   1305   1312   1313     1  0.0000000  1.2552000  3
   1309   1305   1312   1314     1  0.0000000  1.2552000  3
   1309   1321   1327   1328     1  0.0000000  0.6508444  3
   1309   1321   1327   1329     1  0.0000000  0.6508444  3
   1310   1309   1305   1312     1  0.0000000  1.2552000  3
   1310   1309   1321   1327     1  0.0000000  0.6508444  3
   1310   1309   1321   1322     1  0.0000000  0.6508444  3
   1310   1309   1321   1323     1  0.0000000  0.6508444  3
   1311   1309   1305   1312     1  0.0000000  1.2552000  3
   1311   1309   1321   1327     1  0.0000000  0.6508444  3
   1311   1309   1321   1322     1  0.0000000  0.6508444  3
   1311   1309   1321   1323     1  0.0000000  0.6508444  3
   1312   1315   1324   1325     1  0.0000000  0.6508444  3
   1312   1315   1324   1326     1  0.0000000  0.6508444  3
   1313   1312   1315   1324     1  0.0000000  0.6508444  3
   1313   1312   1315   1316     1  0.0000000  0.6508444  3
   1313   1312   1315   1317     1  0.0000000  0.6508444  3
   1314   1312   1315   1324     1  0.0000000  0.6508444  3
   1314   1312   1315   1316     1  0.0000000  0.6508444  3
   1314   1312   1315   1317     1  0.0000000  0.6508444  3
   1316   1315   1324   1333     1  0.0000000  1.0460000  1
   1316   1315   1324   1333     1  0.0000000  0.0000000  3
   1316   1315   1324   1325     1  0.0000000  0.6508444  3
   1316   1315   1324   1326     1  0.0000000  0.6508444  3
   1317   1315   1324   1333     1  0.0000000  1.0460000  1
   1317   1315   1324   1333     1  0.0000000  0.0000000  3
   1317   1315   1324   1325     1  0.0000000  0.6508444  3
   1317   1315   1324   1326     1  0.0000000  0.6508444  3
   1319   1318   1330   2725     1  0.0000000  1.0460000  1
   1319   1318   1330   2725     1  0.0000000  0.0000000  3
   1319   1318   1330   1331     1  0.0000000  0.6508444  3
   1319   1318   1330   1332     1  0.0000000  0.6508444  3
   1320   1318   1330   2725     1  0.0000000  1.0460000  1
   1320   1318   1330   2725     1  0.0000000  0.0000000  3
   1320   1318   1330   1331     1  0.0000000  0.6508444  3
   1320   1318   1330   1332     1  0.0000000  0.6508444  3
   1322   1321   1327   2696     1  0.0000000  1.0460000  1
   1322   1321   1327   2696     1  0.0000000  0.0000000  3
   1322   1321   1327   1328     1  0.0000000  0.6508444  3
   1322   1321   1327   1329     1  0.0000000  0.6508444  3
   1323   1321   1327   2696     1  0.0000000  1.0460000  1
   1323   1321   1327   2696     1  0.0000000  0.0000000  3
   1323   1321   1327   1328     1  0.0000000  0.6508444  3
   1323   1321   1327   1329     1  0.0000000  0.6508444  3
   1327   2696   2687   2688     1  0.0000000  1.6038667  3
   1327   2696   2687   2689     1  0.0000000  1.6038667  3
   1328   1327   2696   2687     1  0.0000000  1.6038667  3
   1329   1327   2696   2687     1  0.0000000  1.6038667  3
   1330   2725   2716   2717     1  0.0000000  1.6038667  3
   1330   2725   2716   2718     1  0.0000000  1.6038667  3
   1331   1330   2725   2716     1  0.0000000  1.6038667  3
   1332   1330   2725   2716     1  0.0000000  1.6038667  3
   1334   1335   1347   1348     1  0.0000000  0.6508444  3
   1334   1335   1347   1349     1  0.0000000  0.6508444  3
   1334   1338   1350   1351     1  0.0000000  0.6508444  3
   1334   1338   1350   1352     1  0.0000000  0.6508444  3
   1334   1341   1344   1345     1  0.0000000  0.6508444  3
   1334   1341   1344   1346     1  0.0000000  0.6508444  3
   1335   1334   1338   1339     1  0.0000000  1.2552000  3
   1335   1334   1338   1340     1  0.0000000  1.2552000  3
   1335   1334   1341   1342     1  0.0000000  1.2552000  3
   1335   1334   1341   1343     1  0.0000000  1.2552000  3
   1335   1347   1359   1360     1  0.0000000  0.6508444  3
   1335   1347   1359   1361     1  0.0000000  0.6508444  3
   1336   1335   1334   1338     1  0.0000000  1.2552000  3
   1336   1335   1334   1341     1  0.0000000  1.2552000  3
   1336   1335   1347   1359     1  0.0000000  0.6508444  3
   1336   1335   1347   1348     1  0.0000000  0.6508444  3
   1336   1335   1347   1349     1  0.0000000  0.6508444  3
   1337   1335   1334   1338     1  0.0000000  1.2552000  3
   1337   1335   1334   1341     1  0.0000000  1.2552000  3
   1337   1335   1347   1359     1  0.0000000  0.6508444  3
   1337   1335   1347   1348     1  0.0000000  0.6508444  3
   1337   1335   1347   1349     1  0.0000000  0.6508444  3
   1338   1334   1341   1342     1  0.0000000  1.2552000  3
   1338   1334   1341   1343     1  0.0000000  1.2552000  3
   1338   1350   1356   1357     1  0.0000000  0.6508444  3
   1338   1350   1356   1358     1  0.0000000  0.6508444  3
   1339   1338   1334   1341     1  0.0000000  1.2552000  3
   1339   1338   1350   1356     1  0.0000000  0.6508444  3
   1339   1338   1350   1351     1  0.0000000  0.6508444  3
   1339   1338   1350   1352     1  0.0000000  0.6508444  3
   1340   1338   1334   1341     1  0.0000000  1.2552000  3
   1340   1338   1350   1356     1  0.0000000  0.6508444  3
   1340   1338   1350   1351     1  0.0000000  0.6508444  3
   1340   1338   1350   1352     1  0.0000000  0.6508444  3
   1341   1344   1353   1354     1  0.0000000  0.6508444  3
   1341   1344   1353   1355     1  0.0000000  0.6508444  3
   1342   1341   1344   1353     1  0.0000000  0.6508444  3
   1342   1341   1344   1345     1  0.0000000  0.6508444  3
   1342   1341   1344   1346     1  0.0000000  0.6508444  3
   1343   1341   1344   1353     1  0.0000000  0.6508444  3
   1343   1341   1344   1345     1  0.0000000  0.6508444  3
   1343   1341   1344   1346     1  0.0000000  0.6508444  3
   1345   1344   1353   1362     1  0.0000000  1.0460000  1
   1345   1344   1353   1362     1  0.0000000  0.0000000  3
   1345   1344   1353   1354     1  0.0000000  0.6508444  3
   1345   1344   1353   1355     1  0.0000000  0.6508444  3
   1346   1344   1353   1362     1  0.0000000  1.0460000  1
   1346   1344   1353   1362     1  0.0000000  0.0000000  3
   1346   1344   1353   1354     1  0.0000000  0.6508444  3
   1346   1344   1353   1355     1  0.0000000  0.6508444  3
   1348   1347   1359   2783     1  0.0000000  1.0460000  1
   1348   1347   1359   2783     1  0.0000000  0.0000000  3
   1348   1347   1359   1360     1  0.0000000  0.6508444  3
   1348   1347   1359   1361     1  0.0000000  0.6508444  3
   1349   1347   1359   2783     1  0.0000000  1.0460000  1
   1349   1347   1359   2783     1  0.0000000  0.0000000  3
   1349   1347   1359   1360     1  0.0000000  0.6508444  3
   1349   1347   1359   1361     1  0.0000000  0.6508444  3
   1351   1350   1356   2754     1  0.0000000  1.0460000  1
   1351   1350   1356   2754     1  0.0000000  0.0000000  3
   1351   1350   1356   1357     1  0.0000000  0.6508444  3
   1351   1350   1356   1358     1  0.0000000  0.6508444  3
   1352   1350   1356   2754     1  0.0000000  1.0460000  1
   1352   1350   1356   2754     1  0.0000000  0.0000000  3
   1352   1350   1356   1357     1  0.0000000  0.6508444  3
   1352   1350   1356   1358     1  0.0000000  0.6508444  3
   1356   2754   2745   2746     1  0.0000000  1.6038667  3
   1356   2754   2745   2747     1  0.0000000  1.6038667  3
   1357   1356   2754   2745     1  0.0000000  1.6038667  3
   1358   1356   2754   2745     1  0.0000000  1.6038667  3
   1359   2783   2774   2775     1  0.0000000  1.6038667  3
   1359   2783   2774   2776     1  0.0000000  1.6038667  3
   1360   1359   2783   2774     1  0.0000000  1.6038667  3
   1361   1359   2783   2774     1  0.0000000  1.6038667  3
   1363   1364   1376   1377     1  0.0000000  0.6508444  3
   1363   1364   1376   1378     1  0.0000000  0.6508444  3
   1363   1367   1379   1380     1  0.0000000  0.6508444  3
   1363   1367   1379   1381     1  0.0000000  0.6508444  3
   1363   1370   1373   1374     1  0.0000000  0.6508444  3
   1363   1370   1373   1375     1  0.0000000  0.6508444  3
   1364   1363   1367   1368     1  0.0000000  1.2552000  3
   1364   1363   1367   1369     1  0.0000000  1.2552000  3
   1364   1363   1370   1371     1  0.0000000  1.2552000  3
   1364   1363   1370   1372     1  0.0000000  1.2552000  3
   1364   1376   1388   1389     1  0.0000000  0.6508444  3
   1364   1376   1388   1390     1  0.0000000  0.6508444  3
   1365   1364   1363   1367     1  0.0000000  1.2552000  3
   1365   1364   1363   1370     1  0.0000000  1.2552000  3
   1365   1364   1376   1388     1  0.0000000  0.6508444  3
   1365   1364   1376   1377     1  0.0000000  0.6508444  3
   1365   1364   1376   1378     1  0.0000000  0.6508444  3
   1366   1364   1363   1367     1  0.0000000  1.2552000  3
   1366   1364   1363   1370     1  0.0000000  1.2552000  3
   1366   1364   1376   1388     1  0.0000000  0.6508444  3
   1366   1364   1376   1377     1  0.0000000  0.6508444  3
   1366   1364   1376   1378     1  0.0000000  0.6508444  3
   1367   1363   1370   1371     1  0.0000000  1.2552000  3
   1367   1363   1370   1372     1  0.0000000  1.2552000  3
   1367   1379   1385   1386     1  0.0000000  0.6508444  3
   1367   1379   1385   1387     1  0.0000000  0.6508444  3
   1368   1367   1363   1370     1  0.0000000  1.2552000  3
   1368   1367   1379   1385     1  0.0000000  0.6508444  3
   1368   1367   1379   1380     1  0.0000000  0.6508444  3
   1368   1367   1379   1381     1  0.0000000  0.6508444  3
   1369   1367   1363   1370     1  0.0000000  1.2552000  3
   1369   1367   1379   1385     1  0.0000000  0.6508444  3
   1369   1367   1379   1380     1  0.0000000  0.6508444  3
   1369   1367   1379   1381     1  0.0000000  0.6508444  3
   1370   1373   1382   1383     1  0.0000000  0.6508444  3
   1370   1373   1382   1384     1  0.0000000  0.6508444  3
   1371   1370   1373   1382     1  0.0000000  0.6508444  3
   1371   1370   1373   1374     1  0.0000000  0.6508444  3
   1371   1370   1373   1375     1  0.0000000  0.6508444  3
   1372   1370   1373   1382     1  0.0000000  0.6508444  3
   1372   1370   1373   1374     1  0.0000000  0.6508444  3
   1372   1370   1373   1375     1  0.0000000  0.6508444  3
   1374   1373   1382   1391     1  0.0000000  1.0460000  1
   1374   1373   1382   1391     1  0.0000000  0.0000000  3
   1374   1373   1382   1383     1  0.0000000  0.6508444  3
   1374   1373   1382   1384     1  0.0000000  0.6508444  3
   1375   1373   1382   1391     1  0.0000000  1.0460000  1
   1375   1373   1382   1391     1  0.0000000  0.0000000  3
   1375   1373   1382   1383     1  0.0000000  0.6508444  3
   1375   1373   1382   1384     1  0.0000000  0.6508444  3
   1377   1376   1388   2841     1  0.0000000  1.0460000  1
   1377   1376   1388   2841     1  0.0000000  0.0000000  3
   1377   1376   1388   1389     1  0.0000000  0.6508444  3
   1377   1376   1388   1390     1  0.0000000  0.6508444  3
   1378   1376   1388   2841     1  0.0000000  1.0460000  1
   1378   1376   1388   2841     1  0.0000000  0.0000000  3
   1378   1376   1388   1389     1  0.0000000  0.6508444  3
   1378   1376   1388   1390     1  0.0000000  0.6508444  3
   1380   1379   1385   2812     1  0.0000000  1.0460000  1
   1380   1379   1385   2812     1  0.0000000  0.0000000  3
   1380   1379   1385   1386     1  0.0000000  0.6508444  3
   1380   1379   1385   1387     1  0.0000000  0.6508444  3
   1381   1379   1385   2812     1  0.0000000  1.0460000  1
   1381   1379   1385   2812     1  0.0000000  0.0000000  3
   1381   1379   1385   1386     1  0.0000000  0.6508444  3
   1381   1379   1385   1387     1  0.0000000  0.6508444  3
   1385   2812   2803   2804     1  0.0000000  1.6038667  3
   1385   2812   2803   2805     1  0.0000000  1.6038667  3
   1386   1385   2812   2803     1  0.0000000  1.6038667  3
   1387   1385   2812   2803     1  0.0000000  1.6038667  3
   1388   2841   2832   2833     1  0.0000000  1.6038667  3
   1388   2841   2832   2834     1  0.0000000  1.6038667  3
   1389   1388   2841   2832     1  0.0000000  1.6038667  3
   1390   1388   2841   2832     1  0.0000000  1.6038667  3
   1392   1393   1405   1406     1  0.0000000  0.6508444  3
   1392   1393   1405   1407     1  0.0000000  0.6508444  3
   1392   1396   1408   1409     1  0.0000000  0.6508444  3
   1392   1396   1408   1410     1  0.0000000  0.6508444  3
   1392   1399   1402   1403     1  0.0000000  0.6508444  3
   1392   1399   1402   1404     1  0.0000000  0.6508444  3
   1393   1392   1396   1397     1  0.0000000  1.2552000  3
   1393   1392   1396   1398     1  0.0000000  1.2552000  3
   1393   1392   1399   1400     1  0.0000000  1.2552000  3
   1393   1392   1399   1401     1  0.0000000  1.2552000  3
   1393   1405   1417   1418     1  0.0000000  0.6508444  3
   1393   1405   1417   1419     1  0.0000000  0.6508444  3
   1394   1393   1392   1396     1  0.0000000  1.2552000  3
   1394   1393   1392   1399     1  0.0000000  1.2552000  3
   1394   1393   1405   1417     1  0.0000000  0.6508444  3
   1394   1393   1405   1406     1  0.0000000  0.6508444  3
   1394   1393   1405   1407     1  0.0000000  0.6508444  3
   1395   1393   1392   1396     1  0.0000000  1.2552000  3
   1395   1393   1392   1399     1  0.0000000  1.2552000  3
   1395   1393   1405   1417     1  0.0000000  0.6508444  3
   1395   1393   1405   1406     1  0.0000000  0.6508444  3
   1395   1393   1405   1407     1  0.0000000  0.6508444  3
   1396   1392   1399   1400     1  0.0000000  1.2552000  3
   1396   1392   1399   1401     1  0.0000000  1.2552000  3
   1396   1408   1414   1415     1  0.0000000  0.6508444  3
   1396   1408   1414   1416     1  0.0000000  0.6508444  3
   1397   1396   1392   1399     1  0.0000000  1.2552000  3
   1397   1396   1408   1414     1  0.0000000  0.6508444  3
   1397   1396   1408   1409     1  0.0000000  0.6508444  3
   1397   1396   1408   1410     1  0.0000000  0.6508444  3
   1398   1396   1392   1399     1  0.0000000  1.2552000  3
   1398   1396   1408   1414     1  0.0000000  0.6508444  3
   1398   1396   1408   1409     1  0.0000000  0.6508444  3
   1398   1396   1408   1410     1  0.0000000  0.6508444  3
   1399   1402   1411   1412     1  0.0000000  0.6508444  3
   1399   1402   1411   1413     1  0.0000000  0.6508444  3
   1400   1399   1402   1411     1  0.0000000  0.6508444  3
   1400   1399   1402   1403     1  0.0000000  0.6508444  3
   1400   1399   1402   1404     1  0.0000000  0.6508444  3
   1401   1399   1402   1411     1  0.0000000  0.6508444  3
   1401   1399   1402   1403     1  0.0000000  0.6508444  3
   1401   1399   1402   1404     1  0.0000000  0.6508444  3
   1403   1402   1411   1420     1  0.0000000  1.0460000  1
   1403   1402   1411   1420     1  0.0000000  0.0000000  3
   1403   1402   1411   1412     1  0.0000000  0.6508444  3
   1403   1402   1411   1413     1  0.0000000  0.6508444  3
   1404   1402   1411   1420     1  0.0000000  1.0460000  1
   1404   1402   1411   1420     1  0.0000000  0.0000000  3
   1404   1402   1411   1412     1  0.0000000  0.6508444  3
   1404   1402   1411   1413     1  0.0000000  0.6508444  3
   1406   1405   1417   2899     1  0.0000000  1.0460000  1
   1406   1405   1417   2899     1  0.0000000  0.0000000  3
   1406   1405   1417   1418     1  0.0000000  0.6508444  3
   1406   1405   1417   1419     1  0.0000000  0.6508444  3
   1407   1405   1417   2899     1  0.0000000  1.0460000  1
   1407   1405   1417   2899     1  0.0000000  0.0000000  3
   1407   1405   1417   1418     1  0.0000000  0.6508444  3
   1407   1405   1417   1419     1  0.0000000  0.6508444  3
   1409   1408   1414   2870     1  0.0000000  1.0460000  1
   1409   1408   1414   2870     1  0.0000000  0.0000000  3
   1409   1408   1414   1415     1  0.0000000  0.6508444  3
   1409   1408   1414   1416     1  0.0000000  0.6508444  3
   1410   1408   1414   2870     1  0.0000000  1.0460000  1
   1410   1408   1414   2870     1  0.0000000  0.0000000  3
   1410   1408   1414   1415     1  0.0000000  0.6508444  3
   1410   1408   1414   1416     1  0.0000000  0.6508444  3
   1414   2870   2861   2862     1  0.0000000  1.6038667  3
   1414   2870   2861   2863     1  0.0000000  1.6038667  3
   1415   1414   2870   2861     1  0.0000000  1.6038667  3
   1416   1414   2870   2861     1  0.0000000  1.6038667  3
   1417   2899   2890   2891     1  0.0000000  1.6038667  3
   1417   2899   2890   2892     1  0.0000000  1.6038667  3
   1418   1417   2899   2890     1  0.0000000  1.6038667  3
   1419   1417   2899   2890     1  0.0000000  1.6038667  3
   1421   1422   1434   1435     1  0.0000000  0.6508444  3
   1421   1422   1434   1436     1  0.0000000  0.6508444  3
   1421   1425   1437   1438     1  0.0000000  0.6508444  3
   1421   1425   1437   1439     1  0.0000000  0.6508444  3
   1421   1428   1431   1432     1  0.0000000  0.6508444  3
   1421   1428   1431   1433     1  0.0000000  0.6508444  3
   1422   1421   1425   1426     1  0.0000000  1.2552000  3
   1422   1421   1425   1427     1  0.0000000  1.2552000  3
   1422   1421   1428   1429     1  0.0000000  1.2552000  3
   1422   1421   1428   1430     1  0.0000000  1.2552000  3
   1422   1434   1446   1447     1  0.0000000  0.6508444  3
   1422   1434   1446   1448     1  0.0000000  0.6508444  3
   1423   1422   1421   1425     1  0.0000000  1.2552000  3
   1423   1422   1421   1428     1  0.0000000  1.2552000  3
   1423   1422   1434   1446     1  0.0000000  0.6508444  3
   1423   1422   1434   1435     1  0.0000000  0.6508444  3
   1423   1422   1434   1436     1  0.0000000  0.6508444  3
   1424   1422   1421   1425     1  0.0000000  1.2552000  3
   1424   1422   1421   1428     1  0.0000000  1.2552000  3
   1424   1422   1434   1446     1  0.0000000  0.6508444  3
   1424   1422   1434   1435     1  0.0000000  0.6508444  3
   1424   1422   1434   1436     1  0.0000000  0.6508444  3
   1425   1421   1428   1429     1  0.0000000  1.2552000  3
   1425   1421   1428   1430     1  0.0000000  1.2552000  3
   1425   1437   1443   1444     1  0.0000000  0.6508444  3
   1425   1437   1443   1445     1  0.0000000  0.6508444  3
   1426   1425   1421   1428     1  0.0000000  1.2552000  3
   1426   1425   1437   1443     1  0.0000000  0.6508444  3
   1426   1425   1437   1438     1  0.0000000  0.6508444  3
   1426   1425   1437   1439     1  0.0000000  0.6508444  3
   1427   1425   1421   1428     1  0.0000000  1.2552000  3
   1427   1425   1437   1443     1  0.0000000  0.6508444  3
   1427   1425   1437   1438     1  0.0000000  0.6508444  3
   1427   1425   1437   1439     1  0.0000000  0.6508444  3
   1428   1431   1440   1441     1  0.0000000  0.6508444  3
   1428   1431   1440   1442     1  0.0000000  0.6508444  3
   1429   1428   1431   1440     1  0.0000000  0.6508444  3
   1429   1428   1431   1432     1  0.0000000  0.6508444  3
   1429   1428   1431   1433     1  0.0000000  0.6508444  3
   1430   1428   1431   1440     1  0.0000000  0.6508444  3
   1430   1428   1431   1432     1  0.0000000  0.6508444  3
   1430   1428   1431   1433     1  0.0000000  0.6508444  3
   1432   1431   1440   1449     1  0.0000000  1.0460000  1
   1432   1431   1440   1449     1  0.0000000  0.0000000  3
   1432   1431   1440   1441     1  0.0000000  0.6508444  3
   1432   1431   1440   1442     1  0.0000000  0.6508444  3
   1433   1431   1440   1449     1  0.0000000  1.0460000  1
   1433   1431   1440   1449     1  0.0000000  0.0000000  3
   1433   1431   1440   1441     1  0.0000000  0.6508444  3
   1433   1431   1440   1442     1  0.0000000  0.6508444  3
   1435   1434   1446   2957     1  0.0000000  1.0460000  1
   1435   1434   1446   2957     1  0.0000000  0.0000000  3
   1435   1434   1446   1447     1  0.0000000  0.6508444  3
   1435   1434   1446   1448     1  0.0000000  0.6508444  3
   1436   1434   1446   2957     1  0.0000000  1.0460000  1
   1436   1434   1446   2957     1  0.0000000  0.0000000  3
   1436   1434   1446   1447     1  0.0000000  0.6508444  3
   1436   1434   1446   1448     1  0.0000000  0.6508444  3
   1438   1437   1443   2928     1  0.0000000  1.0460000  1
   1438   1437   1443   2928     1  0.0000000  0.0000000  3
   1438   1437   1443   1444     1  0.0000000  0.6508444  3
   1438   1437   1443   1445     1  0.0000000  0.6508444  3
   1439   1437   1443   2928     1  0.0000000  1.0460000  1
   1439   1437   1443   2928     1  0.0000000  0.0000000  3
   1439   1437   1443   1444     1  0.0000000  0.6508444  3
   1439   1437   1443   1445     1  0.0000000  0.6508444  3
   1443   2928   2919   2920     1  0.0000000  1.6038667  3
   1443   2928   2919   2921     1  0.0000000  1.6038667  3
   1444   1443   2928   2919     1  0.0000000  1.6038667  3
   1445   1443   2928   2919     1  0.0000000  1.6038667  3
   1446   2957   2948   2949     1  0.0000000  1.6038667  3
   1446   2957   2948   2950     1  0.0000000  1.6038667  3
   1447   1446   2957   2948     1  0.0000000  1.6038667  3
   1448   1446   2957   2948     1  0.0000000  1.6038667  3
   1450   1451   1463   1464     1  0.0000000  0.6508444  3
   1450   1451   1463   1465     1  0.0000000  0.6508444  3
   1450   1454   1466   1467     1  0.0000000  0.6508444  3
   1450   1454   1466   1468     1  0.0000000  0.6508444  3
   1450   1457   1460   1461     1  0.0000000  0.6508444  3
   1450   1457   1460   1462     1  0.0000000  0.6508444  3
   1451   1450   1454   1455     1  0.0000000  1.2552000  3
   1451   1450   1454   1456     1  0.0000000  1.2552000  3
   1451   1450   1457   1458     1  0.0000000  1.2552000  3
   1451   1450   1457   1459     1  0.0000000  1.2552000  3
   1451   1463   1475   1476     1  0.0000000  0.6508444  3
   1451   1463   1475   1477     1  0.0000000  0.6508444  3
   1452   1451   1450   1454     1  0.0000000  1.2552000  3
   1452   1451   1450   1457     1  0.0000000  1.2552000  3
   1452   1451   1463   1475     1  0.0000000  0.6508444  3
   1452   1451   1463   1464     1  0.0000000  0.6508444  3
   1452   1451   1463   1465     1  0.0000000  0.6508444  3
   1453   1451   1450   1454     1  0.0000000  1.2552000  3
   1453   1451   1450   1457     1  0.0000000  1.2552000  3
   1453   1451   1463   1475     1  0.0000000  0.6508444  3
   1453   1451   1463   1464     1  0.0000000  0.6508444  3
   1453   1451   1463   1465     1  0.0000000  0.6508444  3
   1454   1450   1457   1458     1  0.0000000  1.2552000  3
   1454   1450   1457   1459     1  0.0000000  1.2552000  3
   1454   1466   1472   1473     1  0.0000000  0.6508444  3
   1454   1466   1472   1474     1  0.0000000  0.6508444  3
   1455   1454   1450   1457     1  0.0000000  1.2552000  3
   1455   1454   1466   1472     1  0.0000000  0.6508444  3
   1455   1454   1466   1467     1  0.0000000  0.6508444  3
   1455   1454   1466   1468     1  0.0000000  0.6508444  3
   1456   1454   1450   1457     1  0.0000000  1.2552000  3
   1456   1454   1466   1472     1  0.0000000  0.6508444  3
   1456   1454   1466   1467     1  0.0000000  0.6508444  3
   1456   1454   1466   1468     1  0.0000000  0.6508444  3
   1457   1460   1469   1470     1  0.0000000  0.6508444  3
   1457   1460   1469   1471     1  0.0000000  0.6508444  3
   1458   1457   1460   1469     1  0.0000000  0.6508444  3
   1458   1457   1460   1461     1  0.0000000  0.6508444  3
   1458   1457   1460   1462     1  0.0000000  0.6508444  3
   1459   1457   1460   1469     1  0.0000000  0.6508444  3
   1459   1457   1460   1461     1  0.0000000  0.6508444  3
   1459   1457   1460   1462     1  0.0000000  0.6508444  3
   1461   1460   1469   1478     1  0.0000000  1.0460000  1
   1461   1460   1469   1478     1  0.0000000  0.0000000  3
   1461   1460   1469   1470     1  0.0000000  0.6508444  3
   1461   1460   1469   1471     1  0.0000000  0.6508444  3
   1462   1460   1469   1478     1  0.0000000  1.0460000  1
   1462   1460   1469   1478     1  0.0000000  0.0000000  3
   1462   1460   1469   1470     1  0.0000000  0.6508444  3
   1462   1460   1469   1471     1  0.0000000  0.6508444  3
   1464   1463   1475   3015     1  0.0000000  1.0460000  1
   1464   1463   1475   3015     1  0.0000000  0.0000000  3
   1464   1463   1475   1476     1  0.0000000  0.6508444  3
   1464   1463   1475   1477     1  0.0000000  0.6508444  3
   1465   1463   1475   3015     1  0.0000000  1.0460000  1
   1465   1463   1475   3015     1  0.0000000  0.0000000  3
   1465   1463   1475   1476     1  0.0000000  0.6508444  3
   1465   1463   1475   1477     1  0.0000000  0.6508444  3
   1467   1466   1472   2986     1  0.0000000  1.0460000  1
   1467   1466   1472   2986     1  0.0000000  0.0000000  3
   1467   1466   1472   1473     1  0.0000000  0.6508444  3
   1467   1466   1472   1474     1  0.0000000  0.6508444  3
   1468   1466   1472   2986     1  0.0000000  1.0460000  1
   1468   1466   1472   2986     1  0.0000000  0.0000000  3
   1468   1466   1472   1473     1  0.0000000  0.6508444  3
   1468   1466   1472   1474     1  0.0000000  0.6508444  3
   1472   2986   2977   2978     1  0.0000000  1.6038667  3
   1472   2986   2977   2979     1  0.0000000  1.6038667  3
   1473   1472   2986   2977     1  0.0000000  1.6038667  3
   1474   1472   2986   2977     1  0.0000000  1.6038667  3
   1475   3015   3006   3007     1  0.0000000  1.6038667  3
   1475   3015   3006   3008     1  0.0000000  1.6038667  3
   1476   1475   3015   3006     1  0.0000000  1.6038667  3
   1477   1475   3015   3006     1  0.0000000  1.6038667  3
   1479   1480   1492   1493     1  0.0000000  0.6508444  3
   1479   1480   1492   1494     1  0.0000000  0.6508444  3
   1479   1483   1495   1496     1  0.0000000  0.6508444  3
   1479   1483   1495   1497     1  0.0000000  0.6508444  3
   1479   1486   1489   1490     1  0.0000000  0.6508444  3
   1479   1486   1489   1491     1  0.0000000  0.6508444  3
   1480   1479   1483   1484     1  0.0000000  1.2552000  3
   1480   1479   1483   1485     1  0.0000000  1.2552000  3
   1480   1479   1486   1487     1  0.0000000  1.2552000  3
   1480   1479   1486   1488     1  0.0000000  1.2552000  3
   1480   1492   1504   1505     1  0.0000000  0.6508444  3
   1480   1492   1504   1506     1  0.0000000  0.6508444  3
   1481   1480   1479   1483     1  0.0000000  1.2552000  3
   1481   1480   1479   1486     1  0.0000000  1.2552000  3
   1481   1480   1492   1504     1  0.0000000  0.6508444  3
   1481   1480   1492   1493     1  0.0000000  0.6508444  3
   1481   1480   1492   1494     1  0.0000000  0.6508444  3
   1482   1480   1479   1483     1  0.0000000  1.2552000  3
   1482   1480   1479   1486     1  0.0000000  1.2552000  3
   1482   1480   1492   1504     1  0.0000000  0.6508444  3
   1482   1480   1492   1493     1  0.0000000  0.6508444  3
   1482   1480   1492   1494     1  0.0000000  0.6508444  3
   1483   1479   1486   1487     1  0.0000000  1.2552000  3
   1483   1479   1486   1488     1  0.0000000  1.2552000  3
   1483   1495   1501   1502     1  0.0000000  0.6508444  3
   1483   1495   1501   1503     1  0.0000000  0.6508444  3
   1484   1483   1479   1486     1  0.0000000  1.2552000  3
   1484   1483   1495   1501     1  0.0000000  0.6508444  3
   1484   1483   1495   1496     1  0.0000000  0.6508444  3
   1484   1483   1495   1497     1  0.0000000  0.6508444  3
   1485   1483   1479   1486     1  0.0000000  1.2552000  3
   1485   1483   1495   1501     1  0.0000000  0.6508444  3
   1485   1483   1495   1496     1  0.0000000  0.6508444  3
   1485   1483   1495   1497     1  0.0000000  0.6508444  3
   1486   1489   1498   1499     1  0.0000000  0.6508444  3
   1486   1489   1498   1500     1  0.0000000  0.6508444  3
   1487   1486   1489   1498     1  0.0000000  0.6508444  3
   1487   1486   1489   1490     1  0.0000000  0.6508444  3
   1487   1486   1489   1491     1  0.0000000  0.6508444  3
   1488   1486   1489   1498     1  0.0000000  0.6508444  3
   1488   1486   1489   1490     1  0.0000000  0.6508444  3
   1488   1486   1489   1491     1  0.0000000  0.6508444  3
   1490   1489   1498   1507     1  0.0000000  1.0460000  1
   1490   1489   1498   1507     1  0.0000000  0.0000000  3
   1490   1489   1498   1499     1  0.0000000  0.6508444  3
   1490   1489   1498   1500     1  0.0000000  0.6508444  3
   1491   1489   1498   1507     1  0.0000000  1.0460000  1
   1491   1489   1498   1507     1  0.0000000  0.0000000  3
   1491   1489   1498   1499     1  0.0000000  0.6508444  3
   1491   1489   1498   1500     1  0.0000000  0.6508444  3
   1493   1492   1504   3073     1  0.0000000  1.0460000  1
   1493   1492   1504   3073     1  0.0000000  0.0000000  3
   1493   1492   1504   1505     1  0.0000000  0.6508444  3
   1493   1492   1504   1506     1  0.0000000  0.6508444  3
   1494   1492   1504   3073     1  0.0000000  1.0460000  1
   1494   1492   1504   3073     1  0.0000000  0.0000000  3
   1494   1492   1504   1505     1  0.0000000  0.6508444  3
   1494   1492   1504   1506     1  0.0000000  0.6508444  3
   1496   1495   1501   3044     1  0.0000000  1.0460000  1
   1496   1495   1501   3044     1  0.0000000  0.0000000  3
   1496   1495   1501   1502     1  0.0000000  0.6508444  3
   1496   1495   1501   1503     1  0.0000000  0.6508444  3
   1497   1495   1501   3044     1  0.0000000  1.0460000  1
   1497   1495   1501   3044     1  0.0000000  0.0000000  3
   1497   1495   1501   1502     1  0.0000000  0.6508444  3
   1497   1495   1501   1503     1  0.0000000  0.6508444  3
   1501   3044   3035   3036     1  0.0000000  1.6038667  3
   1501   3044   3035   3037     1  0.0000000  1.6038667  3
   1502   1501   3044   3035     1  0.0000000  1.6038667  3
   1503   1501   3044   3035     1  0.0000000  1.6038667  3
   1504   3073   3064   3065     1  0.0000000  1.6038667  3
   1504   3073   3064   3066     1  0.0000000  1.6038667  3
   1505   1504   3073   3064     1  0.0000000  1.6038667  3
   1506   1504   3073   3064     1  0.0000000  1.6038667  3
   1508   1509   1521   1522     1  0.0000000  0.6508444  3
   1508   1509   1521   1523     1  0.0000000  0.6508444  3
   1508   1512   1524   1525     1  0.0000000  0.6508444  3
   1508   1512   1524   1526     1  0.0000000  0.6508444  3
   1508   1515   1518   1519     1  0.0000000  0.6508444  3
   1508   1515   1518   1520     1  0.0000000  0.6508444  3
   1509   1508   1512   1513     1  0.0000000  1.2552000  3
   1509   1508   1512   1514     1  0.0000000  1.2552000  3
   1509   1508   1515   1516     1  0.0000000  1.2552000  3
   1509   1508   1515   1517     1  0.0000000  1.2552000  3
   1509   1521   1533   1534     1  0.0000000  0.6508444  3
   1509   1521   1533   1535     1  0.0000000  0.6508444  3
   1510   1509   1508   1512     1  0.0000000  1.2552000  3
   1510   1509   1508   1515     1  0.0000000  1.2552000  3
   1510   1509   1521   1533     1  0.0000000  0.6508444  3
   1510   1509   1521   1522     1  0.0000000  0.6508444  3
   1510   1509   1521   1523     1  0.0000000  0.6508444  3
   1511   1509   1508   1512     1  0.0000000  1.2552000  3
   1511   1509   1508   1515     1  0.0000000  1.2552000  3
   1511   1509   1521   1533     1  0.0000000  0.6508444  3
   1511   1509   1521   1522     1  0.0000000  0.6508444  3
   1511   1509   1521   1523     1  0.0000000  0.6508444  3
   1512   1508   1515   1516     1  0.0000000  1.2552000  3
   1512   1508   1515   1517     1  0.0000000  1.2552000  3
   1512   1524   1530   1531     1  0.0000000  0.6508444  3
   1512   1524   1530   1532     1  0.0000000  0.6508444  3
   1513   1512   1508   1515     1  0.0000000  1.2552000  3
   1513   1512   1524   1530     1  0.0000000  0.6508444  3
   1513   1512   1524   1525     1  0.0000000  0.6508444  3
   1513   1512   1524   1526     1  0.0000000  0.6508444  3
   1514   1512   1508   1515     1  0.0000000  1.2552000  3
   1514   1512   1524   1530     1  0.0000000  0.6508444  3
   1514   1512   1524   1525     1  0.0000000  0.6508444  3
   1514   1512   1524   1526     1  0.0000000  0.6508444  3
   1515   1518   1527   1528     1  0.0000000  0.6508444  3
   1515   1518   1527   1529     1  0.0000000  0.6508444  3
   1516   1515   1518   1527     1  0.0000000  0.6508444  3
   1516   1515   1518   1519     1  0.0000000  0.6508444  3
   1516   1515   1518   1520     1  0.0000000  0.6508444  3
   1517   1515   1518   1527     1  0.0000000  0.6508444  3
   1517   1515   1518   1519     1  0.0000000  0.6508444  3
   1517   1515   1518   1520     1  0.0000000  0.6508444  3
   1519   1518   1527   1536     1  0.0000000  1.0460000  1
   1519   1518   1527   1536     1  0.0000000  0.0000000  3
   1519   1518   1527   1528     1  0.0000000  0.6508444  3
   1519   1518   1527   1529     1  0.0000000  0.6508444  3
   1520   1518   1527   1536     1  0.0000000  1.0460000  1
   1520   1518   1527   1536     1  0.0000000  0.0000000  3
   1520   1518   1527   1528     1  0.0000000  0.6508444  3
   1520   1518   1527   1529     1  0.0000000  0.6508444  3
   1522   1521   1533   3131     1  0.0000000  1.0460000  1
   1522   1521   1533   3131     1  0.0000000  0.0000000  3
   1522   1521   1533   1534     1  0.0000000  0.6508444  3
   1522   1521   1533   1535     1  0.0000000  0.6508444  3
   1523   1521   1533   3131     1  0.0000000  1.0460000  1
   1523   1521   1533   3131     1  0.0000000  0.0000000  3
   1523   1521   1533   1534     1  0.0000000  0.6508444  3
   1523   1521   1533   1535     1  0.0000000  0.6508444  3
   1525   1524   1530   3102     1  0.0000000  1.0460000  1
   1525   1524   1530   3102     1  0.0000000  0.0000000  3
   1525   1524   1530   1531     1  0.0000000  0.6508444  3
   1525   1524   1530   1532     1  0.0000000  0.6508444  3
   1526   1524   1530   3102     1  0.0000000  1.0460000  1
   1526   1524   1530   3102     1  0.0000000  0.0000000  3
   1526   1524   1530   1531     1  0.0000000  0.6508444  3
   1526   1524   1530   1532     1  0.0000000  0.6508444  3
   1530   3102   3093   3094     1  0.0000000  1.6038667  3
   1530   3102   3093   3095     1  0.0000000  1.6038667  3
   1531   1530   3102   3093     1  0.0000000  1.6038667  3
   1532   1530   3102   3093     1  0.0000000  1.6038667  3
   1533   3131   3122   3123     1  0.0000000  1.6038667  3
   1533   3131   3122   3124     1  0.0000000  1.6038667  3
   1534   1533   3131   3122     1  0.0000000  1.6038667  3
   1535   1533   3131   3122     1  0.0000000  1.6038667  3
   1537   1538   1550   1551     1  0.0000000  0.6508444  3
   1537   1538   1550   1552     1  0.0000000  0.6508444  3
   1537   1541   1553   1554     1  0.0000000  0.6508444  3
   1537   1541   1553   1555     1  0.0000000  0.6508444  3
   1537   1544   1547   1548     1  0.0000000  0.6508444  3
   1537   1544   1547   1549     1  0.0000000  0.6508444  3
   1538   1537   1541   1542     1  0.0000000  1.2552000  3
   1538   1537   1541   1543     1  0.0000000  1.2552000  3
   1538   1537   1544   1545     1  0.0000000  1.2552000  3
   1538   1537   1544   1546     1  0.0000000  1.2552000  3
   1538   1550   1562   1563     1  0.0000000  0.6508444  3
   1538   1550   1562   1564     1  0.0000000  0.6508444  3
   1539   1538   1537   1541     1  0.0000000  1.2552000  3
   1539   1538   1537   1544     1  0.0000000  1.2552000  3
   1539   1538   1550   1562     1  0.0000000  0.6508444  3
   1539   1538   1550   1551     1  0.0000000  0.6508444  3
   1539   1538   1550   1552     1  0.0000000  0.6508444  3
   1540   1538   1537   1541     1  0.0000000  1.2552000  3
   1540   1538   1537   1544     1  0.0000000  1.2552000  3
   1540   1538   1550   1562     1  0.0000000  0.6508444  3
   1540   1538   1550   1551     1  0.0000000  0.6508444  3
   1540   1538   1550   1552     1  0.0000000  0.6508444  3
   1541   1537   1544   1545     1  0.0000000  1.2552000  3
   1541   1537   1544   1546     1  0.0000000  1.2552000  3
   1541   1553   1559   1560     1  0.0000000  0.6508444  3
   1541   1553   1559   1561     1  0.0000000  0.6508444  3
   1542   1541   1537   1544     1  0.0000000  1.2552000  3
   1542   1541   1553   1559     1  0.0000000  0.6508444  3
   1542   1541   1553   1554     1  0.0000000  0.6508444  3
   1542   1541   1553   1555     1  0.0000000  0.6508444  3
   1543   1541   1537   1544     1  0.0000000  1.2552000  3
   1543   1541   1553   1559     1  0.0000000  0.6508444  3
   1543   1541   1553   1554     1  0.0000000  0.6508444  3
   1543   1541   1553   1555     1  0.0000000  0.6508444  3
   1544   1547   1556   1557     1  0.0000000  0.6508444  3
   1544   1547   1556   1558     1  0.0000000  0.6508444  3
   1545   1544   1547   1556     1  0.0000000  0.6508444  3
   1545   1544   1547   1548     1  0.0000000  0.6508444  3
   1545   1544   1547   1549     1  0.0000000  0.6508444  3
   1546   1544   1547   1556     1  0.0000000  0.6508444  3
   1546   1544   1547   1548     1  0.0000000  0.6508444  3
   1546   1544   1547   1549     1  0.0000000  0.6508444  3
   1548   1547   1556   1565     1  0.0000000  1.0460000  1
   1548   1547   1556   1565     1  0.0000000  0.0000000  3
   1548   1547   1556   1557     1  0.0000000  0.6508444  3
   1548   1547   1556   1558     1  0.0000000  0.6508444  3
   1549   1547   1556   1565     1  0.0000000  1.0460000  1
   1549   1547   1556   1565     1  0.0000000  0.0000000  3
   1549   1547   1556   1557     1  0.0000000  0.6508444  3
   1549   1547   1556   1558     1  0.0000000  0.6508444  3
   1551   1550   1562   3189     1  0.0000000  1.0460000  1
   1551   1550   1562   3189     1  0.0000000  0.0000000  3
   1551   1550   1562   1563     1  0.0000000  0.6508444  3
   1551   1550   1562   1564     1  0.0000000  0.6508444  3
   1552   1550   1562   3189     1  0.0000000  1.0460000  1
   1552   1550   1562   3189     1  0.0000000  0.0000000  3
   1552   1550   1562   1563     1  0.0000000  0.6508444  3
   1552   1550   1562   1564     1  0.0000000  0.6508444  3
   1554   1553   1559   3160     1  0.0000000  1.0460000  1
   1554   1553   1559   3160     1  0.0000000  0.0000000  3
   1554   1553   1559   1560     1  0.0000000  0.6508444  3
   1554   1553   1559   1561     1  0.0000000  0.6508444  3
   1555   1553   1559   3160     1  0.0000000  1.0460000  1
   1555   1553   1559   3160     1  0.0000000  0.0000000  3
   1555   1553   1559   1560     1  0.0000000  0.6508444  3
   1555   1553   1559   1561     1  0.0000000  0.6508444  3
   1559   3160   3151   3152     1  0.0000000  1.6038667  3
   1559   3160   3151   3153     1  0.0000000  1.6038667  3
   1560   1559   3160   3151     1  0.0000000  1.6038667  3
   1561   1559   3160   3151     1  0.0000000  1.6038667  3
   1562   3189   3180   3181     1  0.0000000  1.6038667  3
   1562   3189   3180   3182     1  0.0000000  1.6038667  3
   1563   1562   3189   3180     1  0.0000000  1.6038667  3
   1564   1562   3189   3180     1  0.0000000  1.6038667  3
   1566   1567   1579   1580     1  0.0000000  0.6508444  3
   1566   1567   1579   1581     1  0.0000000  0.6508444  3
   1566   1570   1582   1583     1  0.0000000  0.6508444  3
   1566   1570   1582   1584     1  0.0000000  0.6508444  3
   1566   1573   1576   1577     1  0.0000000  0.6508444  3
   1566   1573   1576   1578     1  0.0000000  0.6508444  3
   1567   1566   1570   1571     1  0.0000000  1.2552000  3
   1567   1566   1570   1572     1  0.0000000  1.2552000  3
   1567   1566   1573   1574     1  0.0000000  1.2552000  3
   1567   1566   1573   1575     1  0.0000000  1.2552000  3
   1567   1579   1591   1592     1  0.0000000  0.6508444  3
   1567   1579   1591   1593     1  0.0000000  0.6508444  3
   1568   1567   1566   1570     1  0.0000000  1.2552000  3
   1568   1567   1566   1573     1  0.0000000  1.2552000  3
   1568   1567   1579   1591     1  0.0000000  0.6508444  3
   1568   1567   1579   1580     1  0.0000000  0.6508444  3
   1568   1567   1579   1581     1  0.0000000  0.6508444  3
   1569   1567   1566   1570     1  0.0000000  1.2552000  3
   1569   1567   1566   1573     1  0.0000000  1.2552000  3
   1569   1567   1579   1591     1  0.0000000  0.6508444  3
   1569   1567   1579   1580     1  0.0000000  0.6508444  3
   1569   1567   1579   1581     1  0.0000000  0.6508444  3
   1570   1566   1573   1574     1  0.0000000  1.2552000  3
   1570   1566   1573   1575     1  0.0000000  1.2552000  3
   1570   1582   1588   1589     1  0.0000000  0.6508444  3
   1570   1582   1588   1590     1  0.0000000  0.6508444  3
   1571   1570   1566   1573     1  0.0000000  1.2552000  3
   1571   1570   1582   1588     1  0.0000000  0.6508444  3
   1571   1570   1582   1583     1  0.0000000  0.6508444  3
   1571   1570   1582   1584     1  0.0000000  0.6508444  3
   1572   1570   1566   1573     1  0.0000000  1.2552000  3
   1572   1570   1582   1588     1  0.0000000  0.6508444  3
   1572   1570   1582   1583     1  0.0000000  0.6508444  3
   1572   1570   1582   1584     1  0.0000000  0.6508444  3
   1573   1576   1585   1586     1  0.0000000  0.6508444  3
   1573   1576   1585   1587     1  0.0000000  0.6508444  3
   1574   1573   1576   1585     1  0.0000000  0.6508444  3
   1574   1573   1576   1577     1  0.0000000  0.6508444  3
   1574   1573   1576   1578     1  0.0000000  0.6508444  3
   1575   1573   1576   1585     1  0.0000000  0.6508444  3
   1575   1573   1576   1577     1  0.0000000  0.6508444  3
   1575   1573   1576   1578     1  0.0000000  0.6508444  3
   1577   1576   1585   1594     1  0.0000000  1.0460000  1
   1577   1576   1585   1594     1  0.0000000  0.0000000  3
   1577   1576   1585   1586     1  0.0000000  0.6508444  3
   1577   1576   1585   1587     1  0.0000000  0.6508444  3
   1578   1576   1585   1594     1  0.0000000  1.0460000  1
   1578   1576   1585   1594     1  0.0000000  0.0000000  3
   1578   1576   1585   1586     1  0.0000000  0.6508444  3
   1578   1576   1585   1587     1  0.0000000  0.6508444  3
   1580   1579   1591   3247     1  0.0000000  1.0460000  1
   1580   1579   1591   3247     1  0.0000000  0.0000000  3
   1580   1579   1591   1592     1  0.0000000  0.6508444  3
   1580   1579   1591   1593     1  0.0000000  0.6508444  3
   1581   1579   1591   3247     1  0.0000000  1.0460000  1
   1581   1579   1591   3247     1  0.0000000  0.0000000  3
   1581   1579   1591   1592     1  0.0000000  0.6508444  3
   1581   1579   1591   1593     1  0.0000000  0.6508444  3
   1583   1582   1588   3218     1  0.0000000  1.0460000  1
   1583   1582   1588   3218     1  0.0000000  0.0000000  3
   1583   1582   1588   1589     1  0.0000000  0.6508444  3
   1583   1582   1588   1590     1  0.0000000  0.6508444  3
   1584   1582   1588   3218     1  0.0000000  1.0460000  1
   1584   1582   1588   3218     1  0.0000000  0.0000000  3
   1584   1582   1588   1589     1  0.0000000  0.6508444  3
   1584   1582   1588   1590     1  0.0000000  0.6508444  3
   1588   3218   3209   3210     1  0.0000000  1.6038667  3
   1588   3218   3209   3211     1  0.0000000  1.6038667  3
   1589   1588   3218   3209     1  0.0000000  1.6038667  3
   1590   1588   3218   3209     1  0.0000000  1.6038667  3
   1591   3247   3238   3239     1  0.0000000  1.6038667  3
   1591   3247   3238   3240     1  0.0000000  1.6038667  3
   1592   1591   3247   3238     1  0.0000000  1.6038667  3
   1593   1591   3247   3238     1  0.0000000  1.6038667  3
   1595   1596   1608   1609     1  0.0000000  0.6508444  3
   1595   1596   1608   1610     1  0.0000000  0.6508444  3
   1595   1599   1611   1612     1  0.0000000  0.6508444  3
   1595   1599   1611   1613     1  0.0000000  0.6508444  3
   1595   1602   1605   1606     1  0.0000000  0.6508444  3
   1595   1602   1605   1607     1  0.0000000  0.6508444  3
   1596   1595   1599   1600     1  0.0000000  1.2552000  3
   1596   1595   1599   1601     1  0.0000000  1.2552000  3
   1596   1595   1602   1603     1  0.0000000  1.2552000  3
   1596   1595   1602   1604     1  0.0000000  1.2552000  3
   1596   1608   1620   1621     1  0.0000000  0.6508444  3
   1596   1608   1620   1622     1  0.0000000  0.6508444  3
   1597   1596   1595   1599     1  0.0000000  1.2552000  3
   1597   1596   1595   1602     1  0.0000000  1.2552000  3
   1597   1596   1608   1620     1  0.0000000  0.6508444  3
   1597   1596   1608   1609     1  0.0000000  0.6508444  3
   1597   1596   1608   1610     1  0.0000000  0.6508444  3
   1598   1596   1595   1599     1  0.0000000  1.2552000  3
   1598   1596   1595   1602     1  0.0000000  1.2552000  3
   1598   1596   1608   1620     1  0.0000000  0.6508444  3
   1598   1596   1608   1609     1  0.0000000  0.6508444  3
   1598   1596   1608   1610     1  0.0000000  0.6508444  3
   1599   1595   1602   1603     1  0.0000000  1.2552000  3
   1599   1595   1602   1604     1  0.0000000  1.2552000  3
   1599   1611   1617   1618     1  0.0000000  0.6508444  3
   1599   1611   1617   1619     1  0.0000000  0.6508444  3
   1600   1599   1595   1602     1  0.0000000  1.2552000  3
   1600   1599   1611   1617     1  0.0000000  0.6508444  3
   1600   1599   1611   1612     1  0.0000000  0.6508444  3
   1600   1599   1611   1613     1  0.0000000  0.6508444  3
   1601   1599   1595   1602     1  0.0000000  1.2552000  3
   1601   1599   1611   1617     1  0.0000000  0.6508444  3
   1601   1599   1611   1612     1  0.0000000  0.6508444  3
   1601   1599   1611   1613     1  0.0000000  0.6508444  3
   1602   1605   1614   1615     1  0.0000000  0.6508444  3
   1602   1605   1614   1616     1  0.0000000  0.6508444  3
   1603   1602   1605   1614     1  0.0000000  0.6508444  3
   1603   1602   1605   1606     1  0.0000000  0.6508444  3
   1603   1602   1605   1607     1  0.0000000  0.6508444  3
   1604   1602   1605   1614     1  0.0000000  0.6508444  3
   1604   1602   1605   1606     1  0.0000000  0.6508444  3
   1604   1602   1605   1607     1  0.0000000  0.6508444  3
   1606   1605   1614   1623     1  0.0000000  1.0460000  1
   1606   1605   1614   1623     1  0.0000000  0.0000000  3
   1606   1605   1614   1615     1  0.0000000  0.6508444  3
   1606   1605   1614   1616     1  0.0000000  0.6508444  3
   1607   1605   1614   1623     1  0.0000000  1.0460000  1
   1607   1605   1614   1623     1  0.0000000  0.0000000  3
   1607   1605   1614   1615     1  0.0000000  0.6508444  3
   1607   1605   1614   1616     1  0.0000000  0.6508444  3
   1609   1608   1620   3305     1  0.0000000  1.0460000  1
   1609   1608   1620   3305     1  0.0000000  0.0000000  3
   1609   1608   1620   1621     1  0.0000000  0.6508444  3
   1609   1608   1620   1622     1  0.0000000  0.6508444  3
   1610   1608   1620   3305     1  0.0000000  1.0460000  1
   1610   1608   1620   3305     1  0.0000000  0.0000000  3
   1610   1608   1620   1621     1  0.0000000  0.6508444  3
   1610   1608   1620   1622     1  0.0000000  0.6508444  3
   1612   1611   1617   3276     1  0.0000000  1.0460000  1
   1612   1611   1617   3276     1  0.0000000  0.0000000  3
   1612   1611   1617   1618     1  0.0000000  0.6508444  3
   1612   1611   1617   1619     1  0.0000000  0.6508444  3
   1613   1611   1617   3276     1  0.0000000  1.0460000  1
   1613   1611   1617   3276     1  0.0000000  0.0000000  3
   1613   1611   1617   1618     1  0.0000000  0.6508444  3
   1613   1611   1617   1619     1  0.0000000  0.6508444  3
   1617   3276   3267   3268     1  0.0000000  1.6038667  3
   1617   3276   3267   3269     1  0.0000000  1.6038667  3
   1618   1617   3276   3267     1  0.0000000  1.6038667  3
   1619   1617   3276   3267     1  0.0000000  1.6038667  3
   1620   3305   3296   3297     1  0.0000000  1.6038667  3
   1620   3305   3296   3298     1  0.0000000  1.6038667  3
   1621   1620   3305   3296     1  0.0000000  1.6038667  3
   1622   1620   3305   3296     1  0.0000000  1.6038667  3
   1624   1625   1637   1638     1  0.0000000  0.6508444  3
   1624   1625   1637   1639     1  0.0000000  0.6508444  3
   1624   1628   1640   1641     1  0.0000000  0.6508444  3
   1624   1628   1640   1642     1  0.0000000  0.6508444  3
   1624   1631   1634   1635     1  0.0000000  0.6508444  3
   1624   1631   1634   1636     1  0.0000000  0.6508444  3
   1625   1624   1628   1629     1  0.0000000  1.2552000  3
   1625   1624   1628   1630     1  0.0000000  1.2552000  3
   1625   1624   1631   1632     1  0.0000000  1.2552000  3
   1625   1624   1631   1633     1  0.0000000  1.2552000  3
   1625   1637   1649   1650     1  0.0000000  0.6508444  3
   1625   1637   1649   1651     1  0.0000000  0.6508444  3
   1626   1625   1624   1628     1  0.0000000  1.2552000  3
   1626   1625   1624   1631     1  0.0000000  1.2552000  3
   1626   1625   1637   1649     1  0.0000000  0.6508444  3
   1626   1625   1637   1638     1  0.0000000  0.6508444  3
   1626   1625   1637   1639     1  0.0000000  0.6508444  3
   1627   1625   1624   1628     1  0.0000000  1.2552000  3
   1627   1625   1624   1631     1  0.0000000  1.2552000  3
   1627   1625   1637   1649     1  0.0000000  0.6508444  3
   1627   1625   1637   1638     1  0.0000000  0.6508444  3
   1627   1625   1637   1639     1  0.0000000  0.6508444  3
   1628   1624   1631   1632     1  0.0000000  1.2552000  3
   1628   1624   1631   1633     1  0.0000000  1.2552000  3
   1628   1640   1646   1647     1  0.0000000  0.6508444  3
   1628   1640   1646   1648     1  0.0000000  0.6508444  3
   1629   1628   1624   1631     1  0.0000000  1.2552000  3
   1629   1628   1640   1646     1  0.0000000  0.6508444  3
   1629   1628   1640   1641     1  0.0000000  0.6508444  3
   1629   1628   1640   1642     1  0.0000000  0.6508444  3
   1630   1628   1624   1631     1  0.0000000  1.2552000  3
   1630   1628   1640   1646     1  0.0000000  0.6508444  3
   1630   1628   1640   1641     1  0.0000000  0.6508444  3
   1630   1628   1640   1642     1  0.0000000  0.6508444  3
   1631   1634   1643   1644     1  0.0000000  0.6508444  3
   1631   1634   1643   1645     1  0.0000000  0.6508444  3
   1632   1631   1634   1643     1  0.0000000  0.6508444  3
   1632   1631   1634   1635     1  0.0000000  0.6508444  3
   1632   1631   1634   1636     1  0.0000000  0.6508444  3
   1633   1631   1634   1643     1  0.0000000  0.6508444  3
   1633   1631   1634   1635     1  0.0000000  0.6508444  3
   1633   1631   1634   1636     1  0.0000000  0.6508444  3
   1635   1634   1643   1652     1  0.0000000  1.0460000  1
   1635   1634   1643   1652     1  0.0000000  0.0000000  3
   1635   1634   1643   1644     1  0.0000000  0.6508444  3
   1635   1634   1643   1645     1  0.0000000  0.6508444  3
   1636   1634   1643   1652     1  0.0000000  1.0460000  1
   1636   1634   1643   1652     1  0.0000000  0.0000000  3
   1636   1634   1643   1644     1  0.0000000  0.6508444  3
   1636   1634   1643   1645     1  0.0000000  0.6508444  3
   1638   1637   1649   3363     1  0.0000000  1.0460000  1
   1638   1637   1649   3363     1  0.0000000  0.0000000  3
   1638   1637   1649   1650     1  0.0000000  0.6508444  3
   1638   1637   1649   1651     1  0.0000000  0.6508444  3
   1639   1637   1649   3363     1  0.0000000  1.0460000  1
   1639   1637   1649   3363     1  0.0000000  0.0000000  3
   1639   1637   1649   1650     1  0.0000000  0.6508444  3
   1639   1637   1649   1651     1  0.0000000  0.6508444  3
   1641   1640   1646   3334     1  0.0000000  1.0460000  1
   1641   1640   1646   3334     1  0.0000000  0.0000000  3
   1641   1640   1646   1647     1  0.0000000  0.6508444  3
   1641   1640   1646   1648     1  0.0000000  0.6508444  3
   1642   1640   1646   3334     1  0.0000000  1.0460000  1
   1642   1640   1646   3334     1  0.0000000  0.0000000  3
   1642   1640   1646   1647     1  0.0000000  0.6508444  3
   1642   1640   1646   1648     1  0.0000000  0.6508444  3
   1646   3334   3325   3326     1  0.0000000  1.6038667  3
   1646   3334   3325   3327     1  0.0000000  1.6038667  3
   1647   1646   3334   3325     1  0.0000000  1.6038667  3
   1648   1646   3334   3325     1  0.0000000  1.6038667  3
   1649   3363   3354   3355     1  0.0000000  1.6038667  3
   1649   3363   3354   3356     1  0.0000000  1.6038667  3
   1650   1649   3363   3354     1  0.0000000  1.6038667  3
   1651   1649   3363   3354     1  0.0000000  1.6038667  3
   1653   1654   1666   1667     1  0.0000000  0.6508444  3
   1653   1654   1666   1668     1  0.0000000  0.6508444  3
   1653   1657   1669   1670     1  0.0000000  0.6508444  3
   1653   1657   1669   1671     1  0.0000000  0.6508444  3
   1653   1660   1663   1664     1  0.0000000  0.6508444  3
   1653   1660   1663   1665     1  0.0000000  0.6508444  3
   1654   1653   1657   1658     1  0.0000000  1.2552000  3
   1654   1653   1657   1659     1  0.0000000  1.2552000  3
   1654   1653   1660   1661     1  0.0000000  1.2552000  3
   1654   1653   1660   1662     1  0.0000000  1.2552000  3
   1654   1666   1678   1679     1  0.0000000  0.6508444  3
   1654   1666   1678   1680     1  0.0000000  0.6508444  3
   1655   1654   1653   1657     1  0.0000000  1.2552000  3
   1655   1654   1653   1660     1  0.0000000  1.2552000  3
   1655   1654   1666   1678     1  0.0000000  0.6508444  3
   1655   1654   1666   1667     1  0.0000000  0.6508444  3
   1655   1654   1666   1668     1  0.0000000  0.6508444  3
   1656   1654   1653   1657     1  0.0000000  1.2552000  3
   1656   1654   1653   1660     1  0.0000000  1.2552000  3
   1656   1654   1666   1678     1  0.0000000  0.6508444  3
   1656   1654   1666   1667     1  0.0000000  0.6508444  3
   1656   1654   1666   1668     1  0.0000000  0.6508444  3
   1657   1653   1660   1661     1  0.0000000  1.2552000  3
   1657   1653   1660   1662     1  0.0000000  1.2552000  3
   1657   1669   1675   1676     1  0.0000000  0.6508444  3
   1657   1669   1675   1677     1  0.0000000  0.6508444  3
   1658   1657   1653   1660     1  0.0000000  1.2552000  3
   1658   1657   1669   1675     1  0.0000000  0.6508444  3
   1658   1657   1669   1670     1  0.0000000  0.6508444  3
   1658   1657   1669   1671     1  0.0000000  0.6508444  3
   1659   1657   1653   1660     1  0.0000000  1.2552000  3
   1659   1657   1669   1675     1  0.0000000  0.6508444  3
   1659   1657   1669   1670     1  0.0000000  0.6508444  3
   1659   1657   1669   1671     1  0.0000000  0.6508444  3
   1660   1663   1672   1673     1  0.0000000  0.6508444  3
   1660   1663   1672   1674     1  0.0000000  0.6508444  3
   1661   1660   1663   1672     1  0.0000000  0.6508444  3
   1661   1660   1663   1664     1  0.0000000  0.6508444  3
   1661   1660   1663   1665     1  0.0000000  0.6508444  3
   1662   1660   1663   1672     1  0.0000000  0.6508444  3
   1662   1660   1663   1664     1  0.0000000  0.6508444  3
   1662   1660   1663   1665     1  0.0000000  0.6508444  3
   1664   1663   1672   1681     1  0.0000000  1.0460000  1
   1664   1663   1672   1681     1  0.0000000  0.0000000  3
   1664   1663   1672   1673     1  0.0000000  0.6508444  3
   1664   1663   1672   1674     1  0.0000000  0.6508444  3
   1665   1663   1672   1681     1  0.0000000  1.0460000  1
   1665   1663   1672   1681     1  0.0000000  0.0000000  3
   1665   1663   1672   1673     1  0.0000000  0.6508444  3
   1665   1663   1672   1674     1  0.0000000  0.6508444  3
   1667   1666   1678   3421     1  0.0000000  1.0460000  1
   1667   1666   1678   3421     1  0.0000000  0.0000000  3
   1667   1666   1678   1679     1  0.0000000  0.6508444  3
   1667   1666   1678   1680     1  0.0000000  0.6508444  3
   1668   1666   1678   3421     1  0.0000000  1.0460000  1
   1668   1666   1678   3421     1  0.0000000  0.0000000  3
   1668   1666   1678   1679     1  0.0000000  0.6508444  3
   1668   1666   1678   1680     1  0.0000000  0.6508444  3
   1670   1669   1675   3392     1  0.0000000  1.0460000  1
   1670   1669   1675   3392     1  0.0000000  0.0000000  3
   1670   1669   1675   1676     1  0.0000000  0.6508444  3
   1670   1669   1675   1677     1  0.0000000  0.6508444  3
   1671   1669   1675   3392     1  0.0000000  1.0460000  1
   1671   1669   1675   3392     1  0.0000000  0.0000000  3
   1671   1669   1675   1676     1  0.0000000  0.6508444  3
   1671   1669   1675   1677     1  0.0000000  0.6508444  3
   1675   3392   3383   3384     1  0.0000000  1.6038667  3
   1675   3392   3383   3385     1  0.0000000  1.6038667  3
   1676   1675   3392   3383     1  0.0000000  1.6038667  3
   1677   1675   3392   3383     1  0.0000000  1.6038667  3
   1678   3421   3412   3413     1  0.0000000  1.6038667  3
   1678   3421   3412   3414     1  0.0000000  1.6038667  3
   1679   1678   3421   3412     1  0.0000000  1.6038667  3
   1680   1678   3421   3412     1  0.0000000  1.6038667  3
   1682   1683   1695   1696     1  0.0000000  0.6508444  3
   1682   1683   1695   1697     1  0.0000000  0.6508444  3
   1682   1686   1698   1699     1  0.0000000  0.6508444  3
   1682   1686   1698   1700     1  0.0000000  0.6508444  3
   1682   1689   1692   1693     1  0.0000000  0.6508444  3
   1682   1689   1692   1694     1  0.0000000  0.6508444  3
   1683   1682   1686   1687     1  0.0000000  1.2552000  3
   1683   1682   1686   1688     1  0.0000000  1.2552000  3
   1683   1682   1689   1690     1  0.0000000  1.2552000  3
   1683   1682   1689   1691     1  0.0000000  1.2552000  3
   1683   1695   1707   1708     1  0.0000000  0.6508444  3
   1683   1695   1707   1709     1  0.0000000  0.6508444  3
   1684   1683   1682   1686     1  0.0000000  1.2552000  3
   1684   1683   1682   1689     1  0.0000000  1.2552000  3
   1684   1683   1695   1707     1  0.0000000  0.6508444  3
   1684   1683   1695   1696     1  0.0000000  0.6508444  3
   1684   1683   1695   1697     1  0.0000000  0.6508444  3
   1685   1683   1682   1686     1  0.0000000  1.2552000  3
   1685   1683   1682   1689     1  0.0000000  1.2552000  3
   1685   1683   1695   1707     1  0.0000000  0.6508444  3
   1685   1683   1695   1696     1  0.0000000  0.6508444  3
   1685   1683   1695   1697     1  0.0000000  0.6508444  3
   1686   1682   1689   1690     1  0.0000000  1.2552000  3
   1686   1682   1689   1691     1  0.0000000  1.2552000  3
   1686   1698   1704   1705     1  0.0000000  0.6508444  3
   1686   1698   1704   1706     1  0.0000000  0.6508444  3
   1687   1686   1682   1689     1  0.0000000  1.2552000  3
   1687   1686   1698   1704     1  0.0000000  0.6508444  3
   1687   1686   1698   1699     1  0.0000000  0.6508444  3
   1687   1686   1698   1700     1  0.0000000  0.6508444  3
   1688   1686   1682   1689     1  0.0000000  1.2552000  3
   1688   1686   1698   1704     1  0.0000000  0.6508444  3
   1688   1686   1698   1699     1  0.0000000  0.6508444  3
   1688   1686   1698   1700     1  0.0000000  0.6508444  3
   1689   1692   1701   1702     1  0.0000000  0.6508444  3
   1689   1692   1701   1703     1  0.0000000  0.6508444  3
   1690   1689   1692   1701     1  0.0000000  0.6508444  3
   1690   1689   1692   1693     1  0.0000000  0.6508444  3
   1690   1689   1692   1694     1  0.0000000  0.6508444  3
   1691   1689   1692   1701     1  0.0000000  0.6508444  3
   1691   1689   1692   1693     1  0.0000000  0.6508444  3
   1691   1689   1692   1694     1  0.0000000  0.6508444  3
   1693   1692   1701   1710     1  0.0000000  1.0460000  1
   1693   1692   1701   1710     1  0.0000000  0.0000000  3
   1693   1692   1701   1702     1  0.0000000  0.6508444  3
   1693   1692   1701   1703     1  0.0000000  0.6508444  3
   1694   1692   1701   1710     1  0.0000000  1.0460000  1
   1694   1692   1701   1710     1  0.0000000  0.0000000  3
   1694   1692   1701   1702     1  0.0000000  0.6508444  3
   1694   1692   1701   1703     1  0.0000000  0.6508444  3
   1696   1695   1707   3479     1  0.0000000  1.0460000  1
   1696   1695   1707   3479     1  0.0000000  0.0000000  3
   1696   1695   1707   1708     1  0.0000000  0.6508444  3
   1696   1695   1707   1709     1  0.0000000  0.6508444  3
   1697   1695   1707   3479     1  0.0000000  1.0460000  1
   1697   1695   1707   3479     1  0.0000000  0.0000000  3
   1697   1695   1707   1708     1  0.0000000  0.6508444  3
   1697   1695   1707   1709     1  0.0000000  0.6508444  3
   1699   1698   1704   3450     1  0.0000000  1.0460000  1
   1699   1698   1704   3450     1  0.0000000  0.0000000  3
   1699   1698   1704   1705     1  0.0000000  0.6508444  3
   1699   1698   1704   1706     1  0.0000000  0.6508444  3
   1700   1698   1704   3450     1  0.0000000  1.0460000  1
   1700   1698   1704   3450     1  0.0000000  0.0000000  3
   1700   1698   1704   1705     1  0.0000000  0.6508444  3
   1700   1698   1704   1706     1  0.0000000  0.6508444  3
   1704   3450   3441   3442     1  0.0000000  1.6038667  3
   1704   3450   3441   3443     1  0.0000000  1.6038667  3
   1705   1704   3450   3441     1  0.0000000  1.6038667  3
   1706   1704   3450   3441     1  0.0000000  1.6038667  3
   1707   3479   3470   3471     1  0.0000000  1.6038667  3
   1707   3479   3470   3472     1  0.0000000  1.6038667  3
   1708   1707   3479   3470     1  0.0000000  1.6038667  3
   1709   1707   3479   3470     1  0.0000000  1.6038667  3
   1711   1712   1724   1725     1  0.0000000  0.6508444  3
   1711   1712   1724   1726     1  0.0000000  0.6508444  3
   1711   1715   1727   1728     1  0.0000000  0.6508444  3
   1711   1715   1727   1729     1  0.0000000  0.6508444  3
   1711   1718   1721   1722     1  0.0000000  0.6508444  3
   1711   1718   1721   1723     1  0.0000000  0.6508444  3
   1712   1711   1715   1716     1  0.0000000  1.2552000  3
   1712   1711   1715   1717     1  0.0000000  1.2552000  3
   1712   1711   1718   1719     1  0.0000000  1.2552000  3
   1712   1711   1718   1720     1  0.0000000  1.2552000  3
   1712   1724   1736   1737     1  0.0000000  0.6508444  3
   1712   1724   1736   1738     1  0.0000000  0.6508444  3
   1713   1712   1711   1715     1  0.0000000  1.2552000  3
   1713   1712   1711   1718     1  0.0000000  1.2552000  3
   1713   1712   1724   1736     1  0.0000000  0.6508444  3
   1713   1712   1724   1725     1  0.0000000  0.6508444  3
   1713   1712   1724   1726     1  0.0000000  0.6508444  3
   1714   1712   1711   1715     1  0.0000000  1.2552000  3
   1714   1712   1711   1718     1  0.0000000  1.2552000  3
   1714   1712   1724   1736     1  0.0000000  0.6508444  3
   1714   1712   1724   1725     1  0.0000000  0.6508444  3
   1714   1712   1724   1726     1  0.0000000  0.6508444  3
   1715   1711   1718   1719     1  0.0000000  1.2552000  3
   1715   1711   1718   1720     1  0.0000000  1.2552000  3
   1715   1727   1733   1734     1  0.0000000  0.6508444  3
   1715   1727   1733   1735     1  0.0000000  0.6508444  3
   1716   1715   1711   1718     1  0.0000000  1.2552000  3
   1716   1715   1727   1733     1  0.0000000  0.6508444  3
   1716   1715   1727   1728     1  0.0000000  0.6508444  3
   1716   1715   1727   1729     1  0.0000000  0.6508444  3
   1717   1715   1711   1718     1  0.0000000  1.2552000  3
   1717   1715   1727   1733     1  0.0000000  0.6508444  3
   1717   1715   1727   1728     1  0.0000000  0.6508444  3
   1717   1715   1727   1729     1  0.0000000  0.6508444  3
   1718   1721   1730   1731     1  0.0000000  0.6508444  3
   1718   1721   1730   1732     1  0.0000000  0.6508444  3
   1719   1718   1721   1730     1  0.0000000  0.6508444  3
   1719   1718   1721   1722     1  0.0000000  0.6508444  3
   1719   1718   1721   1723     1  0.0000000  0.6508444  3
   1720   1718   1721   1730     1  0.0000000  0.6508444  3
   1720   1718   1721   1722     1  0.0000000  0.6508444  3
   1720   1718   1721   1723     1  0.0000000  0.6508444  3
   1722   1721   1730   1739     1  0.0000000  1.0460000  1
   1722   1721   1730   1739     1  0.0000000  0.0000000  3
   1722   1721   1730   1731     1  0.0000000  0.6508444  3
   1722   1721   1730   1732     1  0.0000000  0.6508444  3
   1723   1721   1730   1739     1  0.0000000  1.0460000  1
   1723   1721   1730   1739     1  0.0000000  0.0000000  3
   1723   1721   1730   1731     1  0.0000000  0.6508444  3
   1723   1721   1730   1732     1  0.0000000  0.6508444  3
   1725   1724   1736   3537     1  0.0000000  1.0460000  1
   1725   1724   1736   3537     1  0.0000000  0.0000000  3
   1725   1724   1736   1737     1  0.0000000  0.6508444  3
   1725   1724   1736   1738     1  0.0000000  0.6508444  3
   1726   1724   1736   3537     1  0.0000000  1.0460000  1
   1726   1724   1736   3537     1  0.0000000  0.0000000  3
   1726   1724   1736   1737     1  0.0000000  0.6508444  3
   1726   1724   1736   1738     1  0.0000000  0.6508444  3
   1728   1727   1733   3508     1  0.0000000  1.0460000  1
   1728   1727   1733   3508     1  0.0000000  0.0000000  3
   1728   1727   1733   1734     1  0.0000000  0.6508444  3
   1728   1727   1733   1735     1  0.0000000  0.6508444  3
   1729   1727   1733   3508     1  0.0000000  1.0460000  1
   1729   1727   1733   3508     1  0.0000000  0.0000000  3
   1729   1727   1733   1734     1  0.0000000  0.6508444  3
   1729   1727   1733   1735     1  0.0000000  0.6508444  3
   1733   3508   3499   3500     1  0.0000000  1.6038667  3
   1733   3508   3499   3501     1  0.0000000  1.6038667  3
   1734   1733   3508   3499     1  0.0000000  1.6038667  3
   1735   1733   3508   3499     1  0.0000000  1.6038667  3
   1736   3537   3528   3529     1  0.0000000  1.6038667  3
   1736   3537   3528   3530     1  0.0000000  1.6038667  3
   1737   1736   3537   3528     1  0.0000000  1.6038667  3
   1738   1736   3537   3528     1  0.0000000  1.6038667  3
   1740   1741   1753   1754     1  0.0000000  0.6508444  3
   1740   1741   1753   1755     1  0.0000000  0.6508444  3
   1740   1744   1756   1757     1  0.0000000  0.6508444  3
   1740   1744   1756   1758     1  0.0000000  0.6508444  3
   1740   1747   1750   1751     1  0.0000000  0.6508444  3
   1740   1747   1750   1752     1  0.0000000  0.6508444  3
   1741   1740   1744   1745     1  0.0000000  1.2552000  3
   1741   1740   1744   1746     1  0.0000000  1.2552000  3
   1741   1740   1747   1748     1  0.0000000  1.2552000  3
   1741   1740   1747   1749     1  0.0000000  1.2552000  3
   1741   1753   1765   1766     1  0.0000000  0.6508444  3
   1741   1753   1765   1767     1  0.0000000  0.6508444  3
   1742   1741   1740   1744     1  0.0000000  1.2552000  3
   1742   1741   1740   1747     1  0.0000000  1.2552000  3
   1742   1741   1753   1765     1  0.0000000  0.6508444  3
   1742   1741   1753   1754     1  0.0000000  0.6508444  3
   1742   1741   1753   1755     1  0.0000000  0.6508444  3
   1743   1741   1740   1744     1  0.0000000  1.2552000  3
   1743   1741   1740   1747     1  0.0000000  1.2552000  3
   1743   1741   1753   1765     1  0.0000000  0.6508444  3
   1743   1741   1753   1754     1  0.0000000  0.6508444  3
   1743   1741   1753   1755     1  0.0000000  0.6508444  3
   1744   1740   1747   1748     1  0.0000000  1.2552000  3
   1744   1740   1747   1749     1  0.0000000  1.2552000  3
   1744   1756   1762   1763     1  0.0000000  0.6508444  3
   1744   1756   1762   1764     1  0.0000000  0.6508444  3
   1745   1744   1740   1747     1  0.0000000  1.2552000  3
   1745   1744   1756   1762     1  0.0000000  0.6508444  3
   1745   1744   1756   1757     1  0.0000000  0.6508444  3
   1745   1744   1756   1758     1  0.0000000  0.6508444  3
   1746   1744   1740   1747     1  0.0000000  1.2552000  3
   1746   1744   1756   1762     1  0.0000000  0.6508444  3
   1746   1744   1756   1757     1  0.0000000  0.6508444  3
   1746   1744   1756   1758     1  0.0000000  0.6508444  3
   1747   1750   1759   1760     1  0.0000000  0.6508444  3
   1747   1750   1759   1761     1  0.0000000  0.6508444  3
   1748   1747   1750   1759     1  0.0000000  0.6508444  3
   1748   1747   1750   1751     1  0.0000000  0.6508444  3
   1748   1747   1750   1752     1  0.0000000  0.6508444  3
   1749   1747   1750   1759     1  0.0000000  0.6508444  3
   1749   1747   1750   1751     1  0.0000000  0.6508444  3
   1749   1747   1750   1752     1  0.0000000  0.6508444  3
   1751   1750   1759   1768     1  0.0000000  1.0460000  1
   1751   1750   1759   1768     1  0.0000000  0.0000000  3
   1751   1750   1759   1760     1  0.0000000  0.6508444  3
   1751   1750   1759   1761     1  0.0000000  0.6508444  3
   1752   1750   1759   1768     1  0.0000000  1.0460000  1
   1752   1750   1759   1768     1  0.0000000  0.0000000  3
   1752   1750   1759   1760     1  0.0000000  0.6508444  3
   1752   1750   1759   1761     1  0.0000000  0.6508444  3
   1754   1753   1765   3595     1  0.0000000  1.0460000  1
   1754   1753   1765   3595     1  0.0000000  0.0000000  3
   1754   1753   1765   1766     1  0.0000000  0.6508444  3
   1754   1753   1765   1767     1  0.0000000  0.6508444  3
   1755   1753   1765   3595     1  0.0000000  1.0460000  1
   1755   1753   1765   3595     1  0.0000000  0.0000000  3
   1755   1753   1765   1766     1  0.0000000  0.6508444  3
   1755   1753   1765   1767     1  0.0000000  0.6508444  3
   1757   1756   1762   3566     1  0.0000000  1.0460000  1
   1757   1756   1762   3566     1  0.0000000  0.0000000  3
   1757   1756   1762   1763     1  0.0000000  0.6508444  3
   1757   1756   1762   1764     1  0.0000000  0.6508444  3
   1758   1756   1762   3566     1  0.0000000  1.0460000  1
   1758   1756   1762   3566     1  0.0000000  0.0000000  3
   1758   1756   1762   1763     1  0.0000000  0.6508444  3
   1758   1756   1762   1764     1  0.0000000  0.6508444  3
   1762   3566   3557   3558     1  0.0000000  1.6038667  3
   1762   3566   3557   3559     1  0.0000000  1.6038667  3
   1763   1762   3566   3557     1  0.0000000  1.6038667  3
   1764   1762   3566   3557     1  0.0000000  1.6038667  3
   1765   3595   3586   3587     1  0.0000000  1.6038667  3
   1765   3595   3586   3588     1  0.0000000  1.6038667  3
   1766   1765   3595   3586     1  0.0000000  1.6038667  3
   1767   1765   3595   3586     1  0.0000000  1.6038667  3
   1769   1770   1782   1783     1  0.0000000  0.6508444  3
   1769   1770   1782   1784     1  0.0000000  0.6508444  3
   1769   1773   1785   1786     1  0.0000000  0.6508444  3
   1769   1773   1785   1787     1  0.0000000  0.6508444  3
   1769   1776   1779   1780     1  0.0000000  0.6508444  3
   1769   1776   1779   1781     1  0.0000000  0.6508444  3
   1770   1769   1773   1774     1  0.0000000  1.2552000  3
   1770   1769   1773   1775     1  0.0000000  1.2552000  3
   1770   1769   1776   1777     1  0.0000000  1.2552000  3
   1770   1769   1776   1778     1  0.0000000  1.2552000  3
   1770   1782   1794   1795     1  0.0000000  0.6508444  3
   1770   1782   1794   1796     1  0.0000000  0.6508444  3
   1771   1770   1769   1773     1  0.0000000  1.2552000  3
   1771   1770   1769   1776     1  0.0000000  1.2552000  3
   1771   1770   1782   1794     1  0.0000000  0.6508444  3
   1771   1770   1782   1783     1  0.0000000  0.6508444  3
   1771   1770   1782   1784     1  0.0000000  0.6508444  3
   1772   1770   1769   1773     1  0.0000000  1.2552000  3
   1772   1770   1769   1776     1  0.0000000  1.2552000  3
   1772   1770   1782   1794     1  0.0000000  0.6508444  3
   1772   1770   1782   1783     1  0.0000000  0.6508444  3
   1772   1770   1782   1784     1  0.0000000  0.6508444  3
   1773   1769   1776   1777     1  0.0000000  1.2552000  3
   1773   1769   1776   1778     1  0.0000000  1.2552000  3
   1773   1785   1791   1792     1  0.0000000  0.6508444  3
   1773   1785   1791   1793     1  0.0000000  0.6508444  3
   1774   1773   1769   1776     1  0.0000000  1.2552000  3
   1774   1773   1785   1791     1  0.0000000  0.6508444  3
   1774   1773   1785   1786     1  0.0000000  0.6508444  3
   1774   1773   1785   1787     1  0.0000000  0.6508444  3
   1775   1773   1769   1776     1  0.0000000  1.2552000  3
   1775   1773   1785   1791     1  0.0000000  0.6508444  3
   1775   1773   1785   1786     1  0.0000000  0.6508444  3
   1775   1773   1785   1787     1  0.0000000  0.6508444  3
   1776   1779   1788   1789     1  0.0000000  0.6508444  3
   1776   1779   1788   1790     1  0.0000000  0.6508444  3
   1777   1776   1779   1788     1  0.0000000  0.6508444  3
   1777   1776   1779   1780     1  0.0000000  0.6508444  3
   1777   1776   1779   1781     1  0.0000000  0.6508444  3
   1778   1776   1779   1788     1  0.0000000  0.6508444  3
   1778   1776   1779   1780     1  0.0000000  0.6508444  3
   1778   1776   1779   1781     1  0.0000000  0.6508444  3
   1780   1779   1788   1797     1  0.0000000  1.0460000  1
   1780   1779   1788   1797     1  0.0000000  0.0000000  3
   1780   1779   1788   1789     1  0.0000000  0.6508444  3
   1780   1779   1788   1790     1  0.0000000  0.6508444  3
   1781   1779   1788   1797     1  0.0000000  1.0460000  1
   1781   1779   1788   1797     1  0.0000000  0.0000000  3
   1781   1779   1788   1789     1  0.0000000  0.6508444  3
   1781   1779   1788   1790     1  0.0000000  0.6508444  3
   1783   1782   1794   3653     1  0.0000000  1.0460000  1
   1783   1782   1794   3653     1  0.0000000  0.0000000  3
   1783   1782   1794   1795     1  0.0000000  0.6508444  3
   1783   1782   1794   1796     1  0.0000000  0.6508444  3
   1784   1782   1794   3653     1  0.0000000  1.0460000  1
   1784   1782   1794   3653     1  0.0000000  0.0000000  3
   1784   1782   1794   1795     1  0.0000000  0.6508444  3
   1784   1782   1794   1796     1  0.0000000  0.6508444  3
   1786   1785   1791   3624     1  0.0000000  1.0460000  1
   1786   1785   1791   3624     1  0.0000000  0.0000000  3
   1786   1785   1791   1792     1  0.0000000  0.6508444  3
   1786   1785   1791   1793     1  0.0000000  0.6508444  3
   1787   1785   1791   3624     1  0.0000000  1.0460000  1
   1787   1785   1791   3624     1  0.0000000  0.0000000  3
   1787   1785   1791   1792     1  0.0000000  0.6508444  3
   1787   1785   1791   1793     1  0.0000000  0.6508444  3
   1791   3624   3615   3616     1  0.0000000  1.6038667  3
   1791   3624   3615   3617     1  0.0000000  1.6038667  3
   1792   1791   3624   3615     1  0.0000000  1.6038667  3
   1793   1791   3624   3615     1  0.0000000  1.6038667  3
   1794   3653   3644   3645     1  0.0000000  1.6038667  3
   1794   3653   3644   3646     1  0.0000000  1.6038667  3
   1795   1794   3653   3644     1  0.0000000  1.6038667  3
   1796   1794   3653   3644     1  0.0000000  1.6038667  3
   1798   1799   1811   1812     1  0.0000000  0.6508444  3
   1798   1799   1811   1813     1  0.0000000  0.6508444  3
   1798   1802   1814   1815     1  0.0000000  0.6508444  3
   1798   1802   1814   1816     1  0.0000000  0.6508444  3
   1798   1805   1808   1809     1  0.0000000  0.6508444  3
   1798   1805   1808   1810     1  0.0000000  0.6508444  3
   1799   1798   1802   1803     1  0.0000000  1.2552000  3
   1799   1798   1802   1804     1  0.0000000  1.2552000  3
   1799   1798   1805   1806     1  0.0000000  1.2552000  3
   1799   1798   1805   1807     1  0.0000000  1.2552000  3
   1799   1811   1823   1824     1  0.0000000  0.6508444  3
   1799   1811   1823   1825     1  0.0000000  0.6508444  3
   1800   1799   1798   1802     1  0.0000000  1.2552000  3
   1800   1799   1798   1805     1  0.0000000  1.2552000  3
   1800   1799   1811   1823     1  0.0000000  0.6508444  3
   1800   1799   1811   1812     1  0.0000000  0.6508444  3
   1800   1799   1811   1813     1  0.0000000  0.6508444  3
   1801   1799   1798   1802     1  0.0000000  1.2552000  3
   1801   1799   1798   1805     1  0.0000000  1.2552000  3
   1801   1799   1811   1823     1  0.0000000  0.6508444  3
   1801   1799   1811   1812     1  0.0000000  0.6508444  3
   1801   1799   1811   1813     1  0.0000000  0.6508444  3
   1802   1798   1805   1806     1  0.0000000  1.2552000  3
   1802   1798   1805   1807     1  0.0000000  1.2552000  3
   1802   1814   1820   1821     1  0.0000000  0.6508444  3
   1802   1814   1820   1822     1  0.0000000  0.6508444  3
   1803   1802   1798   1805     1  0.0000000  1.2552000  3
   1803   1802   1814   1820     1  0.0000000  0.6508444  3
   1803   1802   1814   1815     1  0.0000000  0.6508444  3
   1803   1802   1814   1816     1  0.0000000  0.6508444  3
   1804   1802   1798   1805     1  0.0000000  1.2552000  3
   1804   1802   1814   1820     1  0.0000000  0.6508444  3
   1804   1802   1814   1815     1  0.0000000  0.6508444  3
   1804   1802   1814   1816     1  0.0000000  0.6508444  3
   1805   1808   1817   1818     1  0.0000000  0.6508444  3
   1805   1808   1817   1819     1  0.0000000  0.6508444  3
   1806   1805   1808   1817     1  0.0000000  0.6508444  3
   1806   1805   1808   1809     1  0.0000000  0.6508444  3
   1806   1805   1808   1810     1  0.0000000  0.6508444  3
   1807   1805   1808   1817     1  0.0000000  0.6508444  3
   1807   1805   1808   1809     1  0.0000000  0.6508444  3
   1807   1805   1808   1810     1  0.0000000  0.6508444  3
   1809   1808   1817   1826     1  0.0000000  1.0460000  1
   1809   1808   1817   1826     1  0.0000000  0.0000000  3
   1809   1808   1817   1818     1  0.0000000  0.6508444  3
   1809   1808   1817   1819     1  0.0000000  0.6508444  3
   1810   1808   1817   1826     1  0.0000000  1.0460000  1
   1810   1808   1817   1826     1  0.0000000  0.0000000  3
   1810   1808   1817   1818     1  0.0000000  0.6508444  3
   1810   1808   1817   1819     1  0.0000000  0.6508444  3
   1812   1811   1823   3711     1  0.0000000  1.0460000  1
   1812   1811   1823   3711     1  0.0000000  0.0000000  3
   1812   1811   1823   1824     1  0.0000000  0.6508444  3
   1812   1811   1823   1825     1  0.0000000  0.6508444  3
   1813   1811   1823   3711     1  0.0000000  1.0460000  1
   1813   1811   1823   3711     1  0.0000000  0.0000000  3
   1813   1811   1823   1824     1  0.0000000  0.6508444  3
   1813   1811   1823   1825     1  0.0000000  0.6508444  3
   1815   1814   1820   3682     1  0.0000000  1.0460000  1
   1815   1814   1820   3682     1  0.0000000  0.0000000  3
   1815   1814   1820   1821     1  0.0000000  0.6508444  3
   1815   1814   1820   1822     1  0.0000000  0.6508444  3
   1816   1814   1820   3682     1  0.0000000  1.0460000  1
   1816   1814   1820   3682     1  0.0000000  0.0000000  3
   1816   1814   1820   1821     1  0.0000000  0.6508444  3
   1816   1814   1820   1822     1  0.0000000  0.6508444  3
   1820   3682   3673   3674     1  0.0000000  1.6038667  3
   1820   3682   3673   3675     1  0.0000000  1.6038667  3
   1821   1820   3682   3673     1  0.0000000  1.6038667  3
   1822   1820   3682   3673     1  0.0000000  1.6038667  3
   1823   3711   3702   3703     1  0.0000000  1.6038667  3
   1823   3711   3702   3704     1  0.0000000  1.6038667  3
   1824   1823   3711   3702     1  0.0000000  1.6038667  3
   1825   1823   3711   3702     1  0.0000000  1.6038667  3
   1827   1828   1840   1841     1  0.0000000  0.6508444  3
   1827   1828   1840   1842     1  0.0000000  0.6508444  3
   1827   1831   1843   1844     1  0.0000000  0.6508444  3
   1827   1831   1843   1845     1  0.0000000  0.6508444  3
   1827   1834   1837   1838     1  0.0000000  0.6508444  3
   1827   1834   1837   1839     1  0.0000000  0.6508444  3
   1828   1827   1831   1832     1  0.0000000  1.2552000  3
   1828   1827   1831   1833     1  0.0000000  1.2552000  3
   1828   1827   1834   1835     1  0.0000000  1.2552000  3
   1828   1827   1834   1836     1  0.0000000  1.2552000  3
   1828   1840   1852   1853     1  0.0000000  0.6508444  3
   1828   1840   1852   1854     1  0.0000000  0.6508444  3
   1829   1828   1827   1831     1  0.0000000  1.2552000  3
   1829   1828   1827   1834     1  0.0000000  1.2552000  3
   1829   1828   1840   1852     1  0.0000000  0.6508444  3
   1829   1828   1840   1841     1  0.0000000  0.6508444  3
   1829   1828   1840   1842     1  0.0000000  0.6508444  3
   1830   1828   1827   1831     1  0.0000000  1.2552000  3
   1830   1828   1827   1834     1  0.0000000  1.2552000  3
   1830   1828   1840   1852     1  0.0000000  0.6508444  3
   1830   1828   1840   1841     1  0.0000000  0.6508444  3
   1830   1828   1840   1842     1  0.0000000  0.6508444  3
   1831   1827   1834   1835     1  0.0000000  1.2552000  3
   1831   1827   1834   1836     1  0.0000000  1.2552000  3
   1831   1843   1849   1850     1  0.0000000  0.6508444  3
   1831   1843   1849   1851     1  0.0000000  0.6508444  3
   1832   1831   1827   1834     1  0.0000000  1.2552000  3
   1832   1831   1843   1849     1  0.0000000  0.6508444  3
   1832   1831   1843   1844     1  0.0000000  0.6508444  3
   1832   1831   1843   1845     1  0.0000000  0.6508444  3
   1833   1831   1827   1834     1  0.0000000  1.2552000  3
   1833   1831   1843   1849     1  0.0000000  0.6508444  3
   1833   1831   1843   1844     1  0.0000000  0.6508444  3
   1833   1831   1843   1845     1  0.0000000  0.6508444  3
   1834   1837   1846   1847     1  0.0000000  0.6508444  3
   1834   1837   1846   1848     1  0.0000000  0.6508444  3
   1835   1834   1837   1846     1  0.0000000  0.6508444  3
   1835   1834   1837   1838     1  0.0000000  0.6508444  3
   1835   1834   1837   1839     1  0.0000000  0.6508444  3
   1836   1834   1837   1846     1  0.0000000  0.6508444  3
   1836   1834   1837   1838     1  0.0000000  0.6508444  3
   1836   1834   1837   1839     1  0.0000000  0.6508444  3
   1838   1837   1846   1855     1  0.0000000  1.0460000  1
   1838   1837   1846   1855     1  0.0000000  0.0000000  3
   1838   1837   1846   1847     1  0.0000000  0.6508444  3
   1838   1837   1846   1848     1  0.0000000  0.6508444  3
   1839   1837   1846   1855     1  0.0000000  1.0460000  1
   1839   1837   1846   1855     1  0.0000000  0.0000000  3
   1839   1837   1846   1847     1  0.0000000  0.6508444  3
   1839   1837   1846   1848     1  0.0000000  0.6508444  3
   1841   1840   1852   3769     1  0.0000000  1.0460000  1
   1841   1840   1852   3769     1  0.0000000  0.0000000  3
   1841   1840   1852   1853     1  0.0000000  0.6508444  3
   1841   1840   1852   1854     1  0.0000000  0.6508444  3
   1842   1840   1852   3769     1  0.0000000  1.0460000  1
   1842   1840   1852   3769     1  0.0000000  0.0000000  3
   1842   1840   1852   1853     1  0.0000000  0.6508444  3
   1842   1840   1852   1854     1  0.0000000  0.6508444  3
   1844   1843   1849   3740     1  0.0000000  1.0460000  1
   1844   1843   1849   3740     1  0.0000000  0.0000000  3
   1844   1843   1849   1850     1  0.0000000  0.6508444  3
   1844   1843   1849   1851     1  0.0000000  0.6508444  3
   1845   1843   1849   3740     1  0.0000000  1.0460000  1
   1845   1843   1849   3740     1  0.0000000  0.0000000  3
   1845   1843   1849   1850     1  0.0000000  0.6508444  3
   1845   1843   1849   1851     1  0.0000000  0.6508444  3
   1849   3740   3731   3732     1  0.0000000  1.6038667  3
   1849   3740   3731   3733     1  0.0000000  1.6038667  3
   1850   1849   3740   3731     1  0.0000000  1.6038667  3
   1851   1849   3740   3731     1  0.0000000  1.6038667  3
   1852   3769   3760   3761     1  0.0000000  1.6038667  3
   1852   3769   3760   3762     1  0.0000000  1.6038667  3
   1853   1852   3769   3760     1  0.0000000  1.6038667  3
   1854   1852   3769   3760     1  0.0000000  1.6038667  3
   1856   1857   1869   1870     1  0.0000000  0.6508444  3
   1856   1857   1869   1871     1  0.0000000  0.6508444  3
   1856   1860   1872   1873     1  0.0000000  0.6508444  3
   1856   1860   1872   1874     1  0.0000000  0.6508444  3
   1856   1863   1866   1867     1  0.0000000  0.6508444  3
   1856   1863   1866   1868     1  0.0000000  0.6508444  3
   1857   1856   1860   1861     1  0.0000000  1.2552000  3
   1857   1856   1860   1862     1  0.0000000  1.2552000  3
   1857   1856   1863   1864     1  0.0000000  1.2552000  3
   1857   1856   1863   1865     1  0.0000000  1.2552000  3
   1857   1869   1881   1882     1  0.0000000  0.6508444  3
   1857   1869   1881   1883     1  0.0000000  0.6508444  3
   1858   1857   1856   1860     1  0.0000000  1.2552000  3
   1858   1857   1856   1863     1  0.0000000  1.2552000  3
   1858   1857   1869   1881     1  0.0000000  0.6508444  3
   1858   1857   1869   1870     1  0.0000000  0.6508444  3
   1858   1857   1869   1871     1  0.0000000  0.6508444  3
   1859   1857   1856   1860     1  0.0000000  1.2552000  3
   1859   1857   1856   1863     1  0.0000000  1.2552000  3
   1859   1857   1869   1881     1  0.0000000  0.6508444  3
   1859   1857   1869   1870     1  0.0000000  0.6508444  3
   1859   1857   1869   1871     1  0.0000000  0.6508444  3
   1860   1856   1863   1864     1  0.0000000  1.2552000  3
   1860   1856   1863   1865     1  0.0000000  1.2552000  3
   1860   1872   1878   1879     1  0.0000000  0.6508444  3
   1860   1872   1878   1880     1  0.0000000  0.6508444  3
   1861   1860   1856   1863     1  0.0000000  1.2552000  3
   1861   1860   1872   1878     1  0.0000000  0.6508444  3
   1861   1860   1872   1873     1  0.0000000  0.6508444  3
   1861   1860   1872   1874     1  0.0000000  0.6508444  3
   1862   1860   1856   1863     1  0.0000000  1.2552000  3
   1862   1860   1872   1878     1  0.0000000  0.6508444  3
   1862   1860   1872   1873     1  0.0000000  0.6508444  3
   1862   1860   1872   1874     1  0.0000000  0.6508444  3
   1863   1866   1875   1876     1  0.0000000  0.6508444  3
   1863   1866   1875   1877     1  0.0000000  0.6508444  3
   1864   1863   1866   1875     1  0.0000000  0.6508444  3
   1864   1863   1866   1867     1  0.0000000  0.6508444  3
   1864   1863   1866   1868     1  0.0000000  0.6508444  3
   1865   1863   1866   1875     1  0.0000000  0.6508444  3
   1865   1863   1866   1867     1  0.0000000  0.6508444  3
   1865   1863   1866   1868     1  0.0000000  0.6508444  3
   1867   1866   1875   1884     1  0.0000000  1.0460000  1
   1867   1866   1875   1884     1  0.0000000  0.0000000  3
   1867   1866   1875   1876     1  0.0000000  0.6508444  3
   1867   1866   1875   1877     1  0.0000000  0.6508444  3
   1868   1866   1875   1884     1  0.0000000  1.0460000  1
   1868   1866   1875   1884     1  0.0000000  0.0000000  3
   1868   1866   1875   1876     1  0.0000000  0.6508444  3
   1868   1866   1875   1877     1  0.0000000  0.6508444  3
   1870   1869   1881   3827     1  0.0000000  1.0460000  1
   1870   1869   1881   3827     1  0.0000000  0.0000000  3
   1870   1869   1881   1882     1  0.0000000  0.6508444  3
   1870   1869   1881   1883     1  0.0000000  0.6508444  3
   1871   1869   1881   3827     1  0.0000000  1.0460000  1
   1871   1869   1881   3827     1  0.0000000  0.0000000  3
   1871   1869   1881   1882     1  0.0000000  0.6508444  3
   1871   1869   1881   1883     1  0.0000000  0.6508444  3
   1873   1872   1878   3798     1  0.0000000  1.0460000  1
   1873   1872   1878   3798     1  0.0000000  0.0000000  3
   1873   1872   1878   1879     1  0.0000000  0.6508444  3
   1873   1872   1878   1880     1  0.0000000  0.6508444  3
   1874   1872   1878   3798     1  0.0000000  1.0460000  1
   1874   1872   1878   3798     1  0.0000000  0.0000000  3
   1874   1872   1878   1879     1  0.0000000  0.6508444  3
   1874   1872   1878   1880     1  0.0000000  0.6508444  3
   1878   3798   3789   3790     1  0.0000000  1.6038667  3
   1878   3798   3789   3791     1  0.0000000  1.6038667  3
   1879   1878   3798   3789     1  0.0000000  1.6038667  3
   1880   1878   3798   3789     1  0.0000000  1.6038667  3
   1881   3827   3818   3819     1  0.0000000  1.6038667  3
   1881   3827   3818   3820     1  0.0000000  1.6038667  3
   1882   1881   3827   3818     1  0.0000000  1.6038667  3
   1883   1881   3827   3818     1  0.0000000  1.6038667  3
   1885   1886   1898   1899     1  0.0000000  0.6508444  3
   1885   1886   1898   1900     1  0.0000000  0.6508444  3
   1885   1889   1901   1902     1  0.0000000  0.6508444  3
   1885   1889   1901   1903     1  0.0000000  0.6508444  3
   1885   1892   1895   1896     1  0.0000000  0.6508444  3
   1885   1892   1895   1897     1  0.0000000  0.6508444  3
   1886   1885   1889   1890     1  0.0000000  1.2552000  3
   1886   1885   1889   1891     1  0.0000000  1.2552000  3
   1886   1885   1892   1893     1  0.0000000  1.2552000  3
   1886   1885   1892   1894     1  0.0000000  1.2552000  3
   1886   1898   1910   1911     1  0.0000000  0.6508444  3
   1886   1898   1910   1912     1  0.0000000  0.6508444  3
   1887   1886   1885   1889     1  0.0000000  1.2552000  3
   1887   1886   1885   1892     1  0.0000000  1.2552000  3
   1887   1886   1898   1910     1  0.0000000  0.6508444  3
   1887   1886   1898   1899     1  0.0000000  0.6508444  3
   1887   1886   1898   1900     1  0.0000000  0.6508444  3
   1888   1886   1885   1889     1  0.0000000  1.2552000  3
   1888   1886   1885   1892     1  0.0000000  1.2552000  3
   1888   1886   1898   1910     1  0.0000000  0.6508444  3
   1888   1886   1898   1899     1  0.0000000  0.6508444  3
   1888   1886   1898   1900     1  0.0000000  0.6508444  3
   1889   1885   1892   1893     1  0.0000000  1.2552000  3
   1889   1885   1892   1894     1  0.0000000  1.2552000  3
   1889   1901   1907   1908     1  0.0000000  0.6508444  3
   1889   1901   1907   1909     1  0.0000000  0.6508444  3
   1890   1889   1885   1892     1  0.0000000  1.2552000  3
   1890   1889   1901   1907     1  0.0000000  0.6508444  3
   1890   1889   1901   1902     1  0.0000000  0.6508444  3
   1890   1889   1901   1903     1  0.0000000  0.6508444  3
   1891   1889   1885   1892     1  0.0000000  1.2552000  3
   1891   1889   1901   1907     1  0.0000000  0.6508444  3
   1891   1889   1901   1902     1  0.0000000  0.6508444  3
   1891   1889   1901   1903     1  0.0000000  0.6508444  3
   1892   1895   1904   1905     1  0.0000000  0.6508444  3
   1892   1895   1904   1906     1  0.0000000  0.6508444  3
   1893   1892   1895   1904     1  0.0000000  0.6508444  3
   1893   1892   1895   1896     1  0.0000000  0.6508444  3
   1893   1892   1895   1897     1  0.0000000  0.6508444  3
   1894   1892   1895   1904     1  0.0000000  0.6508444  3
   1894   1892   1895   1896     1  0.0000000  0.6508444  3
   1894   1892   1895   1897     1  0.0000000  0.6508444  3
   1896   1895   1904   1913     1  0.0000000  1.0460000  1
   1896   1895   1904   1913     1  0.0000000  0.0000000  3
   1896   1895   1904   1905     1  0.0000000  0.6508444  3
   1896   1895   1904   1906     1  0.0000000  0.6508444  3
   1897   1895   1904   1913     1  0.0000000  1.0460000  1
   1897   1895   1904   1913     1  0.0000000  0.0000000  3
   1897   1895   1904   1905     1  0.0000000  0.6508444  3
   1897   1895   1904   1906     1  0.0000000  0.6508444  3
   1899   1898   1910   3885     1  0.0000000  1.0460000  1
   1899   1898   1910   3885     1  0.0000000  0.0000000  3
   1899   1898   1910   1911     1  0.0000000  0.6508444  3
   1899   1898   1910   1912     1  0.0000000  0.6508444  3
   1900   1898   1910   3885     1  0.0000000  1.0460000  1
   1900   1898   1910   3885     1  0.0000000  0.0000000  3
   1900   1898   1910   1911     1  0.0000000  0.6508444  3
   1900   1898   1910   1912     1  0.0000000  0.6508444  3
   1902   1901   1907   3856     1  0.0000000  1.0460000  1
   1902   1901   1907   3856     1  0.0000000  0.0000000  3
   1902   1901   1907   1908     1  0.0000000  0.6508444  3
   1902   1901   1907   1909     1  0.0000000  0.6508444  3
   1903   1901   1907   3856     1  0.0000000  1.0460000  1
   1903   1901   1907   3856     1  0.0000000  0.0000000  3
   1903   1901   1907   1908     1  0.0000000  0.6508444  3
   1903   1901   1907   1909     1  0.0000000  0.6508444  3
   1907   3856   3847   3848     1  0.0000000  1.6038667  3
   1907   3856   3847   3849     1  0.0000000  1.6038667  3
   1908   1907   3856   3847     1  0.0000000  1.6038667  3
   1909   1907   3856   3847     1  0.0000000  1.6038667  3
   1910   3885   3876   3877     1  0.0000000  1.6038667  3
   1910   3885   3876   3878     1  0.0000000  1.6038667  3
   1911   1910   3885   3876     1  0.0000000  1.6038667  3
   1912   1910   3885   3876     1  0.0000000  1.6038667  3
   1914   1915   1927   1928     1  0.0000000  0.6508444  3
   1914   1915   1927   1929     1  0.0000000  0.6508444  3
   1914   1918   1930   1931     1  0.0000000  0.6508444  3
   1914   1918   1930   1932     1  0.0000000  0.6508444  3
   1914   1921   1924   1925     1  0.0000000  0.6508444  3
   1914   1921   1924   1926     1  0.0000000  0.6508444  3
   1915   1914   1918   1919     1  0.0000000  1.2552000  3
   1915   1914   1918   1920     1  0.0000000  1.2552000  3
   1915   1914   1921   1922     1  0.0000000  1.2552000  3
   1915   1914   1921   1923     1  0.0000000  1.2552000  3
   1915   1927   1939   1940     1  0.0000000  0.6508444  3
   1915   1927   1939   1941     1  0.0000000  0.6508444  3
   1916   1915   1914   1918     1  0.0000000  1.2552000  3
   1916   1915   1914   1921     1  0.0000000  1.2552000  3
   1916   1915   1927   1939     1  0.0000000  0.6508444  3
   1916   1915   1927   1928     1  0.0000000  0.6508444  3
   1916   1915   1927   1929     1  0.0000000  0.6508444  3
   1917   1915   1914   1918     1  0.0000000  1.2552000  3
   1917   1915   1914   1921     1  0.0000000  1.2552000  3
   1917   1915   1927   1939     1  0.0000000  0.6508444  3
   1917   1915   1927   1928     1  0.0000000  0.6508444  3
   1917   1915   1927   1929     1  0.0000000  0.6508444  3
   1918   1914   1921   1922     1  0.0000000  1.2552000  3
   1918   1914   1921   1923     1  0.0000000  1.2552000  3
   1918   1930   1936   1937     1  0.0000000  0.6508444  3
   1918   1930   1936   1938     1  0.0000000  0.6508444  3
   1919   1918   1914   1921     1  0.0000000  1.2552000  3
   1919   1918   1930   1936     1  0.0000000  0.6508444  3
   1919   1918   1930   1931     1  0.0000000  0.6508444  3
   1919   1918   1930   1932     1  0.0000000  0.6508444  3
   1920   1918   1914   1921     1  0.0000000  1.2552000  3
   1920   1918   1930   1936     1  0.0000000  0.6508444  3
   1920   1918   1930   1931     1  0.0000000  0.6508444  3
   1920   1918   1930   1932     1  0.0000000  0.6508444  3
   1921   1924   1933   1934     1  0.0000000  0.6508444  3
   1921   1924   1933   1935     1  0.0000000  0.6508444  3
   1922   1921   1924   1933     1  0.0000000  0.6508444  3
   1922   1921   1924   1925     1  0.0000000  0.6508444  3
   1922   1921   1924   1926     1  0.0000000  0.6508444  3
   1923   1921   1924   1933     1  0.0000000  0.6508444  3
   1923   1921   1924   1925     1  0.0000000  0.6508444  3
   1923   1921   1924   1926     1  0.0000000  0.6508444  3
   1925   1924   1933   1942     1  0.0000000  1.0460000  1
   1925   1924   1933   1942     1  0.0000000  0.0000000  3
   1925   1924   1933   1934     1  0.0000000  0.6508444  3
   1925   1924   1933   1935     1  0.0000000  0.6508444  3
   1926   1924   1933   1942     1  0.0000000  1.0460000  1
   1926   1924   1933   1942     1  0.0000000  0.0000000  3
   1926   1924   1933   1934     1  0.0000000  0.6508444  3
   1926   1924   1933   1935     1  0.0000000  0.6508444  3
   1928   1927   1939   3943     1  0.0000000  1.0460000  1
   1928   1927   1939   3943     1  0.0000000  0.0000000  3
   1928   1927   1939   1940     1  0.0000000  0.6508444  3
   1928   1927   1939   1941     1  0.0000000  0.6508444  3
   1929   1927   1939   3943     1  0.0000000  1.0460000  1
   1929   1927   1939   3943     1  0.0000000  0.0000000  3
   1929   1927   1939   1940     1  0.0000000  0.6508444  3
   1929   1927   1939   1941     1  0.0000000  0.6508444  3
   1931   1930   1936   3914     1  0.0000000  1.0460000  1
   1931   1930   1936   3914     1  0.0000000  0.0000000  3
   1931   1930   1936   1937     1  0.0000000  0.6508444  3
   1931   1930   1936   1938     1  0.0000000  0.6508444  3
   1932   1930   1936   3914     1  0.0000000  1.0460000  1
   1932   1930   1936   3914     1  0.0000000  0.0000000  3
   1932   1930   1936   1937     1  0.0000000  0.6508444  3
   1932   1930   1936   1938     1  0.0000000  0.6508444  3
   1936   3914   3905   3906     1  0.0000000  1.6038667  3
   1936   3914   3905   3907     1  0.0000000  1.6038667  3
   1937   1936   3914   3905     1  0.0000000  1.6038667  3
   1938   1936   3914   3905     1  0.0000000  1.6038667  3
   1939   3943   3934   3935     1  0.0000000  1.6038667  3
   1939   3943   3934   3936     1  0.0000000  1.6038667  3
   1940   1939   3943   3934     1  0.0000000  1.6038667  3
   1941   1939   3943   3934     1  0.0000000  1.6038667  3
   1943   1944   1956   1957     1  0.0000000  0.6508444  3
   1943   1944   1956   1958     1  0.0000000  0.6508444  3
   1943   1947   1959   1960     1  0.0000000  0.6508444  3
   1943   1947   1959   1961     1  0.0000000  0.6508444  3
   1943   1950   1953   1954     1  0.0000000  0.6508444  3
   1943   1950   1953   1955     1  0.0000000  0.6508444  3
   1944   1943   1947   1948     1  0.0000000  1.2552000  3
   1944   1943   1947   1949     1  0.0000000  1.2552000  3
   1944   1943   1950   1951     1  0.0000000  1.2552000  3
   1944   1943   1950   1952     1  0.0000000  1.2552000  3
   1944   1956   1968   1969     1  0.0000000  0.6508444  3
   1944   1956   1968   1970     1  0.0000000  0.6508444  3
   1945   1944   1943   1947     1  0.0000000  1.2552000  3
   1945   1944   1943   1950     1  0.0000000  1.2552000  3
   1945   1944   1956   1968     1  0.0000000  0.6508444  3
   1945   1944   1956   1957     1  0.0000000  0.6508444  3
   1945   1944   1956   1958     1  0.0000000  0.6508444  3
   1946   1944   1943   1947     1  0.0000000  1.2552000  3
   1946   1944   1943   1950     1  0.0000000  1.2552000  3
   1946   1944   1956   1968     1  0.0000000  0.6508444  3
   1946   1944   1956   1957     1  0.0000000  0.6508444  3
   1946   1944   1956   1958     1  0.0000000  0.6508444  3
   1947   1943   1950   1951     1  0.0000000  1.2552000  3
   1947   1943   1950   1952     1  0.0000000  1.2552000  3
   1947   1959   1965   1966     1  0.0000000  0.6508444  3
   1947   1959   1965   1967     1  0.0000000  0.6508444  3
   1948   1947   1943   1950     1  0.0000000  1.2552000  3
   1948   1947   1959   1965     1  0.0000000  0.6508444  3
   1948   1947   1959   1960     1  0.0000000  0.6508444  3
   1948   1947   1959   1961     1  0.0000000  0.6508444  3
   1949   1947   1943   1950     1  0.0000000  1.2552000  3
   1949   1947   1959   1965     1  0.0000000  0.6508444  3
   1949   1947   1959   1960     1  0.0000000  0.6508444  3
   1949   1947   1959   1961     1  0.0000000  0.6508444  3
   1950   1953   1962   1963     1  0.0000000  0.6508444  3
   1950   1953   1962   1964     1  0.0000000  0.6508444  3
   1951   1950   1953   1962     1  0.0000000  0.6508444  3
   1951   1950   1953   1954     1  0.0000000  0.6508444  3
   1951   1950   1953   1955     1  0.0000000  0.6508444  3
   1952   1950   1953   1962     1  0.0000000  0.6508444  3
   1952   1950   1953   1954     1  0.0000000  0.6508444  3
   1952   1950   1953   1955     1  0.0000000  0.6508444  3
   1954   1953   1962   1971     1  0.0000000  1.0460000  1
   1954   1953   1962   1971     1  0.0000000  0.0000000  3
   1954   1953   1962   1963     1  0.0000000  0.6508444  3
   1954   1953   1962   1964     1  0.0000000  0.6508444  3
   1955   1953   1962   1971     1  0.0000000  1.0460000  1
   1955   1953   1962   1971     1  0.0000000  0.0000000  3
   1955   1953   1962   1963     1  0.0000000  0.6508444  3
   1955   1953   1962   1964     1  0.0000000  0.6508444  3
   1957   1956   1968   4001     1  0.0000000  1.0460000  1
   1957   1956   1968   4001     1  0.0000000  0.0000000  3
   1957   1956   1968   1969     1  0.0000000  0.6508444  3
   1957   1956   1968   1970     1  0.0000000  0.6508444  3
   1958   1956   1968   4001     1  0.0000000  1.0460000  1
   1958   1956   1968   4001     1  0.0000000  0.0000000  3
   1958   1956   1968   1969     1  0.0000000  0.6508444  3
   1958   1956   1968   1970     1  0.0000000  0.6508444  3
   1960   1959   1965   3972     1  0.0000000  1.0460000  1
   1960   1959   1965   3972     1  0.0000000  0.0000000  3
   1960   1959   1965   1966     1  0.0000000  0.6508444  3
   1960   1959   1965   1967     1  0.0000000  0.6508444  3
   1961   1959   1965   3972     1  0.0000000  1.0460000  1
   1961   1959   1965   3972     1  0.0000000  0.0000000  3
   1961   1959   1965   1966     1  0.0000000  0.6508444  3
   1961   1959   1965   1967     1  0.0000000  0.6508444  3
   1965   3972   3963   3964     1  0.0000000  1.6038667  3
   1965   3972   3963   3965     1  0.0000000  1.6038667  3
   1966   1965   3972   3963     1  0.0000000  1.6038667  3
   1967   1965   3972   3963     1  0.0000000  1.6038667  3
   1968   4001   3992   3993     1  0.0000000  1.6038667  3
   1968   4001   3992   3994     1  0.0000000  1.6038667  3
   1969   1968   4001   3992     1  0.0000000  1.6038667  3
   1970   1968   4001   3992     1  0.0000000  1.6038667  3
   1972   1973   1985   1986     1  0.0000000  0.6508444  3
   1972   1973   1985   1987     1  0.0000000  0.6508444  3
   1972   1976   1988   1989     1  0.0000000  0.6508444  3
   1972   1976   1988   1990     1  0.0000000  0.6508444  3
   1972   1979   1982   1983     1  0.0000000  0.6508444  3
   1972   1979   1982   1984     1  0.0000000  0.6508444  3
   1973   1972   1976   1977     1  0.0000000  1.2552000  3
   1973   1972   1976   1978     1  0.0000000  1.2552000  3
   1973   1972   1979   1980     1  0.0000000  1.2552000  3
   1973   1972   1979   1981     1  0.0000000  1.2552000  3
   1973   1985   1997   1998     1  0.0000000  0.6508444  3
   1973   1985   1997   1999     1  0.0000000  0.6508444  3
   1974   1973   1972   1976     1  0.0000000  1.2552000  3
   1974   1973   1972   1979     1  0.0000000  1.2552000  3
   1974   1973   1985   1997     1  0.0000000  0.6508444  3
   1974   1973   1985   1986     1  0.0000000  0.6508444  3
   1974   1973   1985   1987     1  0.0000000  0.6508444  3
   1975   1973   1972   1976     1  0.0000000  1.2552000  3
   1975   1973   1972   1979     1  0.0000000  1.2552000  3
   1975   1973   1985   1997     1  0.0000000  0.6508444  3
   1975   1973   1985   1986     1  0.0000000  0.6508444  3
   1975   1973   1985   1987     1  0.0000000  0.6508444  3
   1976   1972   1979   1980     1  0.0000000  1.2552000  3
   1976   1972   1979   1981     1  0.0000000  1.2552000  3
   1976   1988   1994   1995     1  0.0000000  0.6508444  3
   1976   1988   1994   1996     1  0.0000000  0.6508444  3
   1977   1976   1972   1979     1  0.0000000  1.2552000  3
   1977   1976   1988   1994     1  0.0000000  0.6508444  3
   1977   1976   1988   1989     1  0.0000000  0.6508444  3
   1977   1976   1988   1990     1  0.0000000  0.6508444  3
   1978   1976   1972   1979     1  0.0000000  1.2552000  3
   1978   1976   1988   1994     1  0.0000000  0.6508444  3
   1978   1976   1988   1989     1  0.0000000  0.6508444  3
   1978   1976   1988   1990     1  0.0000000  0.6508444  3
   1979   1982   1991   1992     1  0.0000000  0.6508444  3
   1979   1982   1991   1993     1  0.0000000  0.6508444  3
   1980   1979   1982   1991     1  0.0000000  0.6508444  3
   1980   1979   1982   1983     1  0.0000000  0.6508444  3
   1980   1979   1982   1984     1  0.0000000  0.6508444  3
   1981   1979   1982   1991     1  0.0000000  0.6508444  3
   1981   1979   1982   1983     1  0.0000000  0.6508444  3
   1981   1979   1982   1984     1  0.0000000  0.6508444  3
   1983   1982   1991   2000     1  0.0000000  1.0460000  1
   1983   1982   1991   2000     1  0.0000000  0.0000000  3
   1983   1982   1991   1992     1  0.0000000  0.6508444  3
   1983   1982   1991   1993     1  0.0000000  0.6508444  3
   1984   1982   1991   2000     1  0.0000000  1.0460000  1
   1984   1982   1991   2000     1  0.0000000  0.0000000  3
   1984   1982   1991   1992     1  0.0000000  0.6508444  3
   1984   1982   1991   1993     1  0.0000000  0.6508444  3
   1986   1985   1997   4059     1  0.0000000  1.0460000  1
   1986   1985   1997   4059     1  0.0000000  0.0000000  3
   1986   1985   1997   1998     1  0.0000000  0.6508444  3
   1986   1985   1997   1999     1  0.0000000  0.6508444  3
   1987   1985   1997   4059     1  0.0000000  1.0460000  1
   1987   1985   1997   4059     1  0.0000000  0.0000000  3
   1987   1985   1997   1998     1  0.0000000  0.6508444  3
   1987   1985   1997   1999     1  0.0000000  0.6508444  3
   1989   1988   1994   4030     1  0.0000000  1.0460000  1
   1989   1988   1994   4030     1  0.0000000  0.0000000  3
   1989   1988   1994   1995     1  0.0000000  0.6508444  3
   1989   1988   1994   1996     1  0.0000000  0.6508444  3
   1990   1988   1994   4030     1  0.0000000  1.0460000  1
   1990   1988   1994   4030     1  0.0000000  0.0000000  3
   1990   1988   1994   1995     1  0.0000000  0.6508444  3
   1990   1988   1994   1996     1  0.0000000  0.6508444  3
   1994   4030   4021   4022     1  0.0000000  1.6038667  3
   1994   4030   4021   4023     1  0.0000000  1.6038667  3
   1995   1994   4030   4021     1  0.0000000  1.6038667  3
   1996   1994   4030   4021     1  0.0000000  1.6038667  3
   1997   4059   4050   4051     1  0.0000000  1.6038667  3
   1997   4059   4050   4052     1  0.0000000  1.6038667  3
   1998   1997   4059   4050     1  0.0000000  1.6038667  3
   1999   1997   4059   4050     1  0.0000000  1.6038667  3
   2001   2002   2014   2015     1  0.0000000  0.6508444  3
   2001   2002   2014   2016     1  0.0000000  0.6508444  3
   2001   2005   2017   2018     1  0.0000000  0.6508444  3
   2001   2005   2017   2019     1  0.0000000  0.6508444  3
   2001   2008   2011   2012     1  0.0000000  0.6508444  3
   2001   2008   2011   2013     1  0.0000000  0.6508444  3
   2002   2001   2005   2006     1  0.0000000  1.2552000  3
   2002   2001   2005   2007     1  0.0000000  1.2552000  3
   2002   2001   2008   2009     1  0.0000000  1.2552000  3
   2002   2001   2008   2010     1  0.0000000  1.2552000  3
   2002   2014   2026   2027     1  0.0000000  0.6508444  3
   2002   2014   2026   2028     1  0.0000000  0.6508444  3
   2003   2002   2001   2005     1  0.0000000  1.2552000  3
   2003   2002   2001   2008     1  0.0000000  1.2552000  3
   2003   2002   2014   2026     1  0.0000000  0.6508444  3
   2003   2002   2014   2015     1  0.0000000  0.6508444  3
   2003   2002   2014   2016     1  0.0000000  0.6508444  3
   2004   2002   2001   2005     1  0.0000000  1.2552000  3
   2004   2002   2001   2008     1  0.0000000  1.2552000  3
   2004   2002   2014   2026     1  0.0000000  0.6508444  3
   2004   2002   2014   2015     1  0.0000000  0.6508444  3
   2004   2002   2014   2016     1  0.0000000  0.6508444  3
   2005   2001   2008   2009     1  0.0000000  1.2552000  3
   2005   2001   2008   2010     1  0.0000000  1.2552000  3
   2005   2017   2023   2024     1  0.0000000  0.6508444  3
   2005   2017   2023   2025     1  0.0000000  0.6508444  3
   2006   2005   2001   2008     1  0.0000000  1.2552000  3
   2006   2005   2017   2023     1  0.0000000  0.6508444  3
   2006   2005   2017   2018     1  0.0000000  0.6508444  3
   2006   2005   2017   2019     1  0.0000000  0.6508444  3
   2007   2005   2001   2008     1  0.0000000  1.2552000  3
   2007   2005   2017   2023     1  0.0000000  0.6508444  3
   2007   2005   2017   2018     1  0.0000000  0.6508444  3
   2007   2005   2017   2019     1  0.0000000  0.6508444  3
   2008   2011   2020   2021     1  0.0000000  0.6508444  3
   2008   2011   2020   2022     1  0.0000000  0.6508444  3
   2009   2008   2011   2020     1  0.0000000  0.6508444  3
   2009   2008   2011   2012     1  0.0000000  0.6508444  3
   2009   2008   2011   2013     1  0.0000000  0.6508444  3
   2010   2008   2011   2020     1  0.0000000  0.6508444  3
   2010   2008   2011   2012     1  0.0000000  0.6508444  3
   2010   2008   2011   2013     1  0.0000000  0.6508444  3
   2012   2011   2020   2029     1  0.0000000  1.0460000  1
   2012   2011   2020   2029     1  0.0000000  0.0000000  3
   2012   2011   2020   2021     1  0.0000000  0.6508444  3
   2012   2011   2020   2022     1  0.0000000  0.6508444  3
   2013   2011   2020   2029     1  0.0000000  1.0460000  1
   2013   2011   2020   2029     1  0.0000000  0.0000000  3
   2013   2011   2020   2021     1  0.0000000  0.6508444  3
   2013   2011   2020   2022     1  0.0000000  0.6508444  3
   2015   2014   2026   4117     1  0.0000000  1.0460000  1
   2015   2014   2026   4117     1  0.0000000  0.0000000  3
   2015   2014   2026   2027     1  0.0000000  0.6508444  3
   2015   2014   2026   2028     1  0.0000000  0.6508444  3
   2016   2014   2026   4117     1  0.0000000  1.0460000  1
   2016   2014   2026   4117     1  0.0000000  0.0000000  3
   2016   2014   2026   2027     1  0.0000000  0.6508444  3
   2016   2014   2026   2028     1  0.0000000  0.6508444  3
   2018   2017   2023   4088     1  0.0000000  1.0460000  1
   2018   2017   2023   4088     1  0.0000000  0.0000000  3
   2018   2017   2023   2024     1  0.0000000  0.6508444  3
   2018   2017   2023   2025     1  0.0000000  0.6508444  3
   2019   2017   2023   4088     1  0.0000000  1.0460000  1
   2019   2017   2023   4088     1  0.0000000  0.0000000  3
   2019   2017   2023   2024     1  0.0000000  0.6508444  3
   2019   2017   2023   2025     1  0.0000000  0.6508444  3
   2023   4088   4079   4080     1  0.0000000  1.6038667  3
   2023   4088   4079   4081     1  0.0000000  1.6038667  3
   2024   2023   4088   4079     1  0.0000000  1.6038667  3
   2025   2023   4088   4079     1  0.0000000  1.6038667  3
   2026   4117   4108   4109     1  0.0000000  1.6038667  3
   2026   4117   4108   4110     1  0.0000000  1.6038667  3
   2027   2026   4117   4108     1  0.0000000  1.6038667  3
   2028   2026   4117   4108     1  0.0000000  1.6038667  3
   2030   2031   2043   2044     1  0.0000000  0.6508444  3
   2030   2031   2043   2045     1  0.0000000  0.6508444  3
   2030   2034   2046   2047     1  0.0000000  0.6508444  3
   2030   2034   2046   2048     1  0.0000000  0.6508444  3
   2030   2037   2040   2041     1  0.0000000  0.6508444  3
   2030   2037   2040   2042     1  0.0000000  0.6508444  3
   2031   2030   2034   2035     1  0.0000000  1.2552000  3
   2031   2030   2034   2036     1  0.0000000  1.2552000  3
   2031   2030   2037   2038     1  0.0000000  1.2552000  3
   2031   2030   2037   2039     1  0.0000000  1.2552000  3
   2031   2043   2055   2056     1  0.0000000  0.6508444  3
   2031   2043   2055   2057     1  0.0000000  0.6508444  3
   2032   2031   2030   2034     1  0.0000000  1.2552000  3
   2032   2031   2030   2037     1  0.0000000  1.2552000  3
   2032   2031   2043   2055     1  0.0000000  0.6508444  3
   2032   2031   2043   2044     1  0.0000000  0.6508444  3
   2032   2031   2043   2045     1  0.0000000  0.6508444  3
   2033   2031   2030   2034     1  0.0000000  1.2552000  3
   2033   2031   2030   2037     1  0.0000000  1.2552000  3
   2033   2031   2043   2055     1  0.0000000  0.6508444  3
   2033   2031   2043   2044     1  0.0000000  0.6508444  3
   2033   2031   2043   2045     1  0.0000000  0.6508444  3
   2034   2030   2037   2038     1  0.0000000  1.2552000  3
   2034   2030   2037   2039     1  0.0000000  1.2552000  3
   2034   2046   2052   2053     1  0.0000000  0.6508444  3
   2034   2046   2052   2054     1  0.0000000  0.6508444  3
   2035   2034   2030   2037     1  0.0000000  1.2552000  3
   2035   2034   2046   2052     1  0.0000000  0.6508444  3
   2035   2034   2046   2047     1  0.0000000  0.6508444  3
   2035   2034   2046   2048     1  0.0000000  0.6508444  3
   2036   2034   2030   2037     1  0.0000000  1.2552000  3
   2036   2034   2046   2052     1  0.0000000  0.6508444  3
   2036   2034   2046   2047     1  0.0000000  0.6508444  3
   2036   2034   2046   2048     1  0.0000000  0.6508444  3
   2037   2040   2049   2050     1  0.0000000  0.6508444  3
   2037   2040   2049   2051     1  0.0000000  0.6508444  3
   2038   2037   2040   2049     1  0.0000000  0.6508444  3
   2038   2037   2040   2041     1  0.0000000  0.6508444  3
   2038   2037   2040   2042     1  0.0000000  0.6508444  3
   2039   2037   2040   2049     1  0.0000000  0.6508444  3
   2039   2037   2040   2041     1  0.0000000  0.6508444  3
   2039   2037   2040   2042     1  0.0000000  0.6508444  3
   2041   2040   2049   2058     1  0.0000000  1.0460000  1
   2041   2040   2049   2058     1  0.0000000  0.0000000  3
   2041   2040   2049   2050     1  0.0000000  0.6508444  3
   2041   2040   2049   2051     1  0.0000000  0.6508444  3
   2042   2040   2049   2058     1  0.0000000  1.0460000  1
   2042   2040   2049   2058     1  0.0000000  0.0000000  3
   2042   2040   2049   2050     1  0.0000000  0.6508444  3
   2042   2040   2049   2051     1  0.0000000  0.6508444  3
   2044   2043   2055   4175     1  0.0000000  1.0460000  1
   2044   2043   2055   4175     1  0.0000000  0.0000000  3
   2044   2043   2055   2056     1  0.0000000  0.6508444  3
   2044   2043   2055   2057     1  0.0000000  0.6508444  3
   2045   2043   2055   4175     1  0.0000000  1.0460000  1
   2045   2043   2055   4175     1  0.0000000  0.0000000  3
   2045   2043   2055   2056     1  0.0000000  0.6508444  3
   2045   2043   2055   2057     1  0.0000000  0.6508444  3
   2047   2046   2052   4146     1  0.0000000  1.0460000  1
   2047   2046   2052   4146     1  0.0000000  0.0000000  3
   2047   2046   2052   2053     1  0.0000000  0.6508444  3
   2047   2046   2052   2054     1  0.0000000  0.6508444  3
   2048   2046   2052   4146     1  0.0000000  1.0460000  1
   2048   2046   2052   4146     1  0.0000000  0.0000000  3
   2048   2046   2052   2053     1  0.0000000  0.6508444  3
   2048   2046   2052   2054     1  0.0000000  0.6508444  3
   2052   4146   4137   4138     1  0.0000000  1.6038667  3
   2052   4146   4137   4139     1  0.0000000  1.6038667  3
   2053   2052   4146   4137     1  0.0000000  1.6038667  3
   2054   2052   4146   4137     1  0.0000000  1.6038667  3
   2055   4175   4166   4167     1  0.0000000  1.6038667  3
   2055   4175   4166   4168     1  0.0000000  1.6038667  3
   2056   2055   4175   4166     1  0.0000000  1.6038667  3
   2057   2055   4175   4166     1  0.0000000  1.6038667  3
   2059   2060   2072   2073     1  0.0000000  0.6508444  3
   2059   2060   2072   2074     1  0.0000000  0.6508444  3
   2059   2063   2075   2076     1  0.0000000  0.6508444  3
   2059   2063   2075   2077     1  0.0000000  0.6508444  3
   2059   2066   2069   2070     1  0.0000000  0.6508444  3
   2059   2066   2069   2071     1  0.0000000  0.6508444  3
   2060   2059   2063   2064     1  0.0000000  1.2552000  3
   2060   2059   2063   2065     1  0.0000000  1.2552000  3
   2060   2059   2066   2067     1  0.0000000  1.2552000  3
   2060   2059   2066   2068     1  0.0000000  1.2552000  3
   2060   2072   2084   2085     1  0.0000000  0.6508444  3
   2060   2072   2084   2086     1  0.0000000  0.6508444  3
   2061   2060   2059   2063     1  0.0000000  1.2552000  3
   2061   2060   2059   2066     1  0.0000000  1.2552000  3
   2061   2060   2072   2084     1  0.0000000  0.6508444  3
   2061   2060   2072   2073     1  0.0000000  0.6508444  3
   2061   2060   2072   2074     1  0.0000000  0.6508444  3
   2062   2060   2059   2063     1  0.0000000  1.2552000  3
   2062   2060   2059   2066     1  0.0000000  1.2552000  3
   2062   2060   2072   2084     1  0.0000000  0.6508444  3
   2062   2060   2072   2073     1  0.0000000  0.6508444  3
   2062   2060   2072   2074     1  0.0000000  0.6508444  3
   2063   2059   2066   2067     1  0.0000000  1.2552000  3
   2063   2059   2066   2068     1  0.0000000  1.2552000  3
   2063   2075   2081   2082     1  0.0000000  0.6508444  3
   2063   2075   2081   2083     1  0.0000000  0.6508444  3
   2064   2063   2059   2066     1  0.0000000  1.2552000  3
   2064   2063   2075   2081     1  0.0000000  0.6508444  3
   2064   2063   2075   2076     1  0.0000000  0.6508444  3
   2064   2063   2075   2077     1  0.0000000  0.6508444  3
   2065   2063   2059   2066     1  0.0000000  1.2552000  3
   2065   2063   2075   2081     1  0.0000000  0.6508444  3
   2065   2063   2075   2076     1  0.0000000  0.6508444  3
   2065   2063   2075   2077     1  0.0000000  0.6508444  3
   2066   2069   2078   2079     1  0.0000000  0.6508444  3
   2066   2069   2078   2080     1  0.0000000  0.6508444  3
   2067   2066   2069   2078     1  0.0000000  0.6508444  3
   2067   2066   2069   2070     1  0.0000000  0.6508444  3
   2067   2066   2069   2071     1  0.0000000  0.6508444  3
   2068   2066   2069   2078     1  0.0000000  0.6508444  3
   2068   2066   2069   2070     1  0.0000000  0.6508444  3
   2068   2066   2069   2071     1  0.0000000  0.6508444  3
   2070   2069   2078   2087     1  0.0000000  1.0460000  1
   2070   2069   2078   2087     1  0.0000000  0.0000000  3
   2070   2069   2078   2079     1  0.0000000  0.6508444  3
   2070   2069   2078   2080     1  0.0000000  0.6508444  3
   2071   2069   2078   2087     1  0.0000000  1.0460000  1
   2071   2069   2078   2087     1  0.0000000  0.0000000  3
   2071   2069   2078   2079     1  0.0000000  0.6508444  3
   2071   2069   2078   2080     1  0.0000000  0.6508444  3
   2073   2072   2084   4233     1  0.0000000  1.0460000  1
   2073   2072   2084   4233     1  0.0000000  0.0000000  3
   2073   2072   2084   2085     1  0.0000000  0.6508444  3
   2073   2072   2084   2086     1  0.0000000  0.6508444  3
   2074   2072   2084   4233     1  0.0000000  1.0460000  1
   2074   2072   2084   4233     1  0.0000000  0.0000000  3
   2074   2072   2084   2085     1  0.0000000  0.6508444  3
   2074   2072   2084   2086     1  0.0000000  0.6508444  3
   2076   2075   2081   4204     1  0.0000000  1.0460000  1
   2076   2075   2081   4204     1  0.0000000  0.0000000  3
   2076   2075   2081   2082     1  0.0000000  0.6508444  3
   2076   2075   2081   2083     1  0.0000000  0.6508444  3
   2077   2075   2081   4204     1  0.0000000  1.0460000  1
   2077   2075   2081   4204     1  0.0000000  0.0000000  3
   2077   2075   2081   2082     1  0.0000000  0.6508444  3
   2077   2075   2081   2083     1  0.0000000  0.6508444  3
   2081   4204   4195   4196     1  0.0000000  1.6038667  3
   2081   4204   4195   4197     1  0.0000000  1.6038667  3
   2082   2081   4204   4195     1  0.0000000  1.6038667  3
   2083   2081   4204   4195     1  0.0000000  1.6038667  3
   2084   4233   4224   4225     1  0.0000000  1.6038667  3
   2084   4233   4224   4226     1  0.0000000  1.6038667  3
   2085   2084   4233   4224     1  0.0000000  1.6038667  3
   2086   2084   4233   4224     1  0.0000000  1.6038667  3
   2088   2089   2101   2102     1  0.0000000  0.6508444  3
   2088   2089   2101   2103     1  0.0000000  0.6508444  3
   2088   2092   2104   2105     1  0.0000000  0.6508444  3
   2088   2092   2104   2106     1  0.0000000  0.6508444  3
   2088   2095   2098   2099     1  0.0000000  0.6508444  3
   2088   2095   2098   2100     1  0.0000000  0.6508444  3
   2089   2088   2092   2093     1  0.0000000  1.2552000  3
   2089   2088   2092   2094     1  0.0000000  1.2552000  3
   2089   2088   2095   2096     1  0.0000000  1.2552000  3
   2089   2088   2095   2097     1  0.0000000  1.2552000  3
   2089   2101   2113   2114     1  0.0000000  0.6508444  3
   2089   2101   2113   2115     1  0.0000000  0.6508444  3
   2090   2089   2088   2092     1  0.0000000  1.2552000  3
   2090   2089   2088   2095     1  0.0000000  1.2552000  3
   2090   2089   2101   2113     1  0.0000000  0.6508444  3
   2090   2089   2101   2102     1  0.0000000  0.6508444  3
   2090   2089   2101   2103     1  0.0000000  0.6508444  3
   2091   2089   2088   2092     1  0.0000000  1.2552000  3
   2091   2089   2088   2095     1  0.0000000  1.2552000  3
   2091   2089   2101   2113     1  0.0000000  0.6508444  3
   2091   2089   2101   2102     1  0.0000000  0.6508444  3
   2091   2089   2101   2103     1  0.0000000  0.6508444  3
   2092   2088   2095   2096     1  0.0000000  1.2552000  3
   2092   2088   2095   2097     1  0.0000000  1.2552000  3
   2092   2104   2110   2111     1  0.0000000  0.6508444  3
   2092   2104   2110   2112     1  0.0000000  0.6508444  3
   2093   2092   2088   2095     1  0.0000000  1.2552000  3
   2093   2092   2104   2110     1  0.0000000  0.6508444  3
   2093   2092   2104   2105     1  0.0000000  0.6508444  3
   2093   2092   2104   2106     1  0.0000000  0.6508444  3
   2094   2092   2088   2095     1  0.0000000  1.2552000  3
   2094   2092   2104   2110     1  0.0000000  0.6508444  3
   2094   2092   2104   2105     1  0.0000000  0.6508444  3
   2094   2092   2104   2106     1  0.0000000  0.6508444  3
   2095   2098   2107   2108     1  0.0000000  0.6508444  3
   2095   2098   2107   2109     1  0.0000000  0.6508444  3
   2096   2095   2098   2107     1  0.0000000  0.6508444  3
   2096   2095   2098   2099     1  0.0000000  0.6508444  3
   2096   2095   2098   2100     1  0.0000000  0.6508444  3
   2097   2095   2098   2107     1  0.0000000  0.6508444  3
   2097   2095   2098   2099     1  0.0000000  0.6508444  3
   2097   2095   2098   2100     1  0.0000000  0.6508444  3
   2099   2098   2107   2116     1  0.0000000  1.0460000  1
   2099   2098   2107   2116     1  0.0000000  0.0000000  3
   2099   2098   2107   2108     1  0.0000000  0.6508444  3
   2099   2098   2107   2109     1  0.0000000  0.6508444  3
   2100   2098   2107   2116     1  0.0000000  1.0460000  1
   2100   2098   2107   2116     1  0.0000000  0.0000000  3
   2100   2098   2107   2108     1  0.0000000  0.6508444  3
   2100   2098   2107   2109     1  0.0000000  0.6508444  3
   2102   2101   2113   4291     1  0.0000000  1.0460000  1
   2102   2101   2113   4291     1  0.0000000  0.0000000  3
   2102   2101   2113   2114     1  0.0000000  0.6508444  3
   2102   2101   2113   2115     1  0.0000000  0.6508444  3
   2103   2101   2113   4291     1  0.0000000  1.0460000  1
   2103   2101   2113   4291     1  0.0000000  0.0000000  3
   2103   2101   2113   2114     1  0.0000000  0.6508444  3
   2103   2101   2113   2115     1  0.0000000  0.6508444  3
   2105   2104   2110   4262     1  0.0000000  1.0460000  1
   2105   2104   2110   4262     1  0.0000000  0.0000000  3
   2105   2104   2110   2111     1  0.0000000  0.6508444  3
   2105   2104   2110   2112     1  0.0000000  0.6508444  3
   2106   2104   2110   4262     1  0.0000000  1.0460000  1
   2106   2104   2110   4262     1  0.0000000  0.0000000  3
   2106   2104   2110   2111     1  0.0000000  0.6508444  3
   2106   2104   2110   2112     1  0.0000000  0.6508444  3
   2110   4262   4253   4254     1  0.0000000  1.6038667  3
   2110   4262   4253   4255     1  0.0000000  1.6038667  3
   2111   2110   4262   4253     1  0.0000000  1.6038667  3
   2112   2110   4262   4253     1  0.0000000  1.6038667  3
   2113   4291   4282   4283     1  0.0000000  1.6038667  3
   2113   4291   4282   4284     1  0.0000000  1.6038667  3
   2114   2113   4291   4282     1  0.0000000  1.6038667  3
   2115   2113   4291   4282     1  0.0000000  1.6038667  3
   2117   2118   2130   2131     1  0.0000000  0.6508444  3
   2117   2118   2130   2132     1  0.0000000  0.6508444  3
   2117   2121   2133   2134     1  0.0000000  0.6508444  3
   2117   2121   2133   2135     1  0.0000000  0.6508444  3
   2117   2124   2127   2128     1  0.0000000  0.6508444  3
   2117   2124   2127   2129     1  0.0000000  0.6508444  3
   2118   2117   2121   2122     1  0.0000000  1.2552000  3
   2118   2117   2121   2123     1  0.0000000  1.2552000  3
   2118   2117   2124   2125     1  0.0000000  1.2552000  3
   2118   2117   2124   2126     1  0.0000000  1.2552000  3
   2118   2130   2142   2143     1  0.0000000  0.6508444  3
   2118   2130   2142   2144     1  0.0000000  0.6508444  3
   2119   2118   2117   2121     1  0.0000000  1.2552000  3
   2119   2118   2117   2124     1  0.0000000  1.2552000  3
   2119   2118   2130   2142     1  0.0000000  0.6508444  3
   2119   2118   2130   2131     1  0.0000000  0.6508444  3
   2119   2118   2130   2132     1  0.0000000  0.6508444  3
   2120   2118   2117   2121     1  0.0000000  1.2552000  3
   2120   2118   2117   2124     1  0.0000000  1.2552000  3
   2120   2118   2130   2142     1  0.0000000  0.6508444  3
   2120   2118   2130   2131     1  0.0000000  0.6508444  3
   2120   2118   2130   2132     1  0.0000000  0.6508444  3
   2121   2117   2124   2125     1  0.0000000  1.2552000  3
   2121   2117   2124   2126     1  0.0000000  1.2552000  3
   2121   2133   2139   2140     1  0.0000000  0.6508444  3
   2121   2133   2139   2141     1  0.0000000  0.6508444  3
   2122   2121   2117   2124     1  0.0000000  1.2552000  3
   2122   2121   2133   2139     1  0.0000000  0.6508444  3
   2122   2121   2133   2134     1  0.0000000  0.6508444  3
   2122   2121   2133   2135     1  0.0000000  0.6508444  3
   2123   2121   2117   2124     1  0.0000000  1.2552000  3
   2123   2121   2133   2139     1  0.0000000  0.6508444  3
   2123   2121   2133   2134     1  0.0000000  0.6508444  3
   2123   2121   2133   2135     1  0.0000000  0.6508444  3
   2124   2127   2136   2137     1  0.0000000  0.6508444  3
   2124   2127   2136   2138     1  0.0000000  0.6508444  3
   2125   2124   2127   2136     1  0.0000000  0.6508444  3
   2125   2124   2127   2128     1  0.0000000  0.6508444  3
   2125   2124   2127   2129     1  0.0000000  0.6508444  3
   2126   2124   2127   2136     1  0.0000000  0.6508444  3
   2126   2124   2127   2128     1  0.0000000  0.6508444  3
   2126   2124   2127   2129     1  0.0000000  0.6508444  3
   2128   2127   2136   2145     1  0.0000000  1.0460000  1
   2128   2127   2136   2145     1  0.0000000  0.0000000  3
   2128   2127   2136   2137     1  0.0000000  0.6508444  3
   2128   2127   2136   2138     1  0.0000000  0.6508444  3
   2129   2127   2136   2145     1  0.0000000  1.0460000  1
   2129   2127   2136   2145     1  0.0000000  0.0000000  3
   2129   2127   2136   2137     1  0.0000000  0.6508444  3
   2129   2127   2136   2138     1  0.0000000  0.6508444  3
   2131   2130   2142   4349     1  0.0000000  1.0460000  1
   2131   2130   2142   4349     1  0.0000000  0.0000000  3
   2131   2130   2142   2143     1  0.0000000  0.6508444  3
   2131   2130   2142   2144     1  0.0000000  0.6508444  3
   2132   2130   2142   4349     1  0.0000000  1.0460000  1
   2132   2130   2142   4349     1  0.0000000  0.0000000  3
   2132   2130   2142   2143     1  0.0000000  0.6508444  3
   2132   2130   2142   2144     1  0.0000000  0.6508444  3
   2134   2133   2139   4320     1  0.0000000  1.0460000  1
   2134   2133   2139   4320     1  0.0000000  0.0000000  3
   2134   2133   2139   2140     1  0.0000000  0.6508444  3
   2134   2133   2139   2141     1  0.0000000  0.6508444  3
   2135   2133   2139   4320     1  0.0000000  1.0460000  1
   2135   2133   2139   4320     1  0.0000000  0.0000000  3
   2135   2133   2139   2140     1  0.0000000  0.6508444  3
   2135   2133   2139   2141     1  0.0000000  0.6508444  3
   2139   4320   4311   4312     1  0.0000000  1.6038667  3
   2139   4320   4311   4313     1  0.0000000  1.6038667  3
   2140   2139   4320   4311     1  0.0000000  1.6038667  3
   2141   2139   4320   4311     1  0.0000000  1.6038667  3
   2142   4349   4340   4341     1  0.0000000  1.6038667  3
   2142   4349   4340   4342     1  0.0000000  1.6038667  3
   2143   2142   4349   4340     1  0.0000000  1.6038667  3
   2144   2142   4349   4340     1  0.0000000  1.6038667  3
   2146   2147   2159   2160     1  0.0000000  0.6508444  3
   2146   2147   2159   2161     1  0.0000000  0.6508444  3
   2146   2150   2162   2163     1  0.0000000  0.6508444  3
   2146   2150   2162   2164     1  0.0000000  0.6508444  3
   2146   2153   2156   2157     1  0.0000000  0.6508444  3
   2146   2153   2156   2158     1  0.0000000  0.6508444  3
   2147   2146   2150   2151     1  0.0000000  1.2552000  3
   2147   2146   2150   2152     1  0.0000000  1.2552000  3
   2147   2146   2153   2154     1  0.0000000  1.2552000  3
   2147   2146   2153   2155     1  0.0000000  1.2552000  3
   2147   2159   2171   2172     1  0.0000000  0.6508444  3
   2147   2159   2171   2173     1  0.0000000  0.6508444  3
   2148   2147   2146   2150     1  0.0000000  1.2552000  3
   2148   2147   2146   2153     1  0.0000000  1.2552000  3
   2148   2147   2159   2171     1  0.0000000  0.6508444  3
   2148   2147   2159   2160     1  0.0000000  0.6508444  3
   2148   2147   2159   2161     1  0.0000000  0.6508444  3
   2149   2147   2146   2150     1  0.0000000  1.2552000  3
   2149   2147   2146   2153     1  0.0000000  1.2552000  3
   2149   2147   2159   2171     1  0.0000000  0.6508444  3
   2149   2147   2159   2160     1  0.0000000  0.6508444  3
   2149   2147   2159   2161     1  0.0000000  0.6508444  3
   2150   2146   2153   2154     1  0.0000000  1.2552000  3
   2150   2146   2153   2155     1  0.0000000  1.2552000  3
   2150   2162   2168   2169     1  0.0000000  0.6508444  3
   2150   2162   2168   2170     1  0.0000000  0.6508444  3
   2151   2150   2146   2153     1  0.0000000  1.2552000  3
   2151   2150   2162   2168     1  0.0000000  0.6508444  3
   2151   2150   2162   2163     1  0.0000000  0.6508444  3
   2151   2150   2162   2164     1  0.0000000  0.6508444  3
   2152   2150   2146   2153     1  0.0000000  1.2552000  3
   2152   2150   2162   2168     1  0.0000000  0.6508444  3
   2152   2150   2162   2163     1  0.0000000  0.6508444  3
   2152   2150   2162   2164     1  0.0000000  0.6508444  3
   2153   2156   2165   2166     1  0.0000000  0.6508444  3
   2153   2156   2165   2167     1  0.0000000  0.6508444  3
   2154   2153   2156   2165     1  0.0000000  0.6508444  3
   2154   2153   2156   2157     1  0.0000000  0.6508444  3
   2154   2153   2156   2158     1  0.0000000  0.6508444  3
   2155   2153   2156   2165     1  0.0000000  0.6508444  3
   2155   2153   2156   2157     1  0.0000000  0.6508444  3
   2155   2153   2156   2158     1  0.0000000  0.6508444  3
   2157   2156   2165   2174     1  0.0000000  1.0460000  1
   2157   2156   2165   2174     1  0.0000000  0.0000000  3
   2157   2156   2165   2166     1  0.0000000  0.6508444  3
   2157   2156   2165   2167     1  0.0000000  0.6508444  3
   2158   2156   2165   2174     1  0.0000000  1.0460000  1
   2158   2156   2165   2174     1  0.0000000  0.0000000  3
   2158   2156   2165   2166     1  0.0000000  0.6508444  3
   2158   2156   2165   2167     1  0.0000000  0.6508444  3
   2160   2159   2171   4407     1  0.0000000  1.0460000  1
   2160   2159   2171   4407     1  0.0000000  0.0000000  3
   2160   2159   2171   2172     1  0.0000000  0.6508444  3
   2160   2159   2171   2173     1  0.0000000  0.6508444  3
   2161   2159   2171   4407     1  0.0000000  1.0460000  1
   2161   2159   2171   4407     1  0.0000000  0.0000000  3
   2161   2159   2171   2172     1  0.0000000  0.6508444  3
   2161   2159   2171   2173     1  0.0000000  0.6508444  3
   2163   2162   2168   4378     1  0.0000000  1.0460000  1
   2163   2162   2168   4378     1  0.0000000  0.0000000  3
   2163   2162   2168   2169     1  0.0000000  0.6508444  3
   2163   2162   2168   2170     1  0.0000000  0.6508444  3
   2164   2162   2168   4378     1  0.0000000  1.0460000  1
   2164   2162   2168   4378     1  0.0000000  0.0000000  3
   2164   2162   2168   2169     1  0.0000000  0.6508444  3
   2164   2162   2168   2170     1  0.0000000  0.6508444  3
   2168   4378   4369   4370     1  0.0000000  1.6038667  3
   2168   4378   4369   4371     1  0.0000000  1.6038667  3
   2169   2168   4378   4369     1  0.0000000  1.6038667  3
   2170   2168   4378   4369     1  0.0000000  1.6038667  3
   2171   4407   4398   4399     1  0.0000000  1.6038667  3
   2171   4407   4398   4400     1  0.0000000  1.6038667  3
   2172   2171   4407   4398     1  0.0000000  1.6038667  3
   2173   2171   4407   4398     1  0.0000000  1.6038667  3
   2175   2176   2188   2189     1  0.0000000  0.6508444  3
   2175   2176   2188   2190     1  0.0000000  0.6508444  3
   2175   2179   2191   2192     1  0.0000000  0.6508444  3
   2175   2179   2191   2193     1  0.0000000  0.6508444  3
   2175   2182   2185   2186     1  0.0000000  0.6508444  3
   2175   2182   2185   2187     1  0.0000000  0.6508444  3
   2176   2175   2179   2180     1  0.0000000  1.2552000  3
   2176   2175   2179   2181     1  0.0000000  1.2552000  3
   2176   2175   2182   2183     1  0.0000000  1.2552000  3
   2176   2175   2182   2184     1  0.0000000  1.2552000  3
   2176   2188   2200   2201     1  0.0000000  0.6508444  3
   2176   2188   2200   2202     1  0.0000000  0.6508444  3
   2177   2176   2175   2179     1  0.0000000  1.2552000  3
   2177   2176   2175   2182     1  0.0000000  1.2552000  3
   2177   2176   2188   2200     1  0.0000000  0.6508444  3
   2177   2176   2188   2189     1  0.0000000  0.6508444  3
   2177   2176   2188   2190     1  0.0000000  0.6508444  3
   2178   2176   2175   2179     1  0.0000000  1.2552000  3
   2178   2176   2175   2182     1  0.0000000  1.2552000  3
   2178   2176   2188   2200     1  0.0000000  0.6508444  3
   2178   2176   2188   2189     1  0.0000000  0.6508444  3
   2178   2176   2188   2190     1  0.0000000  0.6508444  3
   2179   2175   2182   2183     1  0.0000000  1.2552000  3
   2179   2175   2182   2184     1  0.0000000  1.2552000  3
   2179   2191   2197   2198     1  0.0000000  0.6508444  3
   2179   2191   2197   2199     1  0.0000000  0.6508444  3
   2180   2179   2175   2182     1  0.0000000  1.2552000  3
   2180   2179   2191   2197     1  0.0000000  0.6508444  3
   2180   2179   2191   2192     1  0.0000000  0.6508444  3
   2180   2179   2191   2193     1  0.0000000  0.6508444  3
   2181   2179   2175   2182     1  0.0000000  1.2552000  3
   2181   2179   2191   2197     1  0.0000000  0.6508444  3
   2181   2179   2191   2192     1  0.0000000  0.6508444  3
   2181   2179   2191   2193     1  0.0000000  0.6508444  3
   2182   2185   2194   2195     1  0.0000000  0.6508444  3
   2182   2185   2194   2196     1  0.0000000  0.6508444  3
   2183   2182   2185   2194     1  0.0000000  0.6508444  3
   2183   2182   2185   2186     1  0.0000000  0.6508444  3
   2183   2182   2185   2187     1  0.0000000  0.6508444  3
   2184   2182   2185   2194     1  0.0000000  0.6508444  3
   2184   2182   2185   2186     1  0.0000000  0.6508444  3
   2184   2182   2185   2187     1  0.0000000  0.6508444  3
   2186   2185   2194   2203     1  0.0000000  1.0460000  1
   2186   2185   2194   2203     1  0.0000000  0.0000000  3
   2186   2185   2194   2195     1  0.0000000  0.6508444  3
   2186   2185   2194   2196     1  0.0000000  0.6508444  3
   2187   2185   2194   2203     1  0.0000000  1.0460000  1
   2187   2185   2194   2203     1  0.0000000  0.0000000  3
   2187   2185   2194   2195     1  0.0000000  0.6508444  3
   2187   2185   2194   2196     1  0.0000000  0.6508444  3
   2189   2188   2200   4465     1  0.0000000  1.0460000  1
   2189   2188   2200   4465     1  0.0000000  0.0000000  3
   2189   2188   2200   2201     1  0.0000000  0.6508444  3
   2189   2188   2200   2202     1  0.0000000  0.6508444  3
   2190   2188   2200   4465     1  0.0000000  1.0460000  1
   2190   2188   2200   4465     1  0.0000000  0.0000000  3
   2190   2188   2200   2201     1  0.0000000  0.6508444  3
   2190   2188   2200   2202     1  0.0000000  0.6508444  3
   2192   2191   2197   4436     1  0.0000000  1.0460000  1
   2192   2191   2197   4436     1  0.0000000  0.0000000  3
   2192   2191   2197   2198     1  0.0000000  0.6508444  3
   2192   2191   2197   2199     1  0.0000000  0.6508444  3
   2193   2191   2197   4436     1  0.0000000  1.0460000  1
   2193   2191   2197   4436     1  0.0000000  0.0000000  3
   2193   2191   2197   2198     1  0.0000000  0.6508444  3
   2193   2191   2197   2199     1  0.0000000  0.6508444  3
   2197   4436   4427   4428     1  0.0000000  1.6038667  3
   2197   4436   4427   4429     1  0.0000000  1.6038667  3
   2198   2197   4436   4427     1  0.0000000  1.6038667  3
   2199   2197   4436   4427     1  0.0000000  1.6038667  3
   2200   4465   4456   4457     1  0.0000000  1.6038667  3
   2200   4465   4456   4458     1  0.0000000  1.6038667  3
   2201   2200   4465   4456     1  0.0000000  1.6038667  3
   2202   2200   4465   4456     1  0.0000000  1.6038667  3
   2204   2205   2217   2218     1  0.0000000  0.6508444  3
   2204   2205   2217   2219     1  0.0000000  0.6508444  3
   2204   2208   2220   2221     1  0.0000000  0.6508444  3
   2204   2208   2220   2222     1  0.0000000  0.6508444  3
   2204   2211   2214   2215     1  0.0000000  0.6508444  3
   2204   2211   2214   2216     1  0.0000000  0.6508444  3
   2205   2204   2208   2209     1  0.0000000  1.2552000  3
   2205   2204   2208   2210     1  0.0000000  1.2552000  3
   2205   2204   2211   2212     1  0.0000000  1.2552000  3
   2205   2204   2211   2213     1  0.0000000  1.2552000  3
   2205   2217   2229   2230     1  0.0000000  0.6508444  3
   2205   2217   2229   2231     1  0.0000000  0.6508444  3
   2206   2205   2204   2208     1  0.0000000  1.2552000  3
   2206   2205   2204   2211     1  0.0000000  1.2552000  3
   2206   2205   2217   2229     1  0.0000000  0.6508444  3
   2206   2205   2217   2218     1  0.0000000  0.6508444  3
   2206   2205   2217   2219     1  0.0000000  0.6508444  3
   2207   2205   2204   2208     1  0.0000000  1.2552000  3
   2207   2205   2204   2211     1  0.0000000  1.2552000  3
   2207   2205   2217   2229     1  0.0000000  0.6508444  3
   2207   2205   2217   2218     1  0.0000000  0.6508444  3
   2207   2205   2217   2219     1  0.0000000  0.6508444  3
   2208   2204   2211   2212     1  0.0000000  1.2552000  3
   2208   2204   2211   2213     1  0.0000000  1.2552000  3
   2208   2220   2226   2227     1  0.0000000  0.6508444  3
   2208   2220   2226   2228     1  0.0000000  0.6508444  3
   2209   2208   2204   2211     1  0.0000000  1.2552000  3
   2209   2208   2220   2226     1  0.0000000  0.6508444  3
   2209   2208   2220   2221     1  0.0000000  0.6508444  3
   2209   2208   2220   2222     1  0.0000000  0.6508444  3
   2210   2208   2204   2211     1  0.0000000  1.2552000  3
   2210   2208   2220   2226     1  0.0000000  0.6508444  3
   2210   2208   2220   2221     1  0.0000000  0.6508444  3
   2210   2208   2220   2222     1  0.0000000  0.6508444  3
   2211   2214   2223   2224     1  0.0000000  0.6508444  3
   2211   2214   2223   2225     1  0.0000000  0.6508444  3
   2212   2211   2214   2223     1  0.0000000  0.6508444  3
   2212   2211   2214   2215     1  0.0000000  0.6508444  3
   2212   2211   2214   2216     1  0.0000000  0.6508444  3
   2213   2211   2214   2223     1  0.0000000  0.6508444  3
   2213   2211   2214   2215     1  0.0000000  0.6508444  3
   2213   2211   2214   2216     1  0.0000000  0.6508444  3
   2215   2214   2223   2232     1  0.0000000  1.0460000  1
   2215   2214   2223   2232     1  0.0000000  0.0000000  3
   2215   2214   2223   2224     1  0.0000000  0.6508444  3
   2215   2214   2223   2225     1  0.0000000  0.6508444  3
   2216   2214   2223   2232     1  0.0000000  1.0460000  1
   2216   2214   2223   2232     1  0.0000000  0.0000000  3
   2216   2214   2223   2224     1  0.0000000  0.6508444  3
   2216   2214   2223   2225     1  0.0000000  0.6508444  3
   2218   2217   2229   4523     1  0.0000000  1.0460000  1
   2218   2217   2229   4523     1  0.0000000  0.0000000  3
   2218   2217   2229   2230     1  0.0000000  0.6508444  3
   2218   2217   2229   2231     1  0.0000000  0.6508444  3
   2219   2217   2229   4523     1  0.0000000  1.0460000  1
   2219   2217   2229   4523     1  0.0000000  0.0000000  3
   2219   2217   2229   2230     1  0.0000000  0.6508444  3
   2219   2217   2229   2231     1  0.0000000  0.6508444  3
   2221   2220   2226   4494     1  0.0000000  1.0460000  1
   2221   2220   2226   4494     1  0.0000000  0.0000000  3
   2221   2220   2226   2227     1  0.0000000  0.6508444  3
   2221   2220   2226   2228     1  0.0000000  0.6508444  3
   2222   2220   2226   4494     1  0.0000000  1.0460000  1
   2222   2220   2226   4494     1  0.0000000  0.0000000  3
   2222   2220   2226   2227     1  0.0000000  0.6508444  3
   2222   2220   2226   2228     1  0.0000000  0.6508444  3
   2226   4494   4485   4486     1  0.0000000  1.6038667  3
   2226   4494   4485   4487     1  0.0000000  1.6038667  3
   2227   2226   4494   4485     1  0.0000000  1.6038667  3
   2228   2226   4494   4485     1  0.0000000  1.6038667  3
   2229   4523   4514   4515     1  0.0000000  1.6038667  3
   2229   4523   4514   4516     1  0.0000000  1.6038667  3
   2230   2229   4523   4514     1  0.0000000  1.6038667  3
   2231   2229   4523   4514     1  0.0000000  1.6038667  3
   2233   2234   2246   2247     1  0.0000000  0.6508444  3
   2233   2234   2246   2248     1  0.0000000  0.6508444  3
   2233   2237   2249   2250     1  0.0000000  0.6508444  3
   2233   2237   2249   2251     1  0.0000000  0.6508444  3
   2233   2240   2243   2244     1  0.0000000  0.6508444  3
   2233   2240   2243   2245     1  0.0000000  0.6508444  3
   2234   2233   2237   2238     1  0.0000000  1.2552000  3
   2234   2233   2237   2239     1  0.0000000  1.2552000  3
   2234   2233   2240   2241     1  0.0000000  1.2552000  3
   2234   2233   2240   2242     1  0.0000000  1.2552000  3
   2234   2246   2258   2259     1  0.0000000  0.6508444  3
   2234   2246   2258   2260     1  0.0000000  0.6508444  3
   2235   2234   2233   2237     1  0.0000000  1.2552000  3
   2235   2234   2233   2240     1  0.0000000  1.2552000  3
   2235   2234   2246   2258     1  0.0000000  0.6508444  3
   2235   2234   2246   2247     1  0.0000000  0.6508444  3
   2235   2234   2246   2248     1  0.0000000  0.6508444  3
   2236   2234   2233   2237     1  0.0000000  1.2552000  3
   2236   2234   2233   2240     1  0.0000000  1.2552000  3
   2236   2234   2246   2258     1  0.0000000  0.6508444  3
   2236   2234   2246   2247     1  0.0000000  0.6508444  3
   2236   2234   2246   2248     1  0.0000000  0.6508444  3
   2237   2233   2240   2241     1  0.0000000  1.2552000  3
   2237   2233   2240   2242     1  0.0000000  1.2552000  3
   2237   2249   2255   2256     1  0.0000000  0.6508444  3
   2237   2249   2255   2257     1  0.0000000  0.6508444  3
   2238   2237   2233   2240     1  0.0000000  1.2552000  3
   2238   2237   2249   2255     1  0.0000000  0.6508444  3
   2238   2237   2249   2250     1  0.0000000  0.6508444  3
   2238   2237   2249   2251     1  0.0000000  0.6508444  3
   2239   2237   2233   2240     1  0.0000000  1.2552000  3
   2239   2237   2249   2255     1  0.0000000  0.6508444  3
   2239   2237   2249   2250     1  0.0000000  0.6508444  3
   2239   2237   2249   2251     1  0.0000000  0.6508444  3
   2240   2243   2252   2253     1  0.0000000  0.6508444  3
   2240   2243   2252   2254     1  0.0000000  0.6508444  3
   2241   2240   2243   2252     1  0.0000000  0.6508444  3
   2241   2240   2243   2244     1  0.0000000  0.6508444  3
   2241   2240   2243   2245     1  0.0000000  0.6508444  3
   2242   2240   2243   2252     1  0.0000000  0.6508444  3
   2242   2240   2243   2244     1  0.0000000  0.6508444  3
   2242   2240   2243   2245     1  0.0000000  0.6508444  3
   2244   2243   2252   2261     1  0.0000000  1.0460000  1
   2244   2243   2252   2261     1  0.0000000  0.0000000  3
   2244   2243   2252   2253     1  0.0000000  0.6508444  3
   2244   2243   2252   2254     1  0.0000000  0.6508444  3
   2245   2243   2252   2261     1  0.0000000  1.0460000  1
   2245   2243   2252   2261     1  0.0000000  0.0000000  3
   2245   2243   2252   2253     1  0.0000000  0.6508444  3
   2245   2243   2252   2254     1  0.0000000  0.6508444  3
   2247   2246   2258   4581     1  0.0000000  1.0460000  1
   2247   2246   2258   4581     1  0.0000000  0.0000000  3
   2247   2246   2258   2259     1  0.0000000  0.6508444  3
   2247   2246   2258   2260     1  0.0000000  0.6508444  3
   2248   2246   2258   4581     1  0.0000000  1.0460000  1
   2248   2246   2258   4581     1  0.0000000  0.0000000  3
   2248   2246   2258   2259     1  0.0000000  0.6508444  3
   2248   2246   2258   2260     1  0.0000000  0.6508444  3
   2250   2249   2255   4552     1  0.0000000  1.0460000  1
   2250   2249   2255   4552     1  0.0000000  0.0000000  3
   2250   2249   2255   2256     1  0.0000000  0.6508444  3
   2250   2249   2255   2257     1  0.0000000  0.6508444  3
   2251   2249   2255   4552     1  0.0000000  1.0460000  1
   2251   2249   2255   4552     1  0.0000000  0.0000000  3
   2251   2249   2255   2256     1  0.0000000  0.6508444  3
   2251   2249   2255   2257     1  0.0000000  0.6508444  3
   2255   4552   4543   4544     1  0.0000000  1.6038667  3
   2255   4552   4543   4545     1  0.0000000  1.6038667  3
   2256   2255   4552   4543     1  0.0000000  1.6038667  3
   2257   2255   4552   4543     1  0.0000000  1.6038667  3
   2258   4581   4572   4573     1  0.0000000  1.6038667  3
   2258   4581   4572   4574     1  0.0000000  1.6038667  3
   2259   2258   4581   4572     1  0.0000000  1.6038667  3
   2260   2258   4581   4572     1  0.0000000  1.6038667  3
   2262   2263   2275   2276     1  0.0000000  0.6508444  3
   2262   2263   2275   2277     1  0.0000000  0.6508444  3
   2262   2266   2278   2279     1  0.0000000  0.6508444  3
   2262   2266   2278   2280     1  0.0000000  0.6508444  3
   2262   2269   2272   2273     1  0.0000000  0.6508444  3
   2262   2269   2272   2274     1  0.0000000  0.6508444  3
   2263   2262   2266   2267     1  0.0000000  1.2552000  3
   2263   2262   2266   2268     1  0.0000000  1.2552000  3
   2263   2262   2269   2270     1  0.0000000  1.2552000  3
   2263   2262   2269   2271     1  0.0000000  1.2552000  3
   2263   2275   2287   2288     1  0.0000000  0.6508444  3
   2263   2275   2287   2289     1  0.0000000  0.6508444  3
   2264   2263   2262   2266     1  0.0000000  1.2552000  3
   2264   2263   2262   2269     1  0.0000000  1.2552000  3
   2264   2263   2275   2287     1  0.0000000  0.6508444  3
   2264   2263   2275   2276     1  0.0000000  0.6508444  3
   2264   2263   2275   2277     1  0.0000000  0.6508444  3
   2265   2263   2262   2266     1  0.0000000  1.2552000  3
   2265   2263   2262   2269     1  0.0000000  1.2552000  3
   2265   2263   2275   2287     1  0.0000000  0.6508444  3
   2265   2263   2275   2276     1  0.0000000  0.6508444  3
   2265   2263   2275   2277     1  0.0000000  0.6508444  3
   2266   2262   2269   2270     1  0.0000000  1.2552000  3
   2266   2262   2269   2271     1  0.0000000  1.2552000  3
   2266   2278   2284   2285     1  0.0000000  0.6508444  3
   2266   2278   2284   2286     1  0.0000000  0.6508444  3
   2267   2266   2262   2269     1  0.0000000  1.2552000  3
   2267   2266   2278   2284     1  0.0000000  0.6508444  3
   2267   2266   2278   2279     1  0.0000000  0.6508444  3
   2267   2266   2278   2280     1  0.0000000  0.6508444  3
   2268   2266   2262   2269     1  0.0000000  1.2552000  3
   2268   2266   2278   2284     1  0.0000000  0.6508444  3
   2268   2266   2278   2279     1  0.0000000  0.6508444  3
   2268   2266   2278   2280     1  0.0000000  0.6508444  3
   2269   2272   2281   2282     1  0.0000000  0.6508444  3
   2269   2272   2281   2283     1  0.0000000  0.6508444  3
   2270   2269   2272   2281     1  0.0000000  0.6508444  3
   2270   2269   2272   2273     1  0.0000000  0.6508444  3
   2270   2269   2272   2274     1  0.0000000  0.6508444  3
   2271   2269   2272   2281     1  0.0000000  0.6508444  3
   2271   2269   2272   2273     1  0.0000000  0.6508444  3
   2271   2269   2272   2274     1  0.0000000  0.6508444  3
   2273   2272   2281   2290     1  0.0000000  1.0460000  1
   2273   2272   2281   2290     1  0.0000000  0.0000000  3
   2273   2272   2281   2282     1  0.0000000  0.6508444  3
   2273   2272   2281   2283     1  0.0000000  0.6508444  3
   2274   2272   2281   2290     1  0.0000000  1.0460000  1
   2274   2272   2281   2290     1  0.0000000  0.0000000  3
   2274   2272   2281   2282     1  0.0000000  0.6508444  3
   2274   2272   2281   2283     1  0.0000000  0.6508444  3
   2276   2275   2287   4639     1  0.0000000  1.0460000  1
   2276   2275   2287   4639     1  0.0000000  0.0000000  3
   2276   2275   2287   2288     1  0.0000000  0.6508444  3
   2276   2275   2287   2289     1  0.0000000  0.6508444  3
   2277   2275   2287   4639     1  0.0000000  1.0460000  1
   2277   2275   2287   4639     1  0.0000000  0.0000000  3
   2277   2275   2287   2288     1  0.0000000  0.6508444  3
   2277   2275   2287   2289     1  0.0000000  0.6508444  3
   2279   2278   2284   4610     1  0.0000000  1.0460000  1
   2279   2278   2284   4610     1  0.0000000  0.0000000  3
   2279   2278   2284   2285     1  0.0000000  0.6508444  3
   2279   2278   2284   2286     1  0.0000000  0.6508444  3
   2280   2278   2284   4610     1  0.0000000  1.0460000  1
   2280   2278   2284   4610     1  0.0000000  0.0000000  3
   2280   2278   2284   2285     1  0.0000000  0.6508444  3
   2280   2278   2284   2286     1  0.0000000  0.6508444  3
   2284   4610   4601   4602     1  0.0000000  1.6038667  3
   2284   4610   4601   4603     1  0.0000000  1.6038667  3
   2285   2284   4610   4601     1  0.0000000  1.6038667  3
   2286   2284   4610   4601     1  0.0000000  1.6038667  3
   2287   4639   4630   4631     1  0.0000000  1.6038667  3
   2287   4639   4630   4632     1  0.0000000  1.6038667  3
   2288   2287   4639   4630     1  0.0000000  1.6038667  3
   2289   2287   4639   4630     1  0.0000000  1.6038667  3
   2291   2292   2304   2305     1  0.0000000  0.6508444  3
   2291   2292   2304   2306     1  0.0000000  0.6508444  3
   2291   2295   2307   2308     1  0.0000000  0.6508444  3
   2291   2295   2307   2309     1  0.0000000  0.6508444  3
   2291   2298   2301   2302     1  0.0000000  0.6508444  3
   2291   2298   2301   2303     1  0.0000000  0.6508444  3
   2292   2291   2295   2296     1  0.0000000  1.2552000  3
   2292   2291   2295   2297     1  0.0000000  1.2552000  3
   2292   2291   2298   2299     1  0.0000000  1.2552000  3
   2292   2291   2298   2300     1  0.0000000  1.2552000  3
   2292   2304   2316   2317     1  0.0000000  0.6508444  3
   2292   2304   2316   2318     1  0.0000000  0.6508444  3
   2293   2292   2291   2295     1  0.0000000  1.2552000  3
   2293   2292   2291   2298     1  0.0000000  1.2552000  3
   2293   2292   2304   2316     1  0.0000000  0.6508444  3
   2293   2292   2304   2305     1  0.0000000  0.6508444  3
   2293   2292   2304   2306     1  0.0000000  0.6508444  3
   2294   2292   2291   2295     1  0.0000000  1.2552000  3
   2294   2292   2291   2298     1  0.0000000  1.2552000  3
   2294   2292   2304   2316     1  0.0000000  0.6508444  3
   2294   2292   2304   2305     1  0.0000000  0.6508444  3
   2294   2292   2304   2306     1  0.0000000  0.6508444  3
   2295   2291   2298   2299     1  0.0000000  1.2552000  3
   2295   2291   2298   2300     1  0.0000000  1.2552000  3
   2295   2307   2313   2314     1  0.0000000  0.6508444  3
   2295   2307   2313   2315     1  0.0000000  0.6508444  3
   2296   2295   2291   2298     1  0.0000000  1.2552000  3
   2296   2295   2307   2313     1  0.0000000  0.6508444  3
   2296   2295   2307   2308     1  0.0000000  0.6508444  3
   2296   2295   2307   2309     1  0.0000000  0.6508444  3
   2297   2295   2291   2298     1  0.0000000  1.2552000  3
   2297   2295   2307   2313     1  0.0000000  0.6508444  3
   2297   2295   2307   2308     1  0.0000000  0.6508444  3
   2297   2295   2307   2309     1  0.0000000  0.6508444  3
   2298   2301   2310   2311     1  0.0000000  0.6508444  3
   2298   2301   2310   2312     1  0.0000000  0.6508444  3
   2299   2298   2301   2310     1  0.0000000  0.6508444  3
   2299   2298   2301   2302     1  0.0000000  0.6508444  3
   2299   2298   2301   2303     1  0.0000000  0.6508444  3
   2300   2298   2301   2310     1  0.0000000  0.6508444  3
   2300   2298   2301   2302     1  0.0000000  0.6508444  3
   2300   2298   2301   2303     1  0.0000000  0.6508444  3
   2302   2301   2310   2319     1  0.0000000  1.0460000  1
   2302   2301   2310   2319     1  0.0000000  0.0000000  3
   2302   2301   2310   2311     1  0.0000000  0.6508444  3
   2302   2301   2310   2312     1  0.0000000  0.6508444  3
   2303   2301   2310   2319     1  0.0000000  1.0460000  1
   2303   2301   2310   2319     1  0.0000000  0.0000000  3
   2303   2301   2310   2311     1  0.0000000  0.6508444  3
   2303   2301   2310   2312     1  0.0000000  0.6508444  3
   2305   2304   2316   4697     1  0.0000000  1.0460000  1
   2305   2304   2316   4697     1  0.0000000  0.0000000  3
   2305   2304   2316   2317     1  0.0000000  0.6508444  3
   2305   2304   2316   2318     1  0.0000000  0.6508444  3
   2306   2304   2316   4697     1  0.0000000  1.0460000  1
   2306   2304   2316   4697     1  0.0000000  0.0000000  3
   2306   2304   2316   2317     1  0.0000000  0.6508444  3
   2306   2304   2316   2318     1  0.0000000  0.6508444  3
   2308   2307   2313   4668     1  0.0000000  1.0460000  1
   2308   2307   2313   4668     1  0.0000000  0.0000000  3
   2308   2307   2313   2314     1  0.0000000  0.6508444  3
   2308   2307   2313   2315     1  0.0000000  0.6508444  3
   2309   2307   2313   4668     1  0.0000000  1.0460000  1
   2309   2307   2313   4668     1  0.0000000  0.0000000  3
   2309   2307   2313   2314     1  0.0000000  0.6508444  3
   2309   2307   2313   2315     1  0.0000000  0.6508444  3
   2313   4668   4659   4660     1  0.0000000  1.6038667  3
   2313   4668   4659   4661     1  0.0000000  1.6038667  3
   2314   2313   4668   4659     1  0.0000000  1.6038667  3
   2315   2313   4668   4659     1  0.0000000  1.6038667  3
   2316   4697   4688   4689     1  0.0000000  1.6038667  3
   2316   4697   4688   4690     1  0.0000000  1.6038667  3
   2317   2316   4697   4688     1  0.0000000  1.6038667  3
   2318   2316   4697   4688     1  0.0000000  1.6038667  3
   2320   2321   2333   2334     1  0.0000000  0.6508444  3
   2320   2321   2333   2335     1  0.0000000  0.6508444  3
   2320   2324   2336   2337     1  0.0000000  0.6508444  3
   2320   2324   2336   2338     1  0.0000000  0.6508444  3
   2320   2327   2330   2331     1  0.0000000  0.6508444  3
   2320   2327   2330   2332     1  0.0000000  0.6508444  3
   2321   2320   2324   2325     1  0.0000000  1.2552000  3
   2321   2320   2324   2326     1  0.0000000  1.2552000  3
   2321   2320   2327   2328     1  0.0000000  1.2552000  3
   2321   2320   2327   2329     1  0.0000000  1.2552000  3
   2321   2333   2345   2346     1  0.0000000  0.6508444  3
   2321   2333   2345   2347     1  0.0000000  0.6508444  3
   2322   2321   2320   2324     1  0.0000000  1.2552000  3
   2322   2321   2320   2327     1  0.0000000  1.2552000  3
   2322   2321   2333   2345     1  0.0000000  0.6508444  3
   2322   2321   2333   2334     1  0.0000000  0.6508444  3
   2322   2321   2333   2335     1  0.0000000  0.6508444  3
   2323   2321   2320   2324     1  0.0000000  1.2552000  3
   2323   2321   2320   2327     1  0.0000000  1.2552000  3
   2323   2321   2333   2345     1  0.0000000  0.6508444  3
   2323   2321   2333   2334     1  0.0000000  0.6508444  3
   2323   2321   2333   2335     1  0.0000000  0.6508444  3
   2324   2320   2327   2328     1  0.0000000  1.2552000  3
   2324   2320   2327   2329     1  0.0000000  1.2552000  3
   2324   2336   2342   2343     1  0.0000000  0.6508444  3
   2324   2336   2342   2344     1  0.0000000  0.6508444  3
   2325   2324   2320   2327     1  0.0000000  1.2552000  3
   2325   2324   2336   2342     1  0.0000000  0.6508444  3
   2325   2324   2336   2337     1  0.0000000  0.6508444  3
   2325   2324   2336   2338     1  0.0000000  0.6508444  3
   2326   2324   2320   2327     1  0.0000000  1.2552000  3
   2326   2324   2336   2342     1  0.0000000  0.6508444  3
   2326   2324   2336   2337     1  0.0000000  0.6508444  3
   2326   2324   2336   2338     1  0.0000000  0.6508444  3
   2327   2330   2339   2340     1  0.0000000  0.6508444  3
   2327   2330   2339   2341     1  0.0000000  0.6508444  3
   2328   2327   2330   2339     1  0.0000000  0.6508444  3
   2328   2327   2330   2331     1  0.0000000  0.6508444  3
   2328   2327   2330   2332     1  0.0000000  0.6508444  3
   2329   2327   2330   2339     1  0.0000000  0.6508444  3
   2329   2327   2330   2331     1  0.0000000  0.6508444  3
   2329   2327   2330   2332     1  0.0000000  0.6508444  3
   2331   2330   2339   2348     1  0.0000000  1.0460000  1
   2331   2330   2339   2348     1  0.0000000  0.0000000  3
   2331   2330   2339   2340     1  0.0000000  0.6508444  3
   2331   2330   2339   2341     1  0.0000000  0.6508444  3
   2332   2330   2339   2348     1  0.0000000  1.0460000  1
   2332   2330   2339   2348     1  0.0000000  0.0000000  3
   2332   2330   2339   2340     1  0.0000000  0.6508444  3
   2332   2330   2339   2341     1  0.0000000  0.6508444  3
   2334   2333   2345   4755     1  0.0000000  1.0460000  1
   2334   2333   2345   4755     1  0.0000000  0.0000000  3
   2334   2333   2345   2346     1  0.0000000  0.6508444  3
   2334   2333   2345   2347     1  0.0000000  0.6508444  3
   2335   2333   2345   4755     1  0.0000000  1.0460000  1
   2335   2333   2345   4755     1  0.0000000  0.0000000  3
   2335   2333   2345   2346     1  0.0000000  0.6508444  3
   2335   2333   2345   2347     1  0.0000000  0.6508444  3
   2337   2336   2342   4726     1  0.0000000  1.0460000  1
   2337   2336   2342   4726     1  0.0000000  0.0000000  3
   2337   2336   2342   2343     1  0.0000000  0.6508444  3
   2337   2336   2342   2344     1  0.0000000  0.6508444  3
   2338   2336   2342   4726     1  0.0000000  1.0460000  1
   2338   2336   2342   4726     1  0.0000000  0.0000000  3
   2338   2336   2342   2343     1  0.0000000  0.6508444  3
   2338   2336   2342   2344     1  0.0000000  0.6508444  3
   2342   4726   4717   4718     1  0.0000000  1.6038667  3
   2342   4726   4717   4719     1  0.0000000  1.6038667  3
   2343   2342   4726   4717     1  0.0000000  1.6038667  3
   2344   2342   4726   4717     1  0.0000000  1.6038667  3
   2345   4755   4746   4747     1  0.0000000  1.6038667  3
   2345   4755   4746   4748     1  0.0000000  1.6038667  3
   2346   2345   4755   4746     1  0.0000000  1.6038667  3
   2347   2345   4755   4746     1  0.0000000  1.6038667  3
   2349   2350   2362   2363     1  0.0000000  0.6508444  3
   2349   2350   2362   2364     1  0.0000000  0.6508444  3
   2349   2353   2365   2366     1  0.0000000  0.6508444  3
   2349   2353   2365   2367     1  0.0000000  0.6508444  3
   2349   2356   2359   2360     1  0.0000000  0.6508444  3
   2349   2356   2359   2361     1  0.0000000  0.6508444  3
   2350   2349   2353   2354     1  0.0000000  1.2552000  3
   2350   2349   2353   2355     1  0.0000000  1.2552000  3
   2350   2349   2356   2357     1  0.0000000  1.2552000  3
   2350   2349   2356   2358     1  0.0000000  1.2552000  3
   2350   2362   2374   2375     1  0.0000000  0.6508444  3
   2350   2362   2374   2376     1  0.0000000  0.6508444  3
   2351   2350   2349   2353     1  0.0000000  1.2552000  3
   2351   2350   2349   2356     1  0.0000000  1.2552000  3
   2351   2350   2362   2374     1  0.0000000  0.6508444  3
   2351   2350   2362   2363     1  0.0000000  0.6508444  3
   2351   2350   2362   2364     1  0.0000000  0.6508444  3
   2352   2350   2349   2353     1  0.0000000  1.2552000  3
   2352   2350   2349   2356     1  0.0000000  1.2552000  3
   2352   2350   2362   2374     1  0.0000000  0.6508444  3
   2352   2350   2362   2363     1  0.0000000  0.6508444  3
   2352   2350   2362   2364     1  0.0000000  0.6508444  3
   2353   2349   2356   2357     1  0.0000000  1.2552000  3
   2353   2349   2356   2358     1  0.0000000  1.2552000  3
   2353   2365   2371   2372     1  0.0000000  0.6508444  3
   2353   2365   2371   2373     1  0.0000000  0.6508444  3
   2354   2353   2349   2356     1  0.0000000  1.2552000  3
   2354   2353   2365   2371     1  0.0000000  0.6508444  3
   2354   2353   2365   2366     1  0.0000000  0.6508444  3
   2354   2353   2365   2367     1  0.0000000  0.6508444  3
   2355   2353   2349   2356     1  0.0000000  1.2552000  3
   2355   2353   2365   2371     1  0.0000000  0.6508444  3
   2355   2353   2365   2366     1  0.0000000  0.6508444  3
   2355   2353   2365   2367     1  0.0000000  0.6508444  3
   2356   2359   2368   2369     1  0.0000000  0.6508444  3
   2356   2359   2368   2370     1  0.0000000  0.6508444  3
   2357   2356   2359   2368     1  0.0000000  0.6508444  3
   2357   2356   2359   2360     1  0.0000000  0.6508444  3
   2357   2356   2359   2361     1  0.0000000  0.6508444  3
   2358   2356   2359   2368     1  0.0000000  0.6508444  3
   2358   2356   2359   2360     1  0.0000000  0.6508444  3
   2358   2356   2359   2361     1  0.0000000  0.6508444  3
   2360   2359   2368   2377     1  0.0000000  1.0460000  1
   2360   2359   2368   2377     1  0.0000000  0.0000000  3
   2360   2359   2368   2369     1  0.0000000  0.6508444  3
   2360   2359   2368   2370     1  0.0000000  0.6508444  3
   2361   2359   2368   2377     1  0.0000000  1.0460000  1
   2361   2359   2368   2377     1  0.0000000  0.0000000  3
   2361   2359   2368   2369     1  0.0000000  0.6508444  3
   2361   2359   2368   2370     1  0.0000000  0.6508444  3
   2363   2362   2374   4813     1  0.0000000  1.0460000  1
   2363   2362   2374   4813     1  0.0000000  0.0000000  3
   2363   2362   2374   2375     1  0.0000000  0.6508444  3
   2363   2362   2374   2376     1  0.0000000  0.6508444  3
   2364   2362   2374   4813     1  0.0000000  1.0460000  1
   2364   2362   2374   4813     1  0.0000000  0.0000000  3
   2364   2362   2374   2375     1  0.0000000  0.6508444  3
   2364   2362   2374   2376     1  0.0000000  0.6508444  3
   2366   2365   2371   4784     1  0.0000000  1.0460000  1
   2366   2365   2371   4784     1  0.0000000  0.0000000  3
   2366   2365   2371   2372     1  0.0000000  0.6508444  3
   2366   2365   2371   2373     1  0.0000000  0.6508444  3
   2367   2365   2371   4784     1  0.0000000  1.0460000  1
   2367   2365   2371   4784     1  0.0000000  0.0000000  3
   2367   2365   2371   2372     1  0.0000000  0.6508444  3
   2367   2365   2371   2373     1  0.0000000  0.6508444  3
   2371   4784   4775   4776     1  0.0000000  1.6038667  3
   2371   4784   4775   4777     1  0.0000000  1.6038667  3
   2372   2371   4784   4775     1  0.0000000  1.6038667  3
   2373   2371   4784   4775     1  0.0000000  1.6038667  3
   2374   4813   4804   4805     1  0.0000000  1.6038667  3
   2374   4813   4804   4806     1  0.0000000  1.6038667  3
   2375   2374   4813   4804     1  0.0000000  1.6038667  3
   2376   2374   4813   4804     1  0.0000000  1.6038667  3
   2378   2379   2391   2392     1  0.0000000  0.6508444  3
   2378   2379   2391   2393     1  0.0000000  0.6508444  3
   2378   2382   2394   2395     1  0.0000000  0.6508444  3
   2378   2382   2394   2396     1  0.0000000  0.6508444  3
   2378   2385   2388   2389     1  0.0000000  0.6508444  3
   2378   2385   2388   2390     1  0.0000000  0.6508444  3
   2379   2378   2382   2383     1  0.0000000  1.2552000  3
   2379   2378   2382   2384     1  0.0000000  1.2552000  3
   2379   2378   2385   2386     1  0.0000000  1.2552000  3
   2379   2378   2385   2387     1  0.0000000  1.2552000  3
   2379   2391   2403   2404     1  0.0000000  0.6508444  3
   2379   2391   2403   2405     1  0.0000000  0.6508444  3
   2380   2379   2378   2382     1  0.0000000  1.2552000  3
   2380   2379   2378   2385     1  0.0000000  1.2552000  3
   2380   2379   2391   2403     1  0.0000000  0.6508444  3
   2380   2379   2391   2392     1  0.0000000  0.6508444  3
   2380   2379   2391   2393     1  0.0000000  0.6508444  3
   2381   2379   2378   2382     1  0.0000000  1.2552000  3
   2381   2379   2378   2385     1  0.0000000  1.2552000  3
   2381   2379   2391   2403     1  0.0000000  0.6508444  3
   2381   2379   2391   2392     1  0.0000000  0.6508444  3
   2381   2379   2391   2393     1  0.0000000  0.6508444  3
   2382   2378   2385   2386     1  0.0000000  1.2552000  3
   2382   2378   2385   2387     1  0.0000000  1.2552000  3
   2382   2394   2400   2401     1  0.0000000  0.6508444  3
   2382   2394   2400   2402     1  0.0000000  0.6508444  3
   2383   2382   2378   2385     1  0.0000000  1.2552000  3
   2383   2382   2394   2400     1  0.0000000  0.6508444  3
   2383   2382   2394   2395     1  0.0000000  0.6508444  3
   2383   2382   2394   2396     1  0.0000000  0.6508444  3
   2384   2382   2378   2385     1  0.0000000  1.2552000  3
   2384   2382   2394   2400     1  0.0000000  0.6508444  3
   2384   2382   2394   2395     1  0.0000000  0.6508444  3
   2384   2382   2394   2396     1  0.0000000  0.6508444  3
   2385   2388   2397   2398     1  0.0000000  0.6508444  3
   2385   2388   2397   2399     1  0.0000000  0.6508444  3
   2386   2385   2388   2397     1  0.0000000  0.6508444  3
   2386   2385   2388   2389     1  0.0000000  0.6508444  3
   2386   2385   2388   2390     1  0.0000000  0.6508444  3
   2387   2385   2388   2397     1  0.0000000  0.6508444  3
   2387   2385   2388   2389     1  0.0000000  0.6508444  3
   2387   2385   2388   2390     1  0.0000000  0.6508444  3
   2389   2388   2397   2406     1  0.0000000  1.0460000  1
   2389   2388   2397   2406     1  0.0000000  0.0000000  3
   2389   2388   2397   2398     1  0.0000000  0.6508444  3
   2389   2388   2397   2399     1  0.0000000  0.6508444  3
   2390   2388   2397   2406     1  0.0000000  1.0460000  1
   2390   2388   2397   2406     1  0.0000000  0.0000000  3
   2390   2388   2397   2398     1  0.0000000  0.6508444  3
   2390   2388   2397   2399     1  0.0000000  0.6508444  3
   2392   2391   2403   4871     1  0.0000000  1.0460000  1
   2392   2391   2403   4871     1  0.0000000  0.0000000  3
   2392   2391   2403   2404     1  0.0000000  0.6508444  3
   2392   2391   2403   2405     1  0.0000000  0.6508444  3
   2393   2391   2403   4871     1  0.0000000  1.0460000  1
   2393   2391   2403   4871     1  0.0000000  0.0000000  3
   2393   2391   2403   2404     1  0.0000000  0.6508444  3
   2393   2391   2403   2405     1  0.0000000  0.6508444  3
   2395   2394   2400   4842     1  0.0000000  1.0460000  1
   2395   2394   2400   4842     1  0.0000000  0.0000000  3
   2395   2394   2400   2401     1  0.0000000  0.6508444  3
   2395   2394   2400   2402     1  0.0000000  0.6508444  3
   2396   2394   2400   4842     1  0.0000000  1.0460000  1
   2396   2394   2400   4842     1  0.0000000  0.0000000  3
   2396   2394   2400   2401     1  0.0000000  0.6508444  3
   2396   2394   2400   2402     1  0.0000000  0.6508444  3
   2400   4842   4833   4834     1  0.0000000  1.6038667  3
   2400   4842   4833   4835     1  0.0000000  1.6038667  3
   2401   2400   4842   4833     1  0.0000000  1.6038667  3
   2402   2400   4842   4833     1  0.0000000  1.6038667  3
   2403   4871   4862   4863     1  0.0000000  1.6038667  3
   2403   4871   4862   4864     1  0.0000000  1.6038667  3
   2404   2403   4871   4862     1  0.0000000  1.6038667  3
   2405   2403   4871   4862     1  0.0000000  1.6038667  3
   2407   2408   2420   2421     1  0.0000000  0.6508444  3
   2407   2408   2420   2422     1  0.0000000  0.6508444  3
   2407   2411   2423   2424     1  0.0000000  0.6508444  3
   2407   2411   2423   2425     1  0.0000000  0.6508444  3
   2407   2414   2417   2418     1  0.0000000  0.6508444  3
   2407   2414   2417   2419     1  0.0000000  0.6508444  3
   2408   2407   2411   2412     1  0.0000000  1.2552000  3
   2408   2407   2411   2413     1  0.0000000  1.2552000  3
   2408   2407   2414   2415     1  0.0000000  1.2552000  3
   2408   2407   2414   2416     1  0.0000000  1.2552000  3
   2408   2420   2432   2433     1  0.0000000  0.6508444  3
   2408   2420   2432   2434     1  0.0000000  0.6508444  3
   2409   2408   2407   2411     1  0.0000000  1.2552000  3
   2409   2408   2407   2414     1  0.0000000  1.2552000  3
   2409   2408   2420   2432     1  0.0000000  0.6508444  3
   2409   2408   2420   2421     1  0.0000000  0.6508444  3
   2409   2408   2420   2422     1  0.0000000  0.6508444  3
   2410   2408   2407   2411     1  0.0000000  1.2552000  3
   2410   2408   2407   2414     1  0.0000000  1.2552000  3
   2410   2408   2420   2432     1  0.0000000  0.6508444  3
   2410   2408   2420   2421     1  0.0000000  0.6508444  3
   2410   2408   2420   2422     1  0.0000000  0.6508444  3
   2411   2407   2414   2415     1  0.0000000  1.2552000  3
   2411   2407   2414   2416     1  0.0000000  1.2552000  3
   2411   2423   2429   2430     1  0.0000000  0.6508444  3
   2411   2423   2429   2431     1  0.0000000  0.6508444  3
   2412   2411   2407   2414     1  0.0000000  1.2552000  3
   2412   2411   2423   2429     1  0.0000000  0.6508444  3
   2412   2411   2423   2424     1  0.0000000  0.6508444  3
   2412   2411   2423   2425     1  0.0000000  0.6508444  3
   2413   2411   2407   2414     1  0.0000000  1.2552000  3
   2413   2411   2423   2429     1  0.0000000  0.6508444  3
   2413   2411   2423   2424     1  0.0000000  0.6508444  3
   2413   2411   2423   2425     1  0.0000000  0.6508444  3
   2414   2417   2426   2427     1  0.0000000  0.6508444  3
   2414   2417   2426   2428     1  0.0000000  0.6508444  3
   2415   2414   2417   2426     1  0.0000000  0.6508444  3
   2415   2414   2417   2418     1  0.0000000  0.6508444  3
   2415   2414   2417   2419     1  0.0000000  0.6508444  3
   2416   2414   2417   2426     1  0.0000000  0.6508444  3
   2416   2414   2417   2418     1  0.0000000  0.6508444  3
   2416   2414   2417   2419     1  0.0000000  0.6508444  3
   2418   2417   2426   2435     1  0.0000000  1.0460000  1
   2418   2417   2426   2435     1  0.0000000  0.0000000  3
   2418   2417   2426   2427     1  0.0000000  0.6508444  3
   2418   2417   2426   2428     1  0.0000000  0.6508444  3
   2419   2417   2426   2435     1  0.0000000  1.0460000  1
   2419   2417   2426   2435     1  0.0000000  0.0000000  3
   2419   2417   2426   2427     1  0.0000000  0.6508444  3
   2419   2417   2426   2428     1  0.0000000  0.6508444  3
   2421   2420   2432   4929     1  0.0000000  1.0460000  1
   2421   2420   2432   4929     1  0.0000000  0.0000000  3
   2421   2420   2432   2433     1  0.0000000  0.6508444  3
   2421   2420   2432   2434     1  0.0000000  0.6508444  3
   2422   2420   2432   4929     1  0.0000000  1.0460000  1
   2422   2420   2432   4929     1  0.0000000  0.0000000  3
   2422   2420   2432   2433     1  0.0000000  0.6508444  3
   2422   2420   2432   2434     1  0.0000000  0.6508444  3
   2424   2423   2429   4900     1  0.0000000  1.0460000  1
   2424   2423   2429   4900     1  0.0000000  0.0000000  3
   2424   2423   2429   2430     1  0.0000000  0.6508444  3
   2424   2423   2429   2431     1  0.0000000  0.6508444  3
   2425   2423   2429   4900     1  0.0000000  1.0460000  1
   2425   2423   2429   4900     1  0.0000000  0.0000000  3
   2425   2423   2429   2430     1  0.0000000  0.6508444  3
   2425   2423   2429   2431     1  0.0000000  0.6508444  3
   2429   4900   4891   4892     1  0.0000000  1.6038667  3
   2429   4900   4891   4893     1  0.0000000  1.6038667  3
   2430   2429   4900   4891     1  0.0000000  1.6038667  3
   2431   2429   4900   4891     1  0.0000000  1.6038667  3
   2432   4929   4920   4921     1  0.0000000  1.6038667  3
   2432   4929   4920   4922     1  0.0000000  1.6038667  3
   2433   2432   4929   4920     1  0.0000000  1.6038667  3
   2434   2432   4929   4920     1  0.0000000  1.6038667  3
   2436   2437   2449   2450     1  0.0000000  0.6508444  3
   2436   2437   2449   2451     1  0.0000000  0.6508444  3
   2436   2440   2452   2453     1  0.0000000  0.6508444  3
   2436   2440   2452   2454     1  0.0000000  0.6508444  3
   2436   2443   2446   2447     1  0.0000000  0.6508444  3
   2436   2443   2446   2448     1  0.0000000  0.6508444  3
   2437   2436   2440   2441     1  0.0000000  1.2552000  3
   2437   2436   2440   2442     1  0.0000000  1.2552000  3
   2437   2436   2443   2444     1  0.0000000  1.2552000  3
   2437   2436   2443   2445     1  0.0000000  1.2552000  3
   2437   2449   2461   2462     1  0.0000000  0.6508444  3
   2437   2449   2461   2463     1  0.0000000  0.6508444  3
   2438   2437   2436   2440     1  0.0000000  1.2552000  3
   2438   2437   2436   2443     1  0.0000000  1.2552000  3
   2438   2437   2449   2461     1  0.0000000  0.6508444  3
   2438   2437   2449   2450     1  0.0000000  0.6508444  3
   2438   2437   2449   2451     1  0.0000000  0.6508444  3
   2439   2437   2436   2440     1  0.0000000  1.2552000  3
   2439   2437   2436   2443     1  0.0000000  1.2552000  3
   2439   2437   2449   2461     1  0.0000000  0.6508444  3
   2439   2437   2449   2450     1  0.0000000  0.6508444  3
   2439   2437   2449   2451     1  0.0000000  0.6508444  3
   2440   2436   2443   2444     1  0.0000000  1.2552000  3
   2440   2436   2443   2445     1  0.0000000  1.2552000  3
   2440   2452   2458   2459     1  0.0000000  0.6508444  3
   2440   2452   2458   2460     1  0.0000000  0.6508444  3
   2441   2440   2436   2443     1  0.0000000  1.2552000  3
   2441   2440   2452   2458     1  0.0000000  0.6508444  3
   2441   2440   2452   2453     1  0.0000000  0.6508444  3
   2441   2440   2452   2454     1  0.0000000  0.6508444  3
   2442   2440   2436   2443     1  0.0000000  1.2552000  3
   2442   2440   2452   2458     1  0.0000000  0.6508444  3
   2442   2440   2452   2453     1  0.0000000  0.6508444  3
   2442   2440   2452   2454     1  0.0000000  0.6508444  3
   2443   2446   2455   2456     1  0.0000000  0.6508444  3
   2443   2446   2455   2457     1  0.0000000  0.6508444  3
   2444   2443   2446   2455     1  0.0000000  0.6508444  3
   2444   2443   2446   2447     1  0.0000000  0.6508444  3
   2444   2443   2446   2448     1  0.0000000  0.6508444  3
   2445   2443   2446   2455     1  0.0000000  0.6508444  3
   2445   2443   2446   2447     1  0.0000000  0.6508444  3
   2445   2443   2446   2448     1  0.0000000  0.6508444  3
   2447   2446   2455   2464     1  0.0000000  1.0460000  1
   2447   2446   2455   2464     1  0.0000000  0.0000000  3
   2447   2446   2455   2456     1  0.0000000  0.6508444  3
   2447   2446   2455   2457     1  0.0000000  0.6508444  3
   2448   2446   2455   2464     1  0.0000000  1.0460000  1
   2448   2446   2455   2464     1  0.0000000  0.0000000  3
   2448   2446   2455   2456     1  0.0000000  0.6508444  3
   2448   2446   2455   2457     1  0.0000000  0.6508444  3
   2450   2449   2461   4987     1  0.0000000  1.0460000  1
   2450   2449   2461   4987     1  0.0000000  0.0000000  3
   2450   2449   2461   2462     1  0.0000000  0.6508444  3
   2450   2449   2461   2463     1  0.0000000  0.6508444  3
   2451   2449   2461   4987     1  0.0000000  1.0460000  1
   2451   2449   2461   4987     1  0.0000000  0.0000000  3
   2451   2449   2461   2462     1  0.0000000  0.6508444  3
   2451   2449   2461   2463     1  0.0000000  0.6508444  3
   2453   2452   2458   4958     1  0.0000000  1.0460000  1
   2453   2452   2458   4958     1  0.0000000  0.0000000  3
   2453   2452   2458   2459     1  0.0000000  0.6508444  3
   2453   2452   2458   2460     1  0.0000000  0.6508444  3
   2454   2452   2458   4958     1  0.0000000  1.0460000  1
   2454   2452   2458   4958     1  0.0000000  0.0000000  3
   2454   2452   2458   2459     1  0.0000000  0.6508444  3
   2454   2452   2458   2460     1  0.0000000  0.6508444  3
   2458   4958   4949   4950     1  0.0000000  1.6038667  3
   2458   4958   4949   4951     1  0.0000000  1.6038667  3
   2459   2458   4958   4949     1  0.0000000  1.6038667  3
   2460   2458   4958   4949     1  0.0000000  1.6038667  3
   2461   4987   4978   4979     1  0.0000000  1.6038667  3
   2461   4987   4978   4980     1  0.0000000  1.6038667  3
   2462   2461   4987   4978     1  0.0000000  1.6038667  3
   2463   2461   4987   4978     1  0.0000000  1.6038667  3
   2465   2466   2478   2479     1  0.0000000  0.6508444  3
   2465   2466   2478   2480     1  0.0000000  0.6508444  3
   2465   2469   2481   2482     1  0.0000000  0.6508444  3
   2465   2469   2481   2483     1  0.0000000  0.6508444  3
   2465   2472   2475   2476     1  0.0000000  0.6508444  3
   2465   2472   2475   2477     1  0.0000000  0.6508444  3
   2466   2465   2469   2470     1  0.0000000  1.2552000  3
   2466   2465   2469   2471     1  0.0000000  1.2552000  3
   2466   2465   2472   2473     1  0.0000000  1.2552000  3
   2466   2465   2472   2474     1  0.0000000  1.2552000  3
   2466   2478   2490   2491     1  0.0000000  0.6508444  3
   2466   2478   2490   2492     1  0.0000000  0.6508444  3
   2467   2466   2465   2469     1  0.0000000  1.2552000  3
   2467   2466   2465   2472     1  0.0000000  1.2552000  3
   2467   2466   2478   2490     1  0.0000000  0.6508444  3
   2467   2466   2478   2479     1  0.0000000  0.6508444  3
   2467   2466   2478   2480     1  0.0000000  0.6508444  3
   2468   2466   2465   2469     1  0.0000000  1.2552000  3
   2468   2466   2465   2472     1  0.0000000  1.2552000  3
   2468   2466   2478   2490     1  0.0000000  0.6508444  3
   2468   2466   2478   2479     1  0.0000000  0.6508444  3
   2468   2466   2478   2480     1  0.0000000  0.6508444  3
   2469   2465   2472   2473     1  0.0000000  1.2552000  3
   2469   2465   2472   2474     1  0.0000000  1.2552000  3
   2469   2481   2487   2488     1  0.0000000  0.6508444  3
   2469   2481   2487   2489     1  0.0000000  0.6508444  3
   2470   2469   2465   2472     1  0.0000000  1.2552000  3
   2470   2469   2481   2487     1  0.0000000  0.6508444  3
   2470   2469   2481   2482     1  0.0000000  0.6508444  3
   2470   2469   2481   2483     1  0.0000000  0.6508444  3
   2471   2469   2465   2472     1  0.0000000  1.2552000  3
   2471   2469   2481   2487     1  0.0000000  0.6508444  3
   2471   2469   2481   2482     1  0.0000000  0.6508444  3
   2471   2469   2481   2483     1  0.0000000  0.6508444  3
   2472   2475   2484   2485     1  0.0000000  0.6508444  3
   2472   2475   2484   2486     1  0.0000000  0.6508444  3
   2473   2472   2475   2484     1  0.0000000  0.6508444  3
   2473   2472   2475   2476     1  0.0000000  0.6508444  3
   2473   2472   2475   2477     1  0.0000000  0.6508444  3
   2474   2472   2475   2484     1  0.0000000  0.6508444  3
   2474   2472   2475   2476     1  0.0000000  0.6508444  3
   2474   2472   2475   2477     1  0.0000000  0.6508444  3
   2476   2475   2484   2493     1  0.0000000  1.0460000  1
   2476   2475   2484   2493     1  0.0000000  0.0000000  3
   2476   2475   2484   2485     1  0.0000000  0.6508444  3
   2476   2475   2484   2486     1  0.0000000  0.6508444  3
   2477   2475   2484   2493     1  0.0000000  1.0460000  1
   2477   2475   2484   2493     1  0.0000000  0.0000000  3
   2477   2475   2484   2485     1  0.0000000  0.6508444  3
   2477   2475   2484   2486     1  0.0000000  0.6508444  3
   2479   2478   2490   5045     1  0.0000000  1.0460000  1
   2479   2478   2490   5045     1  0.0000000  0.0000000  3
   2479   2478   2490   2491     1  0.0000000  0.6508444  3
   2479   2478   2490   2492     1  0.0000000  0.6508444  3
   2480   2478   2490   5045     1  0.0000000  1.0460000  1
   2480   2478   2490   5045     1  0.0000000  0.0000000  3
   2480   2478   2490   2491     1  0.0000000  0.6508444  3
   2480   2478   2490   2492     1  0.0000000  0.6508444  3
   2482   2481   2487   5016     1  0.0000000  1.0460000  1
   2482   2481   2487   5016     1  0.0000000  0.0000000  3
   2482   2481   2487   2488     1  0.0000000  0.6508444  3
   2482   2481   2487   2489     1  0.0000000  0.6508444  3
   2483   2481   2487   5016     1  0.0000000  1.0460000  1
   2483   2481   2487   5016     1  0.0000000  0.0000000  3
   2483   2481   2487   2488     1  0.0000000  0.6508444  3
   2483   2481   2487   2489     1  0.0000000  0.6508444  3
   2487   5016   5007   5008     1  0.0000000  1.6038667  3
   2487   5016   5007   5009     1  0.0000000  1.6038667  3
   2488   2487   5016   5007     1  0.0000000  1.6038667  3
   2489   2487   5016   5007     1  0.0000000  1.6038667  3
   2490   5045   5036   5037     1  0.0000000  1.6038667  3
   2490   5045   5036   5038     1  0.0000000  1.6038667  3
   2491   2490   5045   5036     1  0.0000000  1.6038667  3
   2492   2490   5045   5036     1  0.0000000  1.6038667  3
   2494   2495   2507   2508     1  0.0000000  0.6508444  3
   2494   2495   2507   2509     1  0.0000000  0.6508444  3
   2494   2498   2510   2511     1  0.0000000  0.6508444  3
   2494   2498   2510   2512     1  0.0000000  0.6508444  3
   2494   2501   2504   2505     1  0.0000000  0.6508444  3
   2494   2501   2504   2506     1  0.0000000  0.6508444  3
   2495   2494   2498   2499     1  0.0000000  1.2552000  3
   2495   2494   2498   2500     1  0.0000000  1.2552000  3
   2495   2494   2501   2502     1  0.0000000  1.2552000  3
   2495   2494   2501   2503     1  0.0000000  1.2552000  3
   2495   2507   2519   2520     1  0.0000000  0.6508444  3
   2495   2507   2519   2521     1  0.0000000  0.6508444  3
   2496   2495   2494   2498     1  0.0000000  1.2552000  3
   2496   2495   2494   2501     1  0.0000000  1.2552000  3
   2496   2495   2507   2519     1  0.0000000  0.6508444  3
   2496   2495   2507   2508     1  0.0000000  0.6508444  3
   2496   2495   2507   2509     1  0.0000000  0.6508444  3
   2497   2495   2494   2498     1  0.0000000  1.2552000  3
   2497   2495   2494   2501     1  0.0000000  1.2552000  3
   2497   2495   2507   2519     1  0.0000000  0.6508444  3
   2497   2495   2507   2508     1  0.0000000  0.6508444  3
   2497   2495   2507   2509     1  0.0000000  0.6508444  3
   2498   2494   2501   2502     1  0.0000000  1.2552000  3
   2498   2494   2501   2503     1  0.0000000  1.2552000  3
   2498   2510   2516   2517     1  0.0000000  0.6508444  3
   2498   2510   2516   2518     1  0.0000000  0.6508444  3
   2499   2498   2494   2501     1  0.0000000  1.2552000  3
   2499   2498   2510   2516     1  0.0000000  0.6508444  3
   2499   2498   2510   2511     1  0.0000000  0.6508444  3
   2499   2498   2510   2512     1  0.0000000  0.6508444  3
   2500   2498   2494   2501     1  0.0000000  1.2552000  3
   2500   2498   2510   2516     1  0.0000000  0.6508444  3
   2500   2498   2510   2511     1  0.0000000  0.6508444  3
   2500   2498   2510   2512     1  0.0000000  0.6508444  3
   2501   2504   2513   2514     1  0.0000000  0.6508444  3
   2501   2504   2513   2515     1  0.0000000  0.6508444  3
   2502   2501   2504   2513     1  0.0000000  0.6508444  3
   2502   2501   2504   2505     1  0.0000000  0.6508444  3
   2502   2501   2504   2506     1  0.0000000  0.6508444  3
   2503   2501   2504   2513     1  0.0000000  0.6508444  3
   2503   2501   2504   2505     1  0.0000000  0.6508444  3
   2503   2501   2504   2506     1  0.0000000  0.6508444  3
   2505   2504   2513   2522     1  0.0000000  1.0460000  1
   2505   2504   2513   2522     1  0.0000000  0.0000000  3
   2505   2504   2513   2514     1  0.0000000  0.6508444  3
   2505   2504   2513   2515     1  0.0000000  0.6508444  3
   2506   2504   2513   2522     1  0.0000000  1.0460000  1
   2506   2504   2513   2522     1  0.0000000  0.0000000  3
   2506   2504   2513   2514     1  0.0000000  0.6508444  3
   2506   2504   2513   2515     1  0.0000000  0.6508444  3
   2508   2507   2519   5103     1  0.0000000  1.0460000  1
   2508   2507   2519   5103     1  0.0000000  0.0000000  3
   2508   2507   2519   2520     1  0.0000000  0.6508444  3
   2508   2507   2519   2521     1  0.0000000  0.6508444  3
   2509   2507   2519   5103     1  0.0000000  1.0460000  1
   2509   2507   2519   5103     1  0.0000000  0.0000000  3
   2509   2507   2519   2520     1  0.0000000  0.6508444  3
   2509   2507   2519   2521     1  0.0000000  0.6508444  3
   2511   2510   2516   5074     1  0.0000000  1.0460000  1
   2511   2510   2516   5074     1  0.0000000  0.0000000  3
   2511   2510   2516   2517     1  0.0000000  0.6508444  3
   2511   2510   2516   2518     1  0.0000000  0.6508444  3
   2512   2510   2516   5074     1  0.0000000  1.0460000  1
   2512   2510   2516   5074     1  0.0000000  0.0000000  3
   2512   2510   2516   2517     1  0.0000000  0.6508444  3
   2512   2510   2516   2518     1  0.0000000  0.6508444  3
   2516   5074   5065   5066     1  0.0000000  1.6038667  3
   2516   5074   5065   5067     1  0.0000000  1.6038667  3
   2517   2516   5074   5065     1  0.0000000  1.6038667  3
   2518   2516   5074   5065     1  0.0000000  1.6038667  3
   2519   5103   5094   5095     1  0.0000000  1.6038667  3
   2519   5103   5094   5096     1  0.0000000  1.6038667  3
   2520   2519   5103   5094     1  0.0000000  1.6038667  3
   2521   2519   5103   5094     1  0.0000000  1.6038667  3
   2523   2524   2536   2537     1  0.0000000  0.6508444  3
   2523   2524   2536   2538     1  0.0000000  0.6508444  3
   2523   2527   2539   2540     1  0.0000000  0.6508444  3
   2523   2527   2539   2541     1  0.0000000  0.6508444  3
   2523   2530   2533   2534     1  0.0000000  0.6508444  3
   2523   2530   2533   2535     1  0.0000000  0.6508444  3
   2524   2523   2527   2528     1  0.0000000  1.2552000  3
   2524   2523   2527   2529     1  0.0000000  1.2552000  3
   2524   2523   2530   2531     1  0.0000000  1.2552000  3
   2524   2523   2530   2532     1  0.0000000  1.2552000  3
   2524   2536   2548   2549     1  0.0000000  0.6508444  3
   2524   2536   2548   2550     1  0.0000000  0.6508444  3
   2525   2524   2523   2527     1  0.0000000  1.2552000  3
   2525   2524   2523   2530     1  0.0000000  1.2552000  3
   2525   2524   2536   2548     1  0.0000000  0.6508444  3
   2525   2524   2536   2537     1  0.0000000  0.6508444  3
   2525   2524   2536   2538     1  0.0000000  0.6508444  3
   2526   2524   2523   2527     1  0.0000000  1.2552000  3
   2526   2524   2523   2530     1  0.0000000  1.2552000  3
   2526   2524   2536   2548     1  0.0000000  0.6508444  3
   2526   2524   2536   2537     1  0.0000000  0.6508444  3
   2526   2524   2536   2538     1  0.0000000  0.6508444  3
   2527   2523   2530   2531     1  0.0000000  1.2552000  3
   2527   2523   2530   2532     1  0.0000000  1.2552000  3
   2527   2539   2545   2546     1  0.0000000  0.6508444  3
   2527   2539   2545   2547     1  0.0000000  0.6508444  3
   2528   2527   2523   2530     1  0.0000000  1.2552000  3
   2528   2527   2539   2545     1  0.0000000  0.6508444  3
   2528   2527   2539   2540     1  0.0000000  0.6508444  3
   2528   2527   2539   2541     1  0.0000000  0.6508444  3
   2529   2527   2523   2530     1  0.0000000  1.2552000  3
   2529   2527   2539   2545     1  0.0000000  0.6508444  3
   2529   2527   2539   2540     1  0.0000000  0.6508444  3
   2529   2527   2539   2541     1  0.0000000  0.6508444  3
   2530   2533   2542   2543     1  0.0000000  0.6508444  3
   2530   2533   2542   2544     1  0.0000000  0.6508444  3
   2531   2530   2533   2542     1  0.0000000  0.6508444  3
   2531   2530   2533   2534     1  0.0000000  0.6508444  3
   2531   2530   2533   2535     1  0.0000000  0.6508444  3
   2532   2530   2533   2542     1  0.0000000  0.6508444  3
   2532   2530   2533   2534     1  0.0000000  0.6508444  3
   2532   2530   2533   2535     1  0.0000000  0.6508444  3
   2534   2533   2542   2551     1  0.0000000  1.0460000  1
   2534   2533   2542   2551     1  0.0000000  0.0000000  3
   2534   2533   2542   2543     1  0.0000000  0.6508444  3
   2534   2533   2542   2544     1  0.0000000  0.6508444  3
   2535   2533   2542   2551     1  0.0000000  1.0460000  1
   2535   2533   2542   2551     1  0.0000000  0.0000000  3
   2535   2533   2542   2543     1  0.0000000  0.6508444  3
   2535   2533   2542   2544     1  0.0000000  0.6508444  3
   2537   2536   2548   5161     1  0.0000000  1.0460000  1
   2537   2536   2548   5161     1  0.0000000  0.0000000  3
   2537   2536   2548   2549     1  0.0000000  0.6508444  3
   2537   2536   2548   2550     1  0.0000000  0.6508444  3
   2538   2536   2548   5161     1  0.0000000  1.0460000  1
   2538   2536   2548   5161     1  0.0000000  0.0000000  3
   2538   2536   2548   2549     1  0.0000000  0.6508444  3
   2538   2536   2548   2550     1  0.0000000  0.6508444  3
   2540   2539   2545   5132     1  0.0000000  1.0460000  1
   2540   2539   2545   5132     1  0.0000000  0.0000000  3
   2540   2539   2545   2546     1  0.0000000  0.6508444  3
   2540   2539   2545   2547     1  0.0000000  0.6508444  3
   2541   2539   2545   5132     1  0.0000000  1.0460000  1
   2541   2539   2545   5132     1  0.0000000  0.0000000  3
   2541   2539   2545   2546     1  0.0000000  0.6508444  3
   2541   2539   2545   2547     1  0.0000000  0.6508444  3
   2545   5132   5123   5124     1  0.0000000  1.6038667  3
   2545   5132   5123   5125     1  0.0000000  1.6038667  3
   2546   2545   5132   5123     1  0.0000000  1.6038667  3
   2547   2545   5132   5123     1  0.0000000  1.6038667  3
   2548   5161   5152   5153     1  0.0000000  1.6038667  3
   2548   5161   5152   5154     1  0.0000000  1.6038667  3
   2549   2548   5161   5152     1  0.0000000  1.6038667  3
   2550   2548   5161   5152     1  0.0000000  1.6038667  3
   2552   2553   2565   2566     1  0.0000000  0.6508444  3
   2552   2553   2565   2567     1  0.0000000  0.6508444  3
   2552   2556   2568   2569     1  0.0000000  0.6508444  3
   2552   2556   2568   2570     1  0.0000000  0.6508444  3
   2552   2559   2562   2563     1  0.0000000  0.6508444  3
   2552   2559   2562   2564     1  0.0000000  0.6508444  3
   2553   2552   2556   2557     1  0.0000000  1.2552000  3
   2553   2552   2556   2558     1  0.0000000  1.2552000  3
   2553   2552   2559   2560     1  0.0000000  1.2552000  3
   2553   2552   2559   2561     1  0.0000000  1.2552000  3
   2553   2565   2577   2578     1  0.0000000  0.6508444  3
   2553   2565   2577   2579     1  0.0000000  0.6508444  3
   2554   2553   2552   2556     1  0.0000000  1.2552000  3
   2554   2553   2552   2559     1  0.0000000  1.2552000  3
   2554   2553   2565   2577     1  0.0000000  0.6508444  3
   2554   2553   2565   2566     1  0.0000000  0.6508444  3
   2554   2553   2565   2567     1  0.0000000  0.6508444  3
   2555   2553   2552   2556     1  0.0000000  1.2552000  3
   2555   2553   2552   2559     1  0.0000000  1.2552000  3
   2555   2553   2565   2577     1  0.0000000  0.6508444  3
   2555   2553   2565   2566     1  0.0000000  0.6508444  3
   2555   2553   2565   2567     1  0.0000000  0.6508444  3
   2556   2552   2559   2560     1  0.0000000  1.2552000  3
   2556   2552   2559   2561     1  0.0000000  1.2552000  3
   2556   2568   2574   2575     1  0.0000000  0.6508444  3
   2556   2568   2574   2576     1  0.0000000  0.6508444  3
   2557   2556   2552   2559     1  0.0000000  1.2552000  3
   2557   2556   2568   2574     1  0.0000000  0.6508444  3
   2557   2556   2568   2569     1  0.0000000  0.6508444  3
   2557   2556   2568   2570     1  0.0000000  0.6508444  3
   2558   2556   2552   2559     1  0.0000000  1.2552000  3
   2558   2556   2568   2574     1  0.0000000  0.6508444  3
   2558   2556   2568   2569     1  0.0000000  0.6508444  3
   2558   2556   2568   2570     1  0.0000000  0.6508444  3
   2559   2562   2571   2572     1  0.0000000  0.6508444  3
   2559   2562   2571   2573     1  0.0000000  0.6508444  3
   2560   2559   2562   2571     1  0.0000000  0.6508444  3
   2560   2559   2562   2563     1  0.0000000  0.6508444  3
   2560   2559   2562   2564     1  0.0000000  0.6508444  3
   2561   2559   2562   2571     1  0.0000000  0.6508444  3
   2561   2559   2562   2563     1  0.0000000  0.6508444  3
   2561   2559   2562   2564     1  0.0000000  0.6508444  3
   2563   2562   2571   2580     1  0.0000000  1.0460000  1
   2563   2562   2571   2580     1  0.0000000  0.0000000  3
   2563   2562   2571   2572     1  0.0000000  0.6508444  3
   2563   2562   2571   2573     1  0.0000000  0.6508444  3
   2564   2562   2571   2580     1  0.0000000  1.0460000  1
   2564   2562   2571   2580     1  0.0000000  0.0000000  3
   2564   2562   2571   2572     1  0.0000000  0.6508444  3
   2564   2562   2571   2573     1  0.0000000  0.6508444  3
   2566   2565   2577   5219     1  0.0000000  1.0460000  1
   2566   2565   2577   5219     1  0.0000000  0.0000000  3
   2566   2565   2577   2578     1  0.0000000  0.6508444  3
   2566   2565   2577   2579     1  0.0000000  0.6508444  3
   2567   2565   2577   5219     1  0.0000000  1.0460000  1
   2567   2565   2577   5219     1  0.0000000  0.0000000  3
   2567   2565   2577   2578     1  0.0000000  0.6508444  3
   2567   2565   2577   2579     1  0.0000000  0.6508444  3
   2569   2568   2574   5190     1  0.0000000  1.0460000  1
   2569   2568   2574   5190     1  0.0000000  0.0000000  3
   2569   2568   2574   2575     1  0.0000000  0.6508444  3
   2569   2568   2574   2576     1  0.0000000  0.6508444  3
   2570   2568   2574   5190     1  0.0000000  1.0460000  1
   2570   2568   2574   5190     1  0.0000000  0.0000000  3
   2570   2568   2574   2575     1  0.0000000  0.6508444  3
   2570   2568   2574   2576     1  0.0000000  0.6508444  3
   2574   5190   5181   5182     1  0.0000000  1.6038667  3
   2574   5190   5181   5183     1  0.0000000  1.6038667  3
   2575   2574   5190   5181     1  0.0000000  1.6038667  3
   2576   2574   5190   5181     1  0.0000000  1.6038667  3
   2577   5219   5210   5211     1  0.0000000  1.6038667  3
   2577   5219   5210   5212     1  0.0000000  1.6038667  3
   2578   2577   5219   5210     1  0.0000000  1.6038667  3
   2579   2577   5219   5210     1  0.0000000  1.6038667  3
   2581   2582   2594   2595     1  0.0000000  0.6508444  3
   2581   2582   2594   2596     1  0.0000000  0.6508444  3
   2581   2585   2597   2598     1  0.0000000  0.6508444  3
   2581   2585   2597   2599     1  0.0000000  0.6508444  3
   2581   2588   2591   2592     1  0.0000000  0.6508444  3
   2581   2588   2591   2593     1  0.0000000  0.6508444  3
   2582   2581   2585   2586     1  0.0000000  1.2552000  3
   2582   2581   2585   2587     1  0.0000000  1.2552000  3
   2582   2581   2588   2589     1  0.0000000  1.2552000  3
   2582   2581   2588   2590     1  0.0000000  1.2552000  3
   2582   2594   2606   2607     1  0.0000000  0.6508444  3
   2582   2594   2606   2608     1  0.0000000  0.6508444  3
   2583   2582   2581   2585     1  0.0000000  1.2552000  3
   2583   2582   2581   2588     1  0.0000000  1.2552000  3
   2583   2582   2594   2606     1  0.0000000  0.6508444  3
   2583   2582   2594   2595     1  0.0000000  0.6508444  3
   2583   2582   2594   2596     1  0.0000000  0.6508444  3
   2584   2582   2581   2585     1  0.0000000  1.2552000  3
   2584   2582   2581   2588     1  0.0000000  1.2552000  3
   2584   2582   2594   2606     1  0.0000000  0.6508444  3
   2584   2582   2594   2595     1  0.0000000  0.6508444  3
   2584   2582   2594   2596     1  0.0000000  0.6508444  3
   2585   2581   2588   2589     1  0.0000000  1.2552000  3
   2585   2581   2588   2590     1  0.0000000  1.2552000  3
   2585   2597   2603   2604     1  0.0000000  0.6508444  3
   2585   2597   2603   2605     1  0.0000000  0.6508444  3
   2586   2585   2581   2588     1  0.0000000  1.2552000  3
   2586   2585   2597   2603     1  0.0000000  0.6508444  3
   2586   2585   2597   2598     1  0.0000000  0.6508444  3
   2586   2585   2597   2599     1  0.0000000  0.6508444  3
   2587   2585   2581   2588     1  0.0000000  1.2552000  3
   2587   2585   2597   2603     1  0.0000000  0.6508444  3
   2587   2585   2597   2598     1  0.0000000  0.6508444  3
   2587   2585   2597   2599     1  0.0000000  0.6508444  3
   2588   2591   2600   2601     1  0.0000000  0.6508444  3
   2588   2591   2600   2602     1  0.0000000  0.6508444  3
   2589   2588   2591   2600     1  0.0000000  0.6508444  3
   2589   2588   2591   2592     1  0.0000000  0.6508444  3
   2589   2588   2591   2593     1  0.0000000  0.6508444  3
   2590   2588   2591   2600     1  0.0000000  0.6508444  3
   2590   2588   2591   2592     1  0.0000000  0.6508444  3
   2590   2588   2591   2593     1  0.0000000  0.6508444  3
   2592   2591   2600   2609     1  0.0000000  1.0460000  1
   2592   2591   2600   2609     1  0.0000000  0.0000000  3
   2592   2591   2600   2601     1  0.0000000  0.6508444  3
   2592   2591   2600   2602     1  0.0000000  0.6508444  3
   2593   2591   2600   2609     1  0.0000000  1.0460000  1
   2593   2591   2600   2609     1  0.0000000  0.0000000  3
   2593   2591   2600   2601     1  0.0000000  0.6508444  3
   2593   2591   2600   2602     1  0.0000000  0.6508444  3
   2595   2594   2606   5277     1  0.0000000  1.0460000  1
   2595   2594   2606   5277     1  0.0000000  0.0000000  3
   2595   2594   2606   2607     1  0.0000000  0.6508444  3
   2595   2594   2606   2608     1  0.0000000  0.6508444  3
   2596   2594   2606   5277     1  0.0000000  1.0460000  1
   2596   2594   2606   5277     1  0.0000000  0.0000000  3
   2596   2594   2606   2607     1  0.0000000  0.6508444  3
   2596   2594   2606   2608     1  0.0000000  0.6508444  3
   2598   2597   2603   5248     1  0.0000000  1.0460000  1
   2598   2597   2603   5248     1  0.0000000  0.0000000  3
   2598   2597   2603   2604     1  0.0000000  0.6508444  3
   2598   2597   2603   2605     1  0.0000000  0.6508444  3
   2599   2597   2603   5248     1  0.0000000  1.0460000  1
   2599   2597   2603   5248     1  0.0000000  0.0000000  3
   2599   2597   2603   2604     1  0.0000000  0.6508444  3
   2599   2597   2603   2605     1  0.0000000  0.6508444  3
   2603   5248   5239   5240     1  0.0000000  1.6038667  3
   2603   5248   5239   5241     1  0.0000000  1.6038667  3
   2604   2603   5248   5239     1  0.0000000  1.6038667  3
   2605   2603   5248   5239     1  0.0000000  1.6038667  3
   2606   5277   5268   5269     1  0.0000000  1.6038667  3
   2606   5277   5268   5270     1  0.0000000  1.6038667  3
   2607   2606   5277   5268     1  0.0000000  1.6038667  3
   2608   2606   5277   5268     1  0.0000000  1.6038667  3
   2610   2611   2623   2624     1  0.0000000  0.6508444  3
   2610   2611   2623   2625     1  0.0000000  0.6508444  3
   2610   2614   2626   2627     1  0.0000000  0.6508444  3
   2610   2614   2626   2628     1  0.0000000  0.6508444  3
   2610   2617   2620   2621     1  0.0000000  0.6508444  3
   2610   2617   2620   2622     1  0.0000000  0.6508444  3
   2611   2610   2614   2615     1  0.0000000  1.2552000  3
   2611   2610   2614   2616     1  0.0000000  1.2552000  3
   2611   2610   2617   2618     1  0.0000000  1.2552000  3
   2611   2610   2617   2619     1  0.0000000  1.2552000  3
   2611   2623   2635   2636     1  0.0000000  0.6508444  3
   2611   2623   2635   2637     1  0.0000000  0.6508444  3
   2612   2611   2610   2614     1  0.0000000  1.2552000  3
   2612   2611   2610   2617     1  0.0000000  1.2552000  3
   2612   2611   2623   2635     1  0.0000000  0.6508444  3
   2612   2611   2623   2624     1  0.0000000  0.6508444  3
   2612   2611   2623   2625     1  0.0000000  0.6508444  3
   2613   2611   2610   2614     1  0.0000000  1.2552000  3
   2613   2611   2610   2617     1  0.0000000  1.2552000  3
   2613   2611   2623   2635     1  0.0000000  0.6508444  3
   2613   2611   2623   2624     1  0.0000000  0.6508444  3
   2613   2611   2623   2625     1  0.0000000  0.6508444  3
   2614   2610   2617   2618     1  0.0000000  1.2552000  3
   2614   2610   2617   2619     1  0.0000000  1.2552000  3
   2614   2626   2632   2633     1  0.0000000  0.6508444  3
   2614   2626   2632   2634     1  0.0000000  0.6508444  3
   2615   2614   2610   2617     1  0.0000000  1.2552000  3
   2615   2614   2626   2632     1  0.0000000  0.6508444  3
   2615   2614   2626   2627     1  0.0000000  0.6508444  3
   2615   2614   2626   2628     1  0.0000000  0.6508444  3
   2616   2614   2610   2617     1  0.0000000  1.2552000  3
   2616   2614   2626   2632     1  0.0000000  0.6508444  3
   2616   2614   2626   2627     1  0.0000000  0.6508444  3
   2616   2614   2626   2628     1  0.0000000  0.6508444  3
   2617   2620   2629   2630     1  0.0000000  0.6508444  3
   2617   2620   2629   2631     1  0.0000000  0.6508444  3
   2618   2617   2620   2629     1  0.0000000  0.6508444  3
   2618   2617   2620   2621     1  0.0000000  0.6508444  3
   2618   2617   2620   2622     1  0.0000000  0.6508444  3
   2619   2617   2620   2629     1  0.0000000  0.6508444  3
   2619   2617   2620   2621     1  0.0000000  0.6508444  3
   2619   2617   2620   2622     1  0.0000000  0.6508444  3
   2621   2620   2629   2638     1  0.0000000  1.0460000  1
   2621   2620   2629   2638     1  0.0000000  0.0000000  3
   2621   2620   2629   2630     1  0.0000000  0.6508444  3
   2621   2620   2629   2631     1  0.0000000  0.6508444  3
   2622   2620   2629   2638     1  0.0000000  1.0460000  1
   2622   2620   2629   2638     1  0.0000000  0.0000000  3
   2622   2620   2629   2630     1  0.0000000  0.6508444  3
   2622   2620   2629   2631     1  0.0000000  0.6508444  3
   2624   2623   2635   5335     1  0.0000000  1.0460000  1
   2624   2623   2635   5335     1  0.0000000  0.0000000  3
   2624   2623   2635   2636     1  0.0000000  0.6508444  3
   2624   2623   2635   2637     1  0.0000000  0.6508444  3
   2625   2623   2635   5335     1  0.0000000  1.0460000  1
   2625   2623   2635   5335     1  0.0000000  0.0000000  3
   2625   2623   2635   2636     1  0.0000000  0.6508444  3
   2625   2623   2635   2637     1  0.0000000  0.6508444  3
   2627   2626   2632   5306     1  0.0000000  1.0460000  1
   2627   2626   2632   5306     1  0.0000000  0.0000000  3
   2627   2626   2632   2633     1  0.0000000  0.6508444  3
   2627   2626   2632   2634     1  0.0000000  0.6508444  3
   2628   2626   2632   5306     1  0.0000000  1.0460000  1
   2628   2626   2632   5306     1  0.0000000  0.0000000  3
   2628   2626   2632   2633     1  0.0000000  0.6508444  3
   2628   2626   2632   2634     1  0.0000000  0.6508444  3
   2632   5306   5297   5298     1  0.0000000  1.6038667  3
   2632   5306   5297   5299     1  0.0000000  1.6038667  3
   2633   2632   5306   5297     1  0.0000000  1.6038667  3
   2634   2632   5306   5297     1  0.0000000  1.6038667  3
   2635   5335   5326   5327     1  0.0000000  1.6038667  3
   2635   5335   5326   5328     1  0.0000000  1.6038667  3
   2636   2635   5335   5326     1  0.0000000  1.6038667  3
   2637   2635   5335   5326     1  0.0000000  1.6038667  3
   2639   2640   2652   2653     1  0.0000000  0.6508444  3
   2639   2640   2652   2654     1  0.0000000  0.6508444  3
   2639   2643   2655   2656     1  0.0000000  0.6508444  3
   2639   2643   2655   2657     1  0.0000000  0.6508444  3
   2639   2646   2649   2650     1  0.0000000  0.6508444  3
   2639   2646   2649   2651     1  0.0000000  0.6508444  3
   2640   2639   2643   2644     1  0.0000000  1.2552000  3
   2640   2639   2643   2645     1  0.0000000  1.2552000  3
   2640   2639   2646   2647     1  0.0000000  1.2552000  3
   2640   2639   2646   2648     1  0.0000000  1.2552000  3
   2640   2652   2664   2665     1  0.0000000  0.6508444  3
   2640   2652   2664   2666     1  0.0000000  0.6508444  3
   2641   2640   2639   2643     1  0.0000000  1.2552000  3
   2641   2640   2639   2646     1  0.0000000  1.2552000  3
   2641   2640   2652   2664     1  0.0000000  0.6508444  3
   2641   2640   2652   2653     1  0.0000000  0.6508444  3
   2641   2640   2652   2654     1  0.0000000  0.6508444  3
   2642   2640   2639   2643     1  0.0000000  1.2552000  3
   2642   2640   2639   2646     1  0.0000000  1.2552000  3
   2642   2640   2652   2664     1  0.0000000  0.6508444  3
   2642   2640   2652   2653     1  0.0000000  0.6508444  3
   2642   2640   2652   2654     1  0.0000000  0.6508444  3
   2643   2639   2646   2647     1  0.0000000  1.2552000  3
   2643   2639   2646   2648     1  0.0000000  1.2552000  3
   2643   2655   2661   2662     1  0.0000000  0.6508444  3
   2643   2655   2661   2663     1  0.0000000  0.6508444  3
   2644   2643   2639   2646     1  0.0000000  1.2552000  3
   2644   2643   2655   2661     1  0.0000000  0.6508444  3
   2644   2643   2655   2656     1  0.0000000  0.6508444  3
   2644   2643   2655   2657     1  0.0000000  0.6508444  3
   2645   2643   2639   2646     1  0.0000000  1.2552000  3
   2645   2643   2655   2661     1  0.0000000  0.6508444  3
   2645   2643   2655   2656     1  0.0000000  0.6508444  3
   2645   2643   2655   2657     1  0.0000000  0.6508444  3
   2646   2649   2658   2659     1  0.0000000  0.6508444  3
   2646   2649   2658   2660     1  0.0000000  0.6508444  3
   2647   2646   2649   2658     1  0.0000000  0.6508444  3
   2647   2646   2649   2650     1  0.0000000  0.6508444  3
   2647   2646   2649   2651     1  0.0000000  0.6508444  3
   2648   2646   2649   2658     1  0.0000000  0.6508444  3
   2648   2646   2649   2650     1  0.0000000  0.6508444  3
   2648   2646   2649   2651     1  0.0000000  0.6508444  3
   2650   2649   2658   2667     1  0.0000000  1.0460000  1
   2650   2649   2658   2667     1  0.0000000  0.0000000  3
   2650   2649   2658   2659     1  0.0000000  0.6508444  3
   2650   2649   2658   2660     1  0.0000000  0.6508444  3
   2651   2649   2658   2667     1  0.0000000  1.0460000  1
   2651   2649   2658   2667     1  0.0000000  0.0000000  3
   2651   2649   2658   2659     1  0.0000000  0.6508444  3
   2651   2649   2658   2660     1  0.0000000  0.6508444  3
   2653   2652   2664   5393     1  0.0000000  1.0460000  1
   2653   2652   2664   5393     1  0.0000000  0.0000000  3
   2653   2652   2664   2665     1  0.0000000  0.6508444  3
   2653   2652   2664   2666     1  0.0000000  0.6508444  3
   2654   2652   2664   5393     1  0.0000000  1.0460000  1
   2654   2652   2664   5393     1  0.0000000  0.0000000  3
   2654   2652   2664   2665     1  0.0000000  0.6508444  3
   2654   2652   2664   2666     1  0.0000000  0.6508444  3
   2656   2655   2661   5364     1  0.0000000  1.0460000  1
   2656   2655   2661   5364     1  0.0000000  0.0000000  3
   2656   2655   2661   2662     1  0.0000000  0.6508444  3
   2656   2655   2661   2663     1  0.0000000  0.6508444  3
   2657   2655   2661   5364     1  0.0000000  1.0460000  1
   2657   2655   2661   5364     1  0.0000000  0.0000000  3
   2657   2655   2661   2662     1  0.0000000  0.6508444  3
   2657   2655   2661   2663     1  0.0000000  0.6508444  3
   2661   5364   5355   5356     1  0.0000000  1.6038667  3
   2661   5364   5355   5357     1  0.0000000  1.6038667  3
   2662   2661   5364   5355     1  0.0000000  1.6038667  3
   2663   2661   5364   5355     1  0.0000000  1.6038667  3
   2664   5393   5384   5385     1  0.0000000  1.6038667  3
   2664   5393   5384   5386     1  0.0000000  1.6038667  3
   2665   2664   5393   5384     1  0.0000000  1.6038667  3
   2666   2664   5393   5384     1  0.0000000  1.6038667  3
   2668   2669   2681   2682     1  0.0000000  0.6508444  3
   2668   2669   2681   2683     1  0.0000000  0.6508444  3
   2668   2672   2684   2685     1  0.0000000  0.6508444  3
   2668   2672   2684   2686     1  0.0000000  0.6508444  3
   2668   2675   2678   2679     1  0.0000000  0.6508444  3
   2668   2675   2678   2680     1  0.0000000  0.6508444  3
   2669   2668   2672   2673     1  0.0000000  1.2552000  3
   2669   2668   2672   2674     1  0.0000000  1.2552000  3
   2669   2668   2675   2676     1  0.0000000  1.2552000  3
   2669   2668   2675   2677     1  0.0000000  1.2552000  3
   2669   2681   2693   2694     1  0.0000000  0.6508444  3
   2669   2681   2693   2695     1  0.0000000  0.6508444  3
   2670   2669   2668   2672     1  0.0000000  1.2552000  3
   2670   2669   2668   2675     1  0.0000000  1.2552000  3
   2670   2669   2681   2693     1  0.0000000  0.6508444  3
   2670   2669   2681   2682     1  0.0000000  0.6508444  3
   2670   2669   2681   2683     1  0.0000000  0.6508444  3
   2671   2669   2668   2672     1  0.0000000  1.2552000  3
   2671   2669   2668   2675     1  0.0000000  1.2552000  3
   2671   2669   2681   2693     1  0.0000000  0.6508444  3
   2671   2669   2681   2682     1  0.0000000  0.6508444  3
   2671   2669   2681   2683     1  0.0000000  0.6508444  3
   2672   2668   2675   2676     1  0.0000000  1.2552000  3
   2672   2668   2675   2677     1  0.0000000  1.2552000  3
   2672   2684   2690   2691     1  0.0000000  0.6508444  3
   2672   2684   2690   2692     1  0.0000000  0.6508444  3
   2673   2672   2668   2675     1  0.0000000  1.2552000  3
   2673   2672   2684   2690     1  0.0000000  0.6508444  3
   2673   2672   2684   2685     1  0.0000000  0.6508444  3
   2673   2672   2684   2686     1  0.0000000  0.6508444  3
   2674   2672   2668   2675     1  0.0000000  1.2552000  3
   2674   2672   2684   2690     1  0.0000000  0.6508444  3
   2674   2672   2684   2685     1  0.0000000  0.6508444  3
   2674   2672   2684   2686     1  0.0000000  0.6508444  3
   2675   2678   2687   2688     1  0.0000000  0.6508444  3
   2675   2678   2687   2689     1  0.0000000  0.6508444  3
   2676   2675   2678   2687     1  0.0000000  0.6508444  3
   2676   2675   2678   2679     1  0.0000000  0.6508444  3
   2676   2675   2678   2680     1  0.0000000  0.6508444  3
   2677   2675   2678   2687     1  0.0000000  0.6508444  3
   2677   2675   2678   2679     1  0.0000000  0.6508444  3
   2677   2675   2678   2680     1  0.0000000  0.6508444  3
   2679   2678   2687   2696     1  0.0000000  1.0460000  1
   2679   2678   2687   2696     1  0.0000000  0.0000000  3
   2679   2678   2687   2688     1  0.0000000  0.6508444  3
   2679   2678   2687   2689     1  0.0000000  0.6508444  3
   2680   2678   2687   2696     1  0.0000000  1.0460000  1
   2680   2678   2687   2696     1  0.0000000  0.0000000  3
   2680   2678   2687   2688     1  0.0000000  0.6508444  3
   2680   2678   2687   2689     1  0.0000000  0.6508444  3
   2682   2681   2693   5451     1  0.0000000  1.0460000  1
   2682   2681   2693   5451     1  0.0000000  0.0000000  3
   2682   2681   2693   2694     1  0.0000000  0.6508444  3
   2682   2681   2693   2695     1  0.0000000  0.6508444  3
   2683   2681   2693   5451     1  0.0000000  1.0460000  1
   2683   2681   2693   5451     1  0.0000000  0.0000000  3
   2683   2681   2693   2694     1  0.0000000  0.6508444  3
   2683   2681   2693   2695     1  0.0000000  0.6508444  3
   2685   2684   2690   5422     1  0.0000000  1.0460000  1
   2685   2684   2690   5422     1  0.0000000  0.0000000  3
   2685   2684   2690   2691     1  0.0000000  0.6508444  3
   2685   2684   2690   2692     1  0.0000000  0.6508444  3
   2686   2684   2690   5422     1  0.0000000  1.0460000  1
   2686   2684   2690   5422     1  0.0000000  0.0000000  3
   2686   2684   2690   2691     1  0.0000000  0.6508444  3
   2686   2684   2690   2692     1  0.0000000  0.6508444  3
   2690   5422   5413   5414     1  0.0000000  1.6038667  3
   2690   5422   5413   5415     1  0.0000000  1.6038667  3
   2691   2690   5422   5413     1  0.0000000  1.6038667  3
   2692   2690   5422   5413     1  0.0000000  1.6038667  3
   2693   5451   5442   5443     1  0.0000000  1.6038667  3
   2693   5451   5442   5444     1  0.0000000  1.6038667  3
   2694   2693   5451   5442     1  0.0000000  1.6038667  3
   2695   2693   5451   5442     1  0.0000000  1.6038667  3
   2697   2698   2710   2711     1  0.0000000  0.6508444  3
   2697   2698   2710   2712     1  0.0000000  0.6508444  3
   2697   2701   2713   2714     1  0.0000000  0.6508444  3
   2697   2701   2713   2715     1  0.0000000  0.6508444  3
   2697   2704   2707   2708     1  0.0000000  0.6508444  3
   2697   2704   2707   2709     1  0.0000000  0.6508444  3
   2698   2697   2701   2702     1  0.0000000  1.2552000  3
   2698   2697   2701   2703     1  0.0000000  1.2552000  3
   2698   2697   2704   2705     1  0.0000000  1.2552000  3
   2698   2697   2704   2706     1  0.0000000  1.2552000  3
   2698   2710   2722   2723     1  0.0000000  0.6508444  3
   2698   2710   2722   2724     1  0.0000000  0.6508444  3
   2699   2698   2697   2701     1  0.0000000  1.2552000  3
   2699   2698   2697   2704     1  0.0000000  1.2552000  3
   2699   2698   2710   2722     1  0.0000000  0.6508444  3
   2699   2698   2710   2711     1  0.0000000  0.6508444  3
   2699   2698   2710   2712     1  0.0000000  0.6508444  3
   2700   2698   2697   2701     1  0.0000000  1.2552000  3
   2700   2698   2697   2704     1  0.0000000  1.2552000  3
   2700   2698   2710   2722     1  0.0000000  0.6508444  3
   2700   2698   2710   2711     1  0.0000000  0.6508444  3
   2700   2698   2710   2712     1  0.0000000  0.6508444  3
   2701   2697   2704   2705     1  0.0000000  1.2552000  3
   2701   2697   2704   2706     1  0.0000000  1.2552000  3
   2701   2713   2719   2720     1  0.0000000  0.6508444  3
   2701   2713   2719   2721     1  0.0000000  0.6508444  3
   2702   2701   2697   2704     1  0.0000000  1.2552000  3
   2702   2701   2713   2719     1  0.0000000  0.6508444  3
   2702   2701   2713   2714     1  0.0000000  0.6508444  3
   2702   2701   2713   2715     1  0.0000000  0.6508444  3
   2703   2701   2697   2704     1  0.0000000  1.2552000  3
   2703   2701   2713   2719     1  0.0000000  0.6508444  3
   2703   2701   2713   2714     1  0.0000000  0.6508444  3
   2703   2701   2713   2715     1  0.0000000  0.6508444  3
   2704   2707   2716   2717     1  0.0000000  0.6508444  3
   2704   2707   2716   2718     1  0.0000000  0.6508444  3
   2705   2704   2707   2716     1  0.0000000  0.6508444  3
   2705   2704   2707   2708     1  0.0000000  0.6508444  3
   2705   2704   2707   2709     1  0.0000000  0.6508444  3
   2706   2704   2707   2716     1  0.0000000  0.6508444  3
   2706   2704   2707   2708     1  0.0000000  0.6508444  3
   2706   2704   2707   2709     1  0.0000000  0.6508444  3
   2708   2707   2716   2725     1  0.0000000  1.0460000  1
   2708   2707   2716   2725     1  0.0000000  0.0000000  3
   2708   2707   2716   2717     1  0.0000000  0.6508444  3
   2708   2707   2716   2718     1  0.0000000  0.6508444  3
   2709   2707   2716   2725     1  0.0000000  1.0460000  1
   2709   2707   2716   2725     1  0.0000000  0.0000000  3
   2709   2707   2716   2717     1  0.0000000  0.6508444  3
   2709   2707   2716   2718     1  0.0000000  0.6508444  3
   2711   2710   2722   5509     1  0.0000000  1.0460000  1
   2711   2710   2722   5509     1  0.0000000  0.0000000  3
   2711   2710   2722   2723     1  0.0000000  0.6508444  3
   2711   2710   2722   2724     1  0.0000000  0.6508444  3
   2712   2710   2722   5509     1  0.0000000  1.0460000  1
   2712   2710   2722   5509     1  0.0000000  0.0000000  3
   2712   2710   2722   2723     1  0.0000000  0.6508444  3
   2712   2710   2722   2724     1  0.0000000  0.6508444  3
   2714   2713   2719   5480     1  0.0000000  1.0460000  1
   2714   2713   2719   5480     1  0.0000000  0.0000000  3
   2714   2713   2719   2720     1  0.0000000  0.6508444  3
   2714   2713   2719   2721     1  0.0000000  0.6508444  3
   2715   2713   2719   5480     1  0.0000000  1.0460000  1
   2715   2713   2719   5480     1  0.0000000  0.0000000  3
   2715   2713   2719   2720     1  0.0000000  0.6508444  3
   2715   2713   2719   2721     1  0.0000000  0.6508444  3
   2719   5480   5471   5472     1  0.0000000  1.6038667  3
   2719   5480   5471   5473     1  0.0000000  1.6038667  3
   2720   2719   5480   5471     1  0.0000000  1.6038667  3
   2721   2719   5480   5471     1  0.0000000  1.6038667  3
   2722   5509   5500   5501     1  0.0000000  1.6038667  3
   2722   5509   5500   5502     1  0.0000000  1.6038667  3
   2723   2722   5509   5500     1  0.0000000  1.6038667  3
   2724   2722   5509   5500     1  0.0000000  1.6038667  3
   2726   2727   2739   2740     1  0.0000000  0.6508444  3
   2726   2727   2739   2741     1  0.0000000  0.6508444  3
   2726   2730   2742   2743     1  0.0000000  0.6508444  3
   2726   2730   2742   2744     1  0.0000000  0.6508444  3
   2726   2733   2736   2737     1  0.0000000  0.6508444  3
   2726   2733   2736   2738     1  0.0000000  0.6508444  3
   2727   2726   2730   2731     1  0.0000000  1.2552000  3
   2727   2726   2730   2732     1  0.0000000  1.2552000  3
   2727   2726   2733   2734     1  0.0000000  1.2552000  3
   2727   2726   2733   2735     1  0.0000000  1.2552000  3
   2727   2739   2751   2752     1  0.0000000  0.6508444  3
   2727   2739   2751   2753     1  0.0000000  0.6508444  3
   2728   2727   2726   2730     1  0.0000000  1.2552000  3
   2728   2727   2726   2733     1  0.0000000  1.2552000  3
   2728   2727   2739   2751     1  0.0000000  0.6508444  3
   2728   2727   2739   2740     1  0.0000000  0.6508444  3
   2728   2727   2739   2741     1  0.0000000  0.6508444  3
   2729   2727   2726   2730     1  0.0000000  1.2552000  3
   2729   2727   2726   2733     1  0.0000000  1.2552000  3
   2729   2727   2739   2751     1  0.0000000  0.6508444  3
   2729   2727   2739   2740     1  0.0000000  0.6508444  3
   2729   2727   2739   2741     1  0.0000000  0.6508444  3
   2730   2726   2733   2734     1  0.0000000  1.2552000  3
   2730   2726   2733   2735     1  0.0000000  1.2552000  3
   2730   2742   2748   2749     1  0.0000000  0.6508444  3
   2730   2742   2748   2750     1  0.0000000  0.6508444  3
   2731   2730   2726   2733     1  0.0000000  1.2552000  3
   2731   2730   2742   2748     1  0.0000000  0.6508444  3
   2731   2730   2742   2743     1  0.0000000  0.6508444  3
   2731   2730   2742   2744     1  0.0000000  0.6508444  3
   2732   2730   2726   2733     1  0.0000000  1.2552000  3
   2732   2730   2742   2748     1  0.0000000  0.6508444  3
   2732   2730   2742   2743     1  0.0000000  0.6508444  3
   2732   2730   2742   2744     1  0.0000000  0.6508444  3
   2733   2736   2745   2746     1  0.0000000  0.6508444  3
   2733   2736   2745   2747     1  0.0000000  0.6508444  3
   2734   2733   2736   2745     1  0.0000000  0.6508444  3
   2734   2733   2736   2737     1  0.0000000  0.6508444  3
   2734   2733   2736   2738     1  0.0000000  0.6508444  3
   2735   2733   2736   2745     1  0.0000000  0.6508444  3
   2735   2733   2736   2737     1  0.0000000  0.6508444  3
   2735   2733   2736   2738     1  0.0000000  0.6508444  3
   2737   2736   2745   2754     1  0.0000000  1.0460000  1
   2737   2736   2745   2754     1  0.0000000  0.0000000  3
   2737   2736   2745   2746     1  0.0000000  0.6508444  3
   2737   2736   2745   2747     1  0.0000000  0.6508444  3
   2738   2736   2745   2754     1  0.0000000  1.0460000  1
   2738   2736   2745   2754     1  0.0000000  0.0000000  3
   2738   2736   2745   2746     1  0.0000000  0.6508444  3
   2738   2736   2745   2747     1  0.0000000  0.6508444  3
   2740   2739   2751   5567     1  0.0000000  1.0460000  1
   2740   2739   2751   5567     1  0.0000000  0.0000000  3
   2740   2739   2751   2752     1  0.0000000  0.6508444  3
   2740   2739   2751   2753     1  0.0000000  0.6508444  3
   2741   2739   2751   5567     1  0.0000000  1.0460000  1
   2741   2739   2751   5567     1  0.0000000  0.0000000  3
   2741   2739   2751   2752     1  0.0000000  0.6508444  3
   2741   2739   2751   2753     1  0.0000000  0.6508444  3
   2743   2742   2748   5538     1  0.0000000  1.0460000  1
   2743   2742   2748   5538     1  0.0000000  0.0000000  3
   2743   2742   2748   2749     1  0.0000000  0.6508444  3
   2743   2742   2748   2750     1  0.0000000  0.6508444  3
   2744   2742   2748   5538     1  0.0000000  1.0460000  1
   2744   2742   2748   5538     1  0.0000000  0.0000000  3
   2744   2742   2748   2749     1  0.0000000  0.6508444  3
   2744   2742   2748   2750     1  0.0000000  0.6508444  3
   2748   5538   5510   5511     1  0.0000000  1.6038667  3
   2748   5538   5510   5512     1  0.0000000  1.6038667  3
   2749   2748   5538   5510     1  0.0000000  1.6038667  3
   2750   2748   5538   5510     1  0.0000000  1.6038667  3
   2751   5567   5539   5540     1  0.0000000  1.6038667  3
   2751   5567   5539   5541     1  0.0000000  1.6038667  3
   2752   2751   5567   5539     1  0.0000000  1.6038667  3
   2753   2751   5567   5539     1  0.0000000  1.6038667  3
   2755   2756   2768   2769     1  0.0000000  0.6508444  3
   2755   2756   2768   2770     1  0.0000000  0.6508444  3
   2755   2759   2771   2772     1  0.0000000  0.6508444  3
   2755   2759   2771   2773     1  0.0000000  0.6508444  3
   2755   2762   2765   2766     1  0.0000000  0.6508444  3
   2755   2762   2765   2767     1  0.0000000  0.6508444  3
   2756   2755   2759   2760     1  0.0000000  1.2552000  3
   2756   2755   2759   2761     1  0.0000000  1.2552000  3
   2756   2755   2762   2763     1  0.0000000  1.2552000  3
   2756   2755   2762   2764     1  0.0000000  1.2552000  3
   2756   2768   2780   2781     1  0.0000000  0.6508444  3
   2756   2768   2780   2782     1  0.0000000  0.6508444  3
   2757   2756   2755   2759     1  0.0000000  1.2552000  3
   2757   2756   2755   2762     1  0.0000000  1.2552000  3
   2757   2756   2768   2780     1  0.0000000  0.6508444  3
   2757   2756   2768   2769     1  0.0000000  0.6508444  3
   2757   2756   2768   2770     1  0.0000000  0.6508444  3
   2758   2756   2755   2759     1  0.0000000  1.2552000  3
   2758   2756   2755   2762     1  0.0000000  1.2552000  3
   2758   2756   2768   2780     1  0.0000000  0.6508444  3
   2758   2756   2768   2769     1  0.0000000  0.6508444  3
   2758   2756   2768   2770     1  0.0000000  0.6508444  3
   2759   2755   2762   2763     1  0.0000000  1.2552000  3
   2759   2755   2762   2764     1  0.0000000  1.2552000  3
   2759   2771   2777   2778     1  0.0000000  0.6508444  3
   2759   2771   2777   2779     1  0.0000000  0.6508444  3
   2760   2759   2755   2762     1  0.0000000  1.2552000  3
   2760   2759   2771   2777     1  0.0000000  0.6508444  3
   2760   2759   2771   2772     1  0.0000000  0.6508444  3
   2760   2759   2771   2773     1  0.0000000  0.6508444  3
   2761   2759   2755   2762     1  0.0000000  1.2552000  3
   2761   2759   2771   2777     1  0.0000000  0.6508444  3
   2761   2759   2771   2772     1  0.0000000  0.6508444  3
   2761   2759   2771   2773     1  0.0000000  0.6508444  3
   2762   2765   2774   2775     1  0.0000000  0.6508444  3
   2762   2765   2774   2776     1  0.0000000  0.6508444  3
   2763   2762   2765   2774     1  0.0000000  0.6508444  3
   2763   2762   2765   2766     1  0.0000000  0.6508444  3
   2763   2762   2765   2767     1  0.0000000  0.6508444  3
   2764   2762   2765   2774     1  0.0000000  0.6508444  3
   2764   2762   2765   2766     1  0.0000000  0.6508444  3
   2764   2762   2765   2767     1  0.0000000  0.6508444  3
   2766   2765   2774   2783     1  0.0000000  1.0460000  1
   2766   2765   2774   2783     1  0.0000000  0.0000000  3
   2766   2765   2774   2775     1  0.0000000  0.6508444  3
   2766   2765   2774   2776     1  0.0000000  0.6508444  3
   2767   2765   2774   2783     1  0.0000000  1.0460000  1
   2767   2765   2774   2783     1  0.0000000  0.0000000  3
   2767   2765   2774   2775     1  0.0000000  0.6508444  3
   2767   2765   2774   2776     1  0.0000000  0.6508444  3
   2769   2768   2780   5625     1  0.0000000  1.0460000  1
   2769   2768   2780   5625     1  0.0000000  0.0000000  3
   2769   2768   2780   2781     1  0.0000000  0.6508444  3
   2769   2768   2780   2782     1  0.0000000  0.6508444  3
   2770   2768   2780   5625     1  0.0000000  1.0460000  1
   2770   2768   2780   5625     1  0.0000000  0.0000000  3
   2770   2768   2780   2781     1  0.0000000  0.6508444  3
   2770   2768   2780   2782     1  0.0000000  0.6508444  3
   2772   2771   2777   5596     1  0.0000000  1.0460000  1
   2772   2771   2777   5596     1  0.0000000  0.0000000  3
   2772   2771   2777   2778     1  0.0000000  0.6508444  3
   2772   2771   2777   2779     1  0.0000000  0.6508444  3
   2773   2771   2777   5596     1  0.0000000  1.0460000  1
   2773   2771   2777   5596     1  0.0000000  0.0000000  3
   2773   2771   2777   2778     1  0.0000000  0.6508444  3
   2773   2771   2777   2779     1  0.0000000  0.6508444  3
   2777   5596   5568   5569     1  0.0000000  1.6038667  3
   2777   5596   5568   5570     1  0.0000000  1.6038667  3
   2778   2777   5596   5568     1  0.0000000  1.6038667  3
   2779   2777   5596   5568     1  0.0000000  1.6038667  3
   2780   5625   5597   5598     1  0.0000000  1.6038667  3
   2780   5625   5597   5599     1  0.0000000  1.6038667  3
   2781   2780   5625   5597     1  0.0000000  1.6038667  3
   2782   2780   5625   5597     1  0.0000000  1.6038667  3
   2784   2785   2797   2798     1  0.0000000  0.6508444  3
   2784   2785   2797   2799     1  0.0000000  0.6508444  3
   2784   2788   2800   2801     1  0.0000000  0.6508444  3
   2784   2788   2800   2802     1  0.0000000  0.6508444  3
   2784   2791   2794   2795     1  0.0000000  0.6508444  3
   2784   2791   2794   2796     1  0.0000000  0.6508444  3
   2785   2784   2788   2789     1  0.0000000  1.2552000  3
   2785   2784   2788   2790     1  0.0000000  1.2552000  3
   2785   2784   2791   2792     1  0.0000000  1.2552000  3
   2785   2784   2791   2793     1  0.0000000  1.2552000  3
   2785   2797   2809   2810     1  0.0000000  0.6508444  3
   2785   2797   2809   2811     1  0.0000000  0.6508444  3
   2786   2785   2784   2788     1  0.0000000  1.2552000  3
   2786   2785   2784   2791     1  0.0000000  1.2552000  3
   2786   2785   2797   2809     1  0.0000000  0.6508444  3
   2786   2785   2797   2798     1  0.0000000  0.6508444  3
   2786   2785   2797   2799     1  0.0000000  0.6508444  3
   2787   2785   2784   2788     1  0.0000000  1.2552000  3
   2787   2785   2784   2791     1  0.0000000  1.2552000  3
   2787   2785   2797   2809     1  0.0000000  0.6508444  3
   2787   2785   2797   2798     1  0.0000000  0.6508444  3
   2787   2785   2797   2799     1  0.0000000  0.6508444  3
   2788   2784   2791   2792     1  0.0000000  1.2552000  3
   2788   2784   2791   2793     1  0.0000000  1.2552000  3
   2788   2800   2806   2807     1  0.0000000  0.6508444  3
   2788   2800   2806   2808     1  0.0000000  0.6508444  3
   2789   2788   2784   2791     1  0.0000000  1.2552000  3
   2789   2788   2800   2806     1  0.0000000  0.6508444  3
   2789   2788   2800   2801     1  0.0000000  0.6508444  3
   2789   2788   2800   2802     1  0.0000000  0.6508444  3
   2790   2788   2784   2791     1  0.0000000  1.2552000  3
   2790   2788   2800   2806     1  0.0000000  0.6508444  3
   2790   2788   2800   2801     1  0.0000000  0.6508444  3
   2790   2788   2800   2802     1  0.0000000  0.6508444  3
   2791   2794   2803   2804     1  0.0000000  0.6508444  3
   2791   2794   2803   2805     1  0.0000000  0.6508444  3
   2792   2791   2794   2803     1  0.0000000  0.6508444  3
   2792   2791   2794   2795     1  0.0000000  0.6508444  3
   2792   2791   2794   2796     1  0.0000000  0.6508444  3
   2793   2791   2794   2803     1  0.0000000  0.6508444  3
   2793   2791   2794   2795     1  0.0000000  0.6508444  3
   2793   2791   2794   2796     1  0.0000000  0.6508444  3
   2795   2794   2803   2812     1  0.0000000  1.0460000  1
   2795   2794   2803   2812     1  0.0000000  0.0000000  3
   2795   2794   2803   2804     1  0.0000000  0.6508444  3
   2795   2794   2803   2805     1  0.0000000  0.6508444  3
   2796   2794   2803   2812     1  0.0000000  1.0460000  1
   2796   2794   2803   2812     1  0.0000000  0.0000000  3
   2796   2794   2803   2804     1  0.0000000  0.6508444  3
   2796   2794   2803   2805     1  0.0000000  0.6508444  3
   2798   2797   2809   5683     1  0.0000000  1.0460000  1
   2798   2797   2809   5683     1  0.0000000  0.0000000  3
   2798   2797   2809   2810     1  0.0000000  0.6508444  3
   2798   2797   2809   2811     1  0.0000000  0.6508444  3
   2799   2797   2809   5683     1  0.0000000  1.0460000  1
   2799   2797   2809   5683     1  0.0000000  0.0000000  3
   2799   2797   2809   2810     1  0.0000000  0.6508444  3
   2799   2797   2809   2811     1  0.0000000  0.6508444  3
   2801   2800   2806   5654     1  0.0000000  1.0460000  1
   2801   2800   2806   5654     1  0.0000000  0.0000000  3
   2801   2800   2806   2807     1  0.0000000  0.6508444  3
   2801   2800   2806   2808     1  0.0000000  0.6508444  3
   2802   2800   2806   5654     1  0.0000000  1.0460000  1
   2802   2800   2806   5654     1  0.0000000  0.0000000  3
   2802   2800   2806   2807     1  0.0000000  0.6508444  3
   2802   2800   2806   2808     1  0.0000000  0.6508444  3
   2806   5654   5626   5627     1  0.0000000  1.6038667  3
   2806   5654   5626   5628     1  0.0000000  1.6038667  3
   2807   2806   5654   5626     1  0.0000000  1.6038667  3
   2808   2806   5654   5626     1  0.0000000  1.6038667  3
   2809   5683   5655   5656     1  0.0000000  1.6038667  3
   2809   5683   5655   5657     1  0.0000000  1.6038667  3
   2810   2809   5683   5655     1  0.0000000  1.6038667  3
   2811   2809   5683   5655     1  0.0000000  1.6038667  3
   2813   2814   2826   2827     1  0.0000000  0.6508444  3
   2813   2814   2826   2828     1  0.0000000  0.6508444  3
   2813   2817   2829   2830     1  0.0000000  0.6508444  3
   2813   2817   2829   2831     1  0.0000000  0.6508444  3
   2813   2820   2823   2824     1  0.0000000  0.6508444  3
   2813   2820   2823   2825     1  0.0000000  0.6508444  3
   2814   2813   2817   2818     1  0.0000000  1.2552000  3
   2814   2813   2817   2819     1  0.0000000  1.2552000  3
   2814   2813   2820   2821     1  0.0000000  1.2552000  3
   2814   2813   2820   2822     1  0.0000000  1.2552000  3
   2814   2826   2838   2839     1  0.0000000  0.6508444  3
   2814   2826   2838   2840     1  0.0000000  0.6508444  3
   2815   2814   2813   2817     1  0.0000000  1.2552000  3
   2815   2814   2813   2820     1  0.0000000  1.2552000  3
   2815   2814   2826   2838     1  0.0000000  0.6508444  3
   2815   2814   2826   2827     1  0.0000000  0.6508444  3
   2815   2814   2826   2828     1  0.0000000  0.6508444  3
   2816   2814   2813   2817     1  0.0000000  1.2552000  3
   2816   2814   2813   2820     1  0.0000000  1.2552000  3
   2816   2814   2826   2838     1  0.0000000  0.6508444  3
   2816   2814   2826   2827     1  0.0000000  0.6508444  3
   2816   2814   2826   2828     1  0.0000000  0.6508444  3
   2817   2813   2820   2821     1  0.0000000  1.2552000  3
   2817   2813   2820   2822     1  0.0000000  1.2552000  3
   2817   2829   2835   2836     1  0.0000000  0.6508444  3
   2817   2829   2835   2837     1  0.0000000  0.6508444  3
   2818   2817   2813   2820     1  0.0000000  1.2552000  3
   2818   2817   2829   2835     1  0.0000000  0.6508444  3
   2818   2817   2829   2830     1  0.0000000  0.6508444  3
   2818   2817   2829   2831     1  0.0000000  0.6508444  3
   2819   2817   2813   2820     1  0.0000000  1.2552000  3
   2819   2817   2829   2835     1  0.0000000  0.6508444  3
   2819   2817   2829   2830     1  0.0000000  0.6508444  3
   2819   2817   2829   2831     1  0.0000000  0.6508444  3
   2820   2823   2832   2833     1  0.0000000  0.6508444  3
   2820   2823   2832   2834     1  0.0000000  0.6508444  3
   2821   2820   2823   2832     1  0.0000000  0.6508444  3
   2821   2820   2823   2824     1  0.0000000  0.6508444  3
   2821   2820   2823   2825     1  0.0000000  0.6508444  3
   2822   2820   2823   2832     1  0.0000000  0.6508444  3
   2822   2820   2823   2824     1  0.0000000  0.6508444  3
   2822   2820   2823   2825     1  0.0000000  0.6508444  3
   2824   2823   2832   2841     1  0.0000000  1.0460000  1
   2824   2823   2832   2841     1  0.0000000  0.0000000  3
   2824   2823   2832   2833     1  0.0000000  0.6508444  3
   2824   2823   2832   2834     1  0.0000000  0.6508444  3
   2825   2823   2832   2841     1  0.0000000  1.0460000  1
   2825   2823   2832   2841     1  0.0000000  0.0000000  3
   2825   2823   2832   2833     1  0.0000000  0.6508444  3
   2825   2823   2832   2834     1  0.0000000  0.6508444  3
   2827   2826   2838   5741     1  0.0000000  1.0460000  1
   2827   2826   2838   5741     1  0.0000000  0.0000000  3
   2827   2826   2838   2839     1  0.0000000  0.6508444  3
   2827   2826   2838   2840     1  0.0000000  0.6508444  3
   2828   2826   2838   5741     1  0.0000000  1.0460000  1
   2828   2826   2838   5741     1  0.0000000  0.0000000  3
   2828   2826   2838   2839     1  0.0000000  0.6508444  3
   2828   2826   2838   2840     1  0.0000000  0.6508444  3
   2830   2829   2835   5712     1  0.0000000  1.0460000  1
   2830   2829   2835   5712     1  0.0000000  0.0000000  3
   2830   2829   2835   2836     1  0.0000000  0.6508444  3
   2830   2829   2835   2837     1  0.0000000  0.6508444  3
   2831   2829   2835   5712     1  0.0000000  1.0460000  1
   2831   2829   2835   5712     1  0.0000000  0.0000000  3
   2831   2829   2835   2836     1  0.0000000  0.6508444  3
   2831   2829   2835   2837     1  0.0000000  0.6508444  3
   2835   5712   5684   5685     1  0.0000000  1.6038667  3
   2835   5712   5684   5686     1  0.0000000  1.6038667  3
   2836   2835   5712   5684     1  0.0000000  1.6038667  3
   2837   2835   5712   5684     1  0.0000000  1.6038667  3
   2838   5741   5713   5714     1  0.0000000  1.6038667  3
   2838   5741   5713   5715     1  0.0000000  1.6038667  3
   2839   2838   5741   5713     1  0.0000000  1.6038667  3
   2840   2838   5741   5713     1  0.0000000  1.6038667  3
   2842   2843   2855   2856     1  0.0000000  0.6508444  3
   2842   2843   2855   2857     1  0.0000000  0.6508444  3
   2842   2846   2858   2859     1  0.0000000  0.6508444  3
   2842   2846   2858   2860     1  0.0000000  0.6508444  3
   2842   2849   2852   2853     1  0.0000000  0.6508444  3
   2842   2849   2852   2854     1  0.0000000  0.6508444  3
   2843   2842   2846   2847     1  0.0000000  1.2552000  3
   2843   2842   2846   2848     1  0.0000000  1.2552000  3
   2843   2842   2849   2850     1  0.0000000  1.2552000  3
   2843   2842   2849   2851     1  0.0000000  1.2552000  3
   2843   2855   2867   2868     1  0.0000000  0.6508444  3
   2843   2855   2867   2869     1  0.0000000  0.6508444  3
   2844   2843   2842   2846     1  0.0000000  1.2552000  3
   2844   2843   2842   2849     1  0.0000000  1.2552000  3
   2844   2843   2855   2867     1  0.0000000  0.6508444  3
   2844   2843   2855   2856     1  0.0000000  0.6508444  3
   2844   2843   2855   2857     1  0.0000000  0.6508444  3
   2845   2843   2842   2846     1  0.0000000  1.2552000  3
   2845   2843   2842   2849     1  0.0000000  1.2552000  3
   2845   2843   2855   2867     1  0.0000000  0.6508444  3
   2845   2843   2855   2856     1  0.0000000  0.6508444  3
   2845   2843   2855   2857     1  0.0000000  0.6508444  3
   2846   2842   2849   2850     1  0.0000000  1.2552000  3
   2846   2842   2849   2851     1  0.0000000  1.2552000  3
   2846   2858   2864   2865     1  0.0000000  0.6508444  3
   2846   2858   2864   2866     1  0.0000000  0.6508444  3
   2847   2846   2842   2849     1  0.0000000  1.2552000  3
   2847   2846   2858   2864     1  0.0000000  0.6508444  3
   2847   2846   2858   2859     1  0.0000000  0.6508444  3
   2847   2846   2858   2860     1  0.0000000  0.6508444  3
   2848   2846   2842   2849     1  0.0000000  1.2552000  3
   2848   2846   2858   2864     1  0.0000000  0.6508444  3
   2848   2846   2858   2859     1  0.0000000  0.6508444  3
   2848   2846   2858   2860     1  0.0000000  0.6508444  3
   2849   2852   2861   2862     1  0.0000000  0.6508444  3
   2849   2852   2861   2863     1  0.0000000  0.6508444  3
   2850   2849   2852   2861     1  0.0000000  0.6508444  3
   2850   2849   2852   2853     1  0.0000000  0.6508444  3
   2850   2849   2852   2854     1  0.0000000  0.6508444  3
   2851   2849   2852   2861     1  0.0000000  0.6508444  3
   2851   2849   2852   2853     1  0.0000000  0.6508444  3
   2851   2849   2852   2854     1  0.0000000  0.6508444  3
   2853   2852   2861   2870     1  0.0000000  1.0460000  1
   2853   2852   2861   2870     1  0.0000000  0.0000000  3
   2853   2852   2861   2862     1  0.0000000  0.6508444  3
   2853   2852   2861   2863     1  0.0000000  0.6508444  3
   2854   2852   2861   2870     1  0.0000000  1.0460000  1
   2854   2852   2861   2870     1  0.0000000  0.0000000  3
   2854   2852   2861   2862     1  0.0000000  0.6508444  3
   2854   2852   2861   2863     1  0.0000000  0.6508444  3
   2856   2855   2867   5799     1  0.0000000  1.0460000  1
   2856   2855   2867   5799     1  0.0000000  0.0000000  3
   2856   2855   2867   2868     1  0.0000000  0.6508444  3
   2856   2855   2867   2869     1  0.0000000  0.6508444  3
   2857   2855   2867   5799     1  0.0000000  1.0460000  1
   2857   2855   2867   5799     1  0.0000000  0.0000000  3
   2857   2855   2867   2868     1  0.0000000  0.6508444  3
   2857   2855   2867   2869     1  0.0000000  0.6508444  3
   2859   2858   2864   5770     1  0.0000000  1.0460000  1
   2859   2858   2864   5770     1  0.0000000  0.0000000  3
   2859   2858   2864   2865     1  0.0000000  0.6508444  3
   2859   2858   2864   2866     1  0.0000000  0.6508444  3
   2860   2858   2864   5770     1  0.0000000  1.0460000  1
   2860   2858   2864   5770     1  0.0000000  0.0000000  3
   2860   2858   2864   2865     1  0.0000000  0.6508444  3
   2860   2858   2864   2866     1  0.0000000  0.6508444  3
   2864   5770   5742   5743     1  0.0000000  1.6038667  3
   2864   5770   5742   5744     1  0.0000000  1.6038667  3
   2865   2864   5770   5742     1  0.0000000  1.6038667  3
   2866   2864   5770   5742     1  0.0000000  1.6038667  3
   2867   5799   5771   5772     1  0.0000000  1.6038667  3
   2867   5799   5771   5773     1  0.0000000  1.6038667  3
   2868   2867   5799   5771     1  0.0000000  1.6038667  3
   2869   2867   5799   5771     1  0.0000000  1.6038667  3
   2871   2872   2884   2885     1  0.0000000  0.6508444  3
   2871   2872   2884   2886     1  0.0000000  0.6508444  3
   2871   2875   2887   2888     1  0.0000000  0.6508444  3
   2871   2875   2887   2889     1  0.0000000  0.6508444  3
   2871   2878   2881   2882     1  0.0000000  0.6508444  3
   2871   2878   2881   2883     1  0.0000000  0.6508444  3
   2872   2871   2875   2876     1  0.0000000  1.2552000  3
   2872   2871   2875   2877     1  0.0000000  1.2552000  3
   2872   2871   2878   2879     1  0.0000000  1.2552000  3
   2872   2871   2878   2880     1  0.0000000  1.2552000  3
   2872   2884   2896   2897     1  0.0000000  0.6508444  3
   2872   2884   2896   2898     1  0.0000000  0.6508444  3
   2873   2872   2871   2875     1  0.0000000  1.2552000  3
   2873   2872   2871   2878     1  0.0000000  1.2552000  3
   2873   2872   2884   2896     1  0.0000000  0.6508444  3
   2873   2872   2884   2885     1  0.0000000  0.6508444  3
   2873   2872   2884   2886     1  0.0000000  0.6508444  3
   2874   2872   2871   2875     1  0.0000000  1.2552000  3
   2874   2872   2871   2878     1  0.0000000  1.2552000  3
   2874   2872   2884   2896     1  0.0000000  0.6508444  3
   2874   2872   2884   2885     1  0.0000000  0.6508444  3
   2874   2872   2884   2886     1  0.0000000  0.6508444  3
   2875   2871   2878   2879     1  0.0000000  1.2552000  3
   2875   2871   2878   2880     1  0.0000000  1.2552000  3
   2875   2887   2893   2894     1  0.0000000  0.6508444  3
   2875   2887   2893   2895     1  0.0000000  0.6508444  3
   2876   2875   2871   2878     1  0.0000000  1.2552000  3
   2876   2875   2887   2893     1  0.0000000  0.6508444  3
   2876   2875   2887   2888     1  0.0000000  0.6508444  3
   2876   2875   2887   2889     1  0.0000000  0.6508444  3
   2877   2875   2871   2878     1  0.0000000  1.2552000  3
   2877   2875   2887   2893     1  0.0000000  0.6508444  3
   2877   2875   2887   2888     1  0.0000000  0.6508444  3
   2877   2875   2887   2889     1  0.0000000  0.6508444  3
   2878   2881   2890   2891     1  0.0000000  0.6508444  3
   2878   2881   2890   2892     1  0.0000000  0.6508444  3
   2879   2878   2881   2890     1  0.0000000  0.6508444  3
   2879   2878   2881   2882     1  0.0000000  0.6508444  3
   2879   2878   2881   2883     1  0.0000000  0.6508444  3
   2880   2878   2881   2890     1  0.0000000  0.6508444  3
   2880   2878   2881   2882     1  0.0000000  0.6508444  3
   2880   2878   2881   2883     1  0.0000000  0.6508444  3
   2882   2881   2890   2899     1  0.0000000  1.0460000  1
   2882   2881   2890   2899     1  0.0000000  0.0000000  3
   2882   2881   2890   2891     1  0.0000000  0.6508444  3
   2882   2881   2890   2892     1  0.0000000  0.6508444  3
   2883   2881   2890   2899     1  0.0000000  1.0460000  1
   2883   2881   2890   2899     1  0.0000000  0.0000000  3
   2883   2881   2890   2891     1  0.0000000  0.6508444  3
   2883   2881   2890   2892     1  0.0000000  0.6508444  3
   2885   2884   2896   5857     1  0.0000000  1.0460000  1
   2885   2884   2896   5857     1  0.0000000  0.0000000  3
   2885   2884   2896   2897     1  0.0000000  0.6508444  3
   2885   2884   2896   2898     1  0.0000000  0.6508444  3
   2886   2884   2896   5857     1  0.0000000  1.0460000  1
   2886   2884   2896   5857     1  0.0000000  0.0000000  3
   2886   2884   2896   2897     1  0.0000000  0.6508444  3
   2886   2884   2896   2898     1  0.0000000  0.6508444  3
   2888   2887   2893   5828     1  0.0000000  1.0460000  1
   2888   2887   2893   5828     1  0.0000000  0.0000000  3
   2888   2887   2893   2894     1  0.0000000  0.6508444  3
   2888   2887   2893   2895     1  0.0000000  0.6508444  3
   2889   2887   2893   5828     1  0.0000000  1.0460000  1
   2889   2887   2893   5828     1  0.0000000  0.0000000  3
   2889   2887   2893   2894     1  0.0000000  0.6508444  3
   2889   2887   2893   2895     1  0.0000000  0.6508444  3
   2893   5828   5800   5801     1  0.0000000  1.6038667  3
   2893   5828   5800   5802     1  0.0000000  1.6038667  3
   2894   2893   5828   5800     1  0.0000000  1.6038667  3
   2895   2893   5828   5800     1  0.0000000  1.6038667  3
   2896   5857   5829   5830     1  0.0000000  1.6038667  3
   2896   5857   5829   5831     1  0.0000000  1.6038667  3
   2897   2896   5857   5829     1  0.0000000  1.6038667  3
   2898   2896   5857   5829     1  0.0000000  1.6038667  3
   2900   2901   2913   2914     1  0.0000000  0.6508444  3
   2900   2901   2913   2915     1  0.0000000  0.6508444  3
   2900   2904   2916   2917     1  0.0000000  0.6508444  3
   2900   2904   2916   2918     1  0.0000000  0.6508444  3
   2900   2907   2910   2911     1  0.0000000  0.6508444  3
   2900   2907   2910   2912     1  0.0000000  0.6508444  3
   2901   2900   2904   2905     1  0.0000000  1.2552000  3
   2901   2900   2904   2906     1  0.0000000  1.2552000  3
   2901   2900   2907   2908     1  0.0000000  1.2552000  3
   2901   2900   2907   2909     1  0.0000000  1.2552000  3
   2901   2913   2925   2926     1  0.0000000  0.6508444  3
   2901   2913   2925   2927     1  0.0000000  0.6508444  3
   2902   2901   2900   2904     1  0.0000000  1.2552000  3
   2902   2901   2900   2907     1  0.0000000  1.2552000  3
   2902   2901   2913   2925     1  0.0000000  0.6508444  3
   2902   2901   2913   2914     1  0.0000000  0.6508444  3
   2902   2901   2913   2915     1  0.0000000  0.6508444  3
   2903   2901   2900   2904     1  0.0000000  1.2552000  3
   2903   2901   2900   2907     1  0.0000000  1.2552000  3
   2903   2901   2913   2925     1  0.0000000  0.6508444  3
   2903   2901   2913   2914     1  0.0000000  0.6508444  3
   2903   2901   2913   2915     1  0.0000000  0.6508444  3
   2904   2900   2907   2908     1  0.0000000  1.2552000  3
   2904   2900   2907   2909     1  0.0000000  1.2552000  3
   2904   2916   2922   2923     1  0.0000000  0.6508444  3
   2904   2916   2922   2924     1  0.0000000  0.6508444  3
   2905   2904   2900   2907     1  0.0000000  1.2552000  3
   2905   2904   2916   2922     1  0.0000000  0.6508444  3
   2905   2904   2916   2917     1  0.0000000  0.6508444  3
   2905   2904   2916   2918     1  0.0000000  0.6508444  3
   2906   2904   2900   2907     1  0.0000000  1.2552000  3
   2906   2904   2916   2922     1  0.0000000  0.6508444  3
   2906   2904   2916   2917     1  0.0000000  0.6508444  3
   2906   2904   2916   2918     1  0.0000000  0.6508444  3
   2907   2910   2919   2920     1  0.0000000  0.6508444  3
   2907   2910   2919   2921     1  0.0000000  0.6508444  3
   2908   2907   2910   2919     1  0.0000000  0.6508444  3
   2908   2907   2910   2911     1  0.0000000  0.6508444  3
   2908   2907   2910   2912     1  0.0000000  0.6508444  3
   2909   2907   2910   2919     1  0.0000000  0.6508444  3
   2909   2907   2910   2911     1  0.0000000  0.6508444  3
   2909   2907   2910   2912     1  0.0000000  0.6508444  3
   2911   2910   2919   2928     1  0.0000000  1.0460000  1
   2911   2910   2919   2928     1  0.0000000  0.0000000  3
   2911   2910   2919   2920     1  0.0000000  0.6508444  3
   2911   2910   2919   2921     1  0.0000000  0.6508444  3
   2912   2910   2919   2928     1  0.0000000  1.0460000  1
   2912   2910   2919   2928     1  0.0000000  0.0000000  3
   2912   2910   2919   2920     1  0.0000000  0.6508444  3
   2912   2910   2919   2921     1  0.0000000  0.6508444  3
   2914   2913   2925   5915     1  0.0000000  1.0460000  1
   2914   2913   2925   5915     1  0.0000000  0.0000000  3
   2914   2913   2925   2926     1  0.0000000  0.6508444  3
   2914   2913   2925   2927     1  0.0000000  0.6508444  3
   2915   2913   2925   5915     1  0.0000000  1.0460000  1
   2915   2913   2925   5915     1  0.0000000  0.0000000  3
   2915   2913   2925   2926     1  0.0000000  0.6508444  3
   2915   2913   2925   2927     1  0.0000000  0.6508444  3
   2917   2916   2922   5886     1  0.0000000  1.0460000  1
   2917   2916   2922   5886     1  0.0000000  0.0000000  3
   2917   2916   2922   2923     1  0.0000000  0.6508444  3
   2917   2916   2922   2924     1  0.0000000  0.6508444  3
   2918   2916   2922   5886     1  0.0000000  1.0460000  1
   2918   2916   2922   5886     1  0.0000000  0.0000000  3
   2918   2916   2922   2923     1  0.0000000  0.6508444  3
   2918   2916   2922   2924     1  0.0000000  0.6508444  3
   2922   5886   5858   5859     1  0.0000000  1.6038667  3
   2922   5886   5858   5860     1  0.0000000  1.6038667  3
   2923   2922   5886   5858     1  0.0000000  1.6038667  3
   2924   2922   5886   5858     1  0.0000000  1.6038667  3
   2925   5915   5887   5888     1  0.0000000  1.6038667  3
   2925   5915   5887   5889     1  0.0000000  1.6038667  3
   2926   2925   5915   5887     1  0.0000000  1.6038667  3
   2927   2925   5915   5887     1  0.0000000  1.6038667  3
   2929   2930   2942   2943     1  0.0000000  0.6508444  3
   2929   2930   2942   2944     1  0.0000000  0.6508444  3
   2929   2933   2945   2946     1  0.0000000  0.6508444  3
   2929   2933   2945   2947     1  0.0000000  0.6508444  3
   2929   2936   2939   2940     1  0.0000000  0.6508444  3
   2929   2936   2939   2941     1  0.0000000  0.6508444  3
   2930   2929   2933   2934     1  0.0000000  1.2552000  3
   2930   2929   2933   2935     1  0.0000000  1.2552000  3
   2930   2929   2936   2937     1  0.0000000  1.2552000  3
   2930   2929   2936   2938     1  0.0000000  1.2552000  3
   2930   2942   2954   2955     1  0.0000000  0.6508444  3
   2930   2942   2954   2956     1  0.0000000  0.6508444  3
   2931   2930   2929   2933     1  0.0000000  1.2552000  3
   2931   2930   2929   2936     1  0.0000000  1.2552000  3
   2931   2930   2942   2954     1  0.0000000  0.6508444  3
   2931   2930   2942   2943     1  0.0000000  0.6508444  3
   2931   2930   2942   2944     1  0.0000000  0.6508444  3
   2932   2930   2929   2933     1  0.0000000  1.2552000  3
   2932   2930   2929   2936     1  0.0000000  1.2552000  3
   2932   2930   2942   2954     1  0.0000000  0.6508444  3
   2932   2930   2942   2943     1  0.0000000  0.6508444  3
   2932   2930   2942   2944     1  0.0000000  0.6508444  3
   2933   2929   2936   2937     1  0.0000000  1.2552000  3
   2933   2929   2936   2938     1  0.0000000  1.2552000  3
   2933   2945   2951   2952     1  0.0000000  0.6508444  3
   2933   2945   2951   2953     1  0.0000000  0.6508444  3
   2934   2933   2929   2936     1  0.0000000  1.2552000  3
   2934   2933   2945   2951     1  0.0000000  0.6508444  3
   2934   2933   2945   2946     1  0.0000000  0.6508444  3
   2934   2933   2945   2947     1  0.0000000  0.6508444  3
   2935   2933   2929   2936     1  0.0000000  1.2552000  3
   2935   2933   2945   2951     1  0.0000000  0.6508444  3
   2935   2933   2945   2946     1  0.0000000  0.6508444  3
   2935   2933   2945   2947     1  0.0000000  0.6508444  3
   2936   2939   2948   2949     1  0.0000000  0.6508444  3
   2936   2939   2948   2950     1  0.0000000  0.6508444  3
   2937   2936   2939   2948     1  0.0000000  0.6508444  3
   2937   2936   2939   2940     1  0.0000000  0.6508444  3
   2937   2936   2939   2941     1  0.0000000  0.6508444  3
   2938   2936   2939   2948     1  0.0000000  0.6508444  3
   2938   2936   2939   2940     1  0.0000000  0.6508444  3
   2938   2936   2939   2941     1  0.0000000  0.6508444  3
   2940   2939   2948   2957     1  0.0000000  1.0460000  1
   2940   2939   2948   2957     1  0.0000000  0.0000000  3
   2940   2939   2948   2949     1  0.0000000  0.6508444  3
   2940   2939   2948   2950     1  0.0000000  0.6508444  3
   2941   2939   2948   2957     1  0.0000000  1.0460000  1
   2941   2939   2948   2957     1  0.0000000  0.0000000  3
   2941   2939   2948   2949     1  0.0000000  0.6508444  3
   2941   2939   2948   2950     1  0.0000000  0.6508444  3
   2943   2942   2954   5973     1  0.0000000  1.0460000  1
   2943   2942   2954   5973     1  0.0000000  0.0000000  3
   2943   2942   2954   2955     1  0.0000000  0.6508444  3
   2943   2942   2954   2956     1  0.0000000  0.6508444  3
   2944   2942   2954   5973     1  0.0000000  1.0460000  1
   2944   2942   2954   5973     1  0.0000000  0.0000000  3
   2944   2942   2954   2955     1  0.0000000  0.6508444  3
   2944   2942   2954   2956     1  0.0000000  0.6508444  3
   2946   2945   2951   5944     1  0.0000000  1.0460000  1
   2946   2945   2951   5944     1  0.0000000  0.0000000  3
   2946   2945   2951   2952     1  0.0000000  0.6508444  3
   2946   2945   2951   2953     1  0.0000000  0.6508444  3
   2947   2945   2951   5944     1  0.0000000  1.0460000  1
   2947   2945   2951   5944     1  0.0000000  0.0000000  3
   2947   2945   2951   2952     1  0.0000000  0.6508444  3
   2947   2945   2951   2953     1  0.0000000  0.6508444  3
   2951   5944   5916   5917     1  0.0000000  1.6038667  3
   2951   5944   5916   5918     1  0.0000000  1.6038667  3
   2952   2951   5944   5916     1  0.0000000  1.6038667  3
   2953   2951   5944   5916     1  0.0000000  1.6038667  3
   2954   5973   5945   5946     1  0.0000000  1.6038667  3
   2954   5973   5945   5947     1  0.0000000  1.6038667  3
   2955   2954   5973   5945     1  0.0000000  1.6038667  3
   2956   2954   5973   5945     1  0.0000000  1.6038667  3
   2958   2959   2971   2972     1  0.0000000  0.6508444  3
   2958   2959   2971   2973     1  0.0000000  0.6508444  3
   2958   2962   2974   2975     1  0.0000000  0.6508444  3
   2958   2962   2974   2976     1  0.0000000  0.6508444  3
   2958   2965   2968   2969     1  0.0000000  0.6508444  3
   2958   2965   2968   2970     1  0.0000000  0.6508444  3
   2959   2958   2962   2963     1  0.0000000  1.2552000  3
   2959   2958   2962   2964     1  0.0000000  1.2552000  3
   2959   2958   2965   2966     1  0.0000000  1.2552000  3
   2959   2958   2965   2967     1  0.0000000  1.2552000  3
   2959   2971   2983   2984     1  0.0000000  0.6508444  3
   2959   2971   2983   2985     1  0.0000000  0.6508444  3
   2960   2959   2958   2962     1  0.0000000  1.2552000  3
   2960   2959   2958   2965     1  0.0000000  1.2552000  3
   2960   2959   2971   2983     1  0.0000000  0.6508444  3
   2960   2959   2971   2972     1  0.0000000  0.6508444  3
   2960   2959   2971   2973     1  0.0000000  0.6508444  3
   2961   2959   2958   2962     1  0.0000000  1.2552000  3
   2961   2959   2958   2965     1  0.0000000  1.2552000  3
   2961   2959   2971   2983     1  0.0000000  0.6508444  3
   2961   2959   2971   2972     1  0.0000000  0.6508444  3
   2961   2959   2971   2973     1  0.0000000  0.6508444  3
   2962   2958   2965   2966     1  0.0000000  1.2552000  3
   2962   2958   2965   2967     1  0.0000000  1.2552000  3
   2962   2974   2980   2981     1  0.0000000  0.6508444  3
   2962   2974   2980   2982     1  0.0000000  0.6508444  3
   2963   2962   2958   2965     1  0.0000000  1.2552000  3
   2963   2962   2974   2980     1  0.0000000  0.6508444  3
   2963   2962   2974   2975     1  0.0000000  0.6508444  3
   2963   2962   2974   2976     1  0.0000000  0.6508444  3
   2964   2962   2958   2965     1  0.0000000  1.2552000  3
   2964   2962   2974   2980     1  0.0000000  0.6508444  3
   2964   2962   2974   2975     1  0.0000000  0.6508444  3
   2964   2962   2974   2976     1  0.0000000  0.6508444  3
   2965   2968   2977   2978     1  0.0000000  0.6508444  3
   2965   2968   2977   2979     1  0.0000000  0.6508444  3
   2966   2965   2968   2977     1  0.0000000  0.6508444  3
   2966   2965   2968   2969     1  0.0000000  0.6508444  3
   2966   2965   2968   2970     1  0.0000000  0.6508444  3
   2967   2965   2968   2977     1  0.0000000  0.6508444  3
   2967   2965   2968   2969     1  0.0000000  0.6508444  3
   2967   2965   2968   2970     1  0.0000000  0.6508444  3
   2969   2968   2977   2986     1  0.0000000  1.0460000  1
   2969   2968   2977   2986     1  0.0000000  0.0000000  3
   2969   2968   2977   2978     1  0.0000000  0.6508444  3
   2969   2968   2977   2979     1  0.0000000  0.6508444  3
   2970   2968   2977   2986     1  0.0000000  1.0460000  1
   2970   2968   2977   2986     1  0.0000000  0.0000000  3
   2970   2968   2977   2978     1  0.0000000  0.6508444  3
   2970   2968   2977   2979     1  0.0000000  0.6508444  3
   2972   2971   2983   6031     1  0.0000000  1.0460000  1
   2972   2971   2983   6031     1  0.0000000  0.0000000  3
   2972   2971   2983   2984     1  0.0000000  0.6508444  3
   2972   2971   2983   2985     1  0.0000000  0.6508444  3
   2973   2971   2983   6031     1  0.0000000  1.0460000  1
   2973   2971   2983   6031     1  0.0000000  0.0000000  3
   2973   2971   2983   2984     1  0.0000000  0.6508444  3
   2973   2971   2983   2985     1  0.0000000  0.6508444  3
   2975   2974   2980   6002     1  0.0000000  1.0460000  1
   2975   2974   2980   6002     1  0.0000000  0.0000000  3
   2975   2974   2980   2981     1  0.0000000  0.6508444  3
   2975   2974   2980   2982     1  0.0000000  0.6508444  3
   2976   2974   2980   6002     1  0.0000000  1.0460000  1
   2976   2974   2980   6002     1  0.0000000  0.0000000  3
   2976   2974   2980   2981     1  0.0000000  0.6508444  3
   2976   2974   2980   2982     1  0.0000000  0.6508444  3
   2980   6002   5974   5975     1  0.0000000  1.6038667  3
   2980   6002   5974   5976     1  0.0000000  1.6038667  3
   2981   2980   6002   5974     1  0.0000000  1.6038667  3
   2982   2980   6002   5974     1  0.0000000  1.6038667  3
   2983   6031   6003   6004     1  0.0000000  1.6038667  3
   2983   6031   6003   6005     1  0.0000000  1.6038667  3
   2984   2983   6031   6003     1  0.0000000  1.6038667  3
   2985   2983   6031   6003     1  0.0000000  1.6038667  3
   2987   2988   3000   3001     1  0.0000000  0.6508444  3
   2987   2988   3000   3002     1  0.0000000  0.6508444  3
   2987   2991   3003   3004     1  0.0000000  0.6508444  3
   2987   2991   3003   3005     1  0.0000000  0.6508444  3
   2987   2994   2997   2998     1  0.0000000  0.6508444  3
   2987   2994   2997   2999     1  0.0000000  0.6508444  3
   2988   2987   2991   2992     1  0.0000000  1.2552000  3
   2988   2987   2991   2993     1  0.0000000  1.2552000  3
   2988   2987   2994   2995     1  0.0000000  1.2552000  3
   2988   2987   2994   2996     1  0.0000000  1.2552000  3
   2988   3000   3012   3013     1  0.0000000  0.6508444  3
   2988   3000   3012   3014     1  0.0000000  0.6508444  3
   2989   2988   2987   2991     1  0.0000000  1.2552000  3
   2989   2988   2987   2994     1  0.0000000  1.2552000  3
   2989   2988   3000   3012     1  0.0000000  0.6508444  3
   2989   2988   3000   3001     1  0.0000000  0.6508444  3
   2989   2988   3000   3002     1  0.0000000  0.6508444  3
   2990   2988   2987   2991     1  0.0000000  1.2552000  3
   2990   2988   2987   2994     1  0.0000000  1.2552000  3
   2990   2988   3000   3012     1  0.0000000  0.6508444  3
   2990   2988   3000   3001     1  0.0000000  0.6508444  3
   2990   2988   3000   3002     1  0.0000000  0.6508444  3
   2991   2987   2994   2995     1  0.0000000  1.2552000  3
   2991   2987   2994   2996     1  0.0000000  1.2552000  3
   2991   3003   3009   3010     1  0.0000000  0.6508444  3
   2991   3003   3009   3011     1  0.0000000  0.6508444  3
   2992   2991   2987   2994     1  0.0000000  1.2552000  3
   2992   2991   3003   3009     1  0.0000000  0.6508444  3
   2992   2991   3003   3004     1  0.0000000  0.6508444  3
   2992   2991   3003   3005     1  0.0000000  0.6508444  3
   2993   2991   2987   2994     1  0.0000000  1.2552000  3
   2993   2991   3003   3009     1  0.0000000  0.6508444  3
   2993   2991   3003   3004     1  0.0000000  0.6508444  3
   2993   2991   3003   3005     1  0.0000000  0.6508444  3
   2994   2997   3006   3007     1  0.0000000  0.6508444  3
   2994   2997   3006   3008     1  0.0000000  0.6508444  3
   2995   2994   2997   3006     1  0.0000000  0.6508444  3
   2995   2994   2997   2998     1  0.0000000  0.6508444  3
   2995   2994   2997   2999     1  0.0000000  0.6508444  3
   2996   2994   2997   3006     1  0.0000000  0.6508444  3
   2996   2994   2997   2998     1  0.0000000  0.6508444  3
   2996   2994   2997   2999     1  0.0000000  0.6508444  3
   2998   2997   3006   3015     1  0.0000000  1.0460000  1
   2998   2997   3006   3015     1  0.0000000  0.0000000  3
   2998   2997   3006   3007     1  0.0000000  0.6508444  3
   2998   2997   3006   3008     1  0.0000000  0.6508444  3
   2999   2997   3006   3015     1  0.0000000  1.0460000  1
   2999   2997   3006   3015     1  0.0000000  0.0000000  3
   2999   2997   3006   3007     1  0.0000000  0.6508444  3
   2999   2997   3006   3008     1  0.0000000  0.6508444  3
   3001   3000   3012   6089     1  0.0000000  1.0460000  1
   3001   3000   3012   6089     1  0.0000000  0.0000000  3
   3001   3000   3012   3013     1  0.0000000  0.6508444  3
   3001   3000   3012   3014     1  0.0000000  0.6508444  3
   3002   3000   3012   6089     1  0.0000000  1.0460000  1
   3002   3000   3012   6089     1  0.0000000  0.0000000  3
   3002   3000   3012   3013     1  0.0000000  0.6508444  3
   3002   3000   3012   3014     1  0.0000000  0.6508444  3
   3004   3003   3009   6060     1  0.0000000  1.0460000  1
   3004   3003   3009   6060     1  0.0000000  0.0000000  3
   3004   3003   3009   3010     1  0.0000000  0.6508444  3
   3004   3003   3009   3011     1  0.0000000  0.6508444  3
   3005   3003   3009   6060     1  0.0000000  1.0460000  1
   3005   3003   3009   6060     1  0.0000000  0.0000000  3
   3005   3003   3009   3010     1  0.0000000  0.6508444  3
   3005   3003   3009   3011     1  0.0000000  0.6508444  3
   3009   6060   6032   6033     1  0.0000000  1.6038667  3
   3009   6060   6032   6034     1  0.0000000  1.6038667  3
   3010   3009   6060   6032     1  0.0000000  1.6038667  3
   3011   3009   6060   6032     1  0.0000000  1.6038667  3
   3012   6089   6061   6062     1  0.0000000  1.6038667  3
   3012   6089   6061   6063     1  0.0000000  1.6038667  3
   3013   3012   6089   6061     1  0.0000000  1.6038667  3
   3014   3012   6089   6061     1  0.0000000  1.6038667  3
   3016   3017   3029   3030     1  0.0000000  0.6508444  3
   3016   3017   3029   3031     1  0.0000000  0.6508444  3
   3016   3020   3032   3033     1  0.0000000  0.6508444  3
   3016   3020   3032   3034     1  0.0000000  0.6508444  3
   3016   3023   3026   3027     1  0.0000000  0.6508444  3
   3016   3023   3026   3028     1  0.0000000  0.6508444  3
   3017   3016   3020   3021     1  0.0000000  1.2552000  3
   3017   3016   3020   3022     1  0.0000000  1.2552000  3
   3017   3016   3023   3024     1  0.0000000  1.2552000  3
   3017   3016   3023   3025     1  0.0000000  1.2552000  3
   3017   3029   3041   3042     1  0.0000000  0.6508444  3
   3017   3029   3041   3043     1  0.0000000  0.6508444  3
   3018   3017   3016   3020     1  0.0000000  1.2552000  3
   3018   3017   3016   3023     1  0.0000000  1.2552000  3
   3018   3017   3029   3041     1  0.0000000  0.6508444  3
   3018   3017   3029   3030     1  0.0000000  0.6508444  3
   3018   3017   3029   3031     1  0.0000000  0.6508444  3
   3019   3017   3016   3020     1  0.0000000  1.2552000  3
   3019   3017   3016   3023     1  0.0000000  1.2552000  3
   3019   3017   3029   3041     1  0.0000000  0.6508444  3
   3019   3017   3029   3030     1  0.0000000  0.6508444  3
   3019   3017   3029   3031     1  0.0000000  0.6508444  3
   3020   3016   3023   3024     1  0.0000000  1.2552000  3
   3020   3016   3023   3025     1  0.0000000  1.2552000  3
   3020   3032   3038   3039     1  0.0000000  0.6508444  3
   3020   3032   3038   3040     1  0.0000000  0.6508444  3
   3021   3020   3016   3023     1  0.0000000  1.2552000  3
   3021   3020   3032   3038     1  0.0000000  0.6508444  3
   3021   3020   3032   3033     1  0.0000000  0.6508444  3
   3021   3020   3032   3034     1  0.0000000  0.6508444  3
   3022   3020   3016   3023     1  0.0000000  1.2552000  3
   3022   3020   3032   3038     1  0.0000000  0.6508444  3
   3022   3020   3032   3033     1  0.0000000  0.6508444  3
   3022   3020   3032   3034     1  0.0000000  0.6508444  3
   3023   3026   3035   3036     1  0.0000000  0.6508444  3
   3023   3026   3035   3037     1  0.0000000  0.6508444  3
   3024   3023   3026   3035     1  0.0000000  0.6508444  3
   3024   3023   3026   3027     1  0.0000000  0.6508444  3
   3024   3023   3026   3028     1  0.0000000  0.6508444  3
   3025   3023   3026   3035     1  0.0000000  0.6508444  3
   3025   3023   3026   3027     1  0.0000000  0.6508444  3
   3025   3023   3026   3028     1  0.0000000  0.6508444  3
   3027   3026   3035   3044     1  0.0000000  1.0460000  1
   3027   3026   3035   3044     1  0.0000000  0.0000000  3
   3027   3026   3035   3036     1  0.0000000  0.6508444  3
   3027   3026   3035   3037     1  0.0000000  0.6508444  3
   3028   3026   3035   3044     1  0.0000000  1.0460000  1
   3028   3026   3035   3044     1  0.0000000  0.0000000  3
   3028   3026   3035   3036     1  0.0000000  0.6508444  3
   3028   3026   3035   3037     1  0.0000000  0.6508444  3
   3030   3029   3041   6147     1  0.0000000  1.0460000  1
   3030   3029   3041   6147     1  0.0000000  0.0000000  3
   3030   3029   3041   3042     1  0.0000000  0.6508444  3
   3030   3029   3041   3043     1  0.0000000  0.6508444  3
   3031   3029   3041   6147     1  0.0000000  1.0460000  1
   3031   3029   3041   6147     1  0.0000000  0.0000000  3
   3031   3029   3041   3042     1  0.0000000  0.6508444  3
   3031   3029   3041   3043     1  0.0000000  0.6508444  3
   3033   3032   3038   6118     1  0.0000000  1.0460000  1
   3033   3032   3038   6118     1  0.0000000  0.0000000  3
   3033   3032   3038   3039     1  0.0000000  0.6508444  3
   3033   3032   3038   3040     1  0.0000000  0.6508444  3
   3034   3032   3038   6118     1  0.0000000  1.0460000  1
   3034   3032   3038   6118     1  0.0000000  0.0000000  3
   3034   3032   3038   3039     1  0.0000000  0.6508444  3
   3034   3032   3038   3040     1  0.0000000  0.6508444  3
   3038   6118   6090   6091     1  0.0000000  1.6038667  3
   3038   6118   6090   6092     1  0.0000000  1.6038667  3
   3039   3038   6118   6090     1  0.0000000  1.6038667  3
   3040   3038   6118   6090     1  0.0000000  1.6038667  3
   3041   6147   6119   6120     1  0.0000000  1.6038667  3
   3041   6147   6119   6121     1  0.0000000  1.6038667  3
   3042   3041   6147   6119     1  0.0000000  1.6038667  3
   3043   3041   6147   6119     1  0.0000000  1.6038667  3
   3045   3046   3058   3059     1  0.0000000  0.6508444  3
   3045   3046   3058   3060     1  0.0000000  0.6508444  3
   3045   3049   3061   3062     1  0.0000000  0.6508444  3
   3045   3049   3061   3063     1  0.0000000  0.6508444  3
   3045   3052   3055   3056     1  0.0000000  0.6508444  3
   3045   3052   3055   3057     1  0.0000000  0.6508444  3
   3046   3045   3049   3050     1  0.0000000  1.2552000  3
   3046   3045   3049   3051     1  0.0000000  1.2552000  3
   3046   3045   3052   3053     1  0.0000000  1.2552000  3
   3046   3045   3052   3054     1  0.0000000  1.2552000  3
   3046   3058   3070   3071     1  0.0000000  0.6508444  3
   3046   3058   3070   3072     1  0.0000000  0.6508444  3
   3047   3046   3045   3049     1  0.0000000  1.2552000  3
   3047   3046   3045   3052     1  0.0000000  1.2552000  3
   3047   3046   3058   3070     1  0.0000000  0.6508444  3
   3047   3046   3058   3059     1  0.0000000  0.6508444  3
   3047   3046   3058   3060     1  0.0000000  0.6508444  3
   3048   3046   3045   3049     1  0.0000000  1.2552000  3
   3048   3046   3045   3052     1  0.0000000  1.2552000  3
   3048   3046   3058   3070     1  0.0000000  0.6508444  3
   3048   3046   3058   3059     1  0.0000000  0.6508444  3
   3048   3046   3058   3060     1  0.0000000  0.6508444  3
   3049   3045   3052   3053     1  0.0000000  1.2552000  3
   3049   3045   3052   3054     1  0.0000000  1.2552000  3
   3049   3061   3067   3068     1  0.0000000  0.6508444  3
   3049   3061   3067   3069     1  0.0000000  0.6508444  3
   3050   3049   3045   3052     1  0.0000000  1.2552000  3
   3050   3049   3061   3067     1  0.0000000  0.6508444  3
   3050   3049   3061   3062     1  0.0000000  0.6508444  3
   3050   3049   3061   3063     1  0.0000000  0.6508444  3
   3051   3049   3045   3052     1  0.0000000  1.2552000  3
   3051   3049   3061   3067     1  0.0000000  0.6508444  3
   3051   3049   3061   3062     1  0.0000000  0.6508444  3
   3051   3049   3061   3063     1  0.0000000  0.6508444  3
   3052   3055   3064   3065     1  0.0000000  0.6508444  3
   3052   3055   3064   3066     1  0.0000000  0.6508444  3
   3053   3052   3055   3064     1  0.0000000  0.6508444  3
   3053   3052   3055   3056     1  0.0000000  0.6508444  3
   3053   3052   3055   3057     1  0.0000000  0.6508444  3
   3054   3052   3055   3064     1  0.0000000  0.6508444  3
   3054   3052   3055   3056     1  0.0000000  0.6508444  3
   3054   3052   3055   3057     1  0.0000000  0.6508444  3
   3056   3055   3064   3073     1  0.0000000  1.0460000  1
   3056   3055   3064   3073     1  0.0000000  0.0000000  3
   3056   3055   3064   3065     1  0.0000000  0.6508444  3
   3056   3055   3064   3066     1  0.0000000  0.6508444  3
   3057   3055   3064   3073     1  0.0000000  1.0460000  1
   3057   3055   3064   3073     1  0.0000000  0.0000000  3
   3057   3055   3064   3065     1  0.0000000  0.6508444  3
   3057   3055   3064   3066     1  0.0000000  0.6508444  3
   3059   3058   3070   6205     1  0.0000000  1.0460000  1
   3059   3058   3070   6205     1  0.0000000  0.0000000  3
   3059   3058   3070   3071     1  0.0000000  0.6508444  3
   3059   3058   3070   3072     1  0.0000000  0.6508444  3
   3060   3058   3070   6205     1  0.0000000  1.0460000  1
   3060   3058   3070   6205     1  0.0000000  0.0000000  3
   3060   3058   3070   3071     1  0.0000000  0.6508444  3
   3060   3058   3070   3072     1  0.0000000  0.6508444  3
   3062   3061   3067   6176     1  0.0000000  1.0460000  1
   3062   3061   3067   6176     1  0.0000000  0.0000000  3
   3062   3061   3067   3068     1  0.0000000  0.6508444  3
   3062   3061   3067   3069     1  0.0000000  0.6508444  3
   3063   3061   3067   6176     1  0.0000000  1.0460000  1
   3063   3061   3067   6176     1  0.0000000  0.0000000  3
   3063   3061   3067   3068     1  0.0000000  0.6508444  3
   3063   3061   3067   3069     1  0.0000000  0.6508444  3
   3067   6176   6148   6149     1  0.0000000  1.6038667  3
   3067   6176   6148   6150     1  0.0000000  1.6038667  3
   3068   3067   6176   6148     1  0.0000000  1.6038667  3
   3069   3067   6176   6148     1  0.0000000  1.6038667  3
   3070   6205   6177   6178     1  0.0000000  1.6038667  3
   3070   6205   6177   6179     1  0.0000000  1.6038667  3
   3071   3070   6205   6177     1  0.0000000  1.6038667  3
   3072   3070   6205   6177     1  0.0000000  1.6038667  3
   3074   3075   3087   3088     1  0.0000000  0.6508444  3
   3074   3075   3087   3089     1  0.0000000  0.6508444  3
   3074   3078   3090   3091     1  0.0000000  0.6508444  3
   3074   3078   3090   3092     1  0.0000000  0.6508444  3
   3074   3081   3084   3085     1  0.0000000  0.6508444  3
   3074   3081   3084   3086     1  0.0000000  0.6508444  3
   3075   3074   3078   3079     1  0.0000000  1.2552000  3
   3075   3074   3078   3080     1  0.0000000  1.2552000  3
   3075   3074   3081   3082     1  0.0000000  1.2552000  3
   3075   3074   3081   3083     1  0.0000000  1.2552000  3
   3075   3087   3099   3100     1  0.0000000  0.6508444  3
   3075   3087   3099   3101     1  0.0000000  0.6508444  3
   3076   3075   3074   3078     1  0.0000000  1.2552000  3
   3076   3075   3074   3081     1  0.0000000  1.2552000  3
   3076   3075   3087   3099     1  0.0000000  0.6508444  3
   3076   3075   3087   3088     1  0.0000000  0.6508444  3
   3076   3075   3087   3089     1  0.0000000  0.6508444  3
   3077   3075   3074   3078     1  0.0000000  1.2552000  3
   3077   3075   3074   3081     1  0.0000000  1.2552000  3
   3077   3075   3087   3099     1  0.0000000  0.6508444  3
   3077   3075   3087   3088     1  0.0000000  0.6508444  3
   3077   3075   3087   3089     1  0.0000000  0.6508444  3
   3078   3074   3081   3082     1  0.0000000  1.2552000  3
   3078   3074   3081   3083     1  0.0000000  1.2552000  3
   3078   3090   3096   3097     1  0.0000000  0.6508444  3
   3078   3090   3096   3098     1  0.0000000  0.6508444  3
   3079   3078   3074   3081     1  0.0000000  1.2552000  3
   3079   3078   3090   3096     1  0.0000000  0.6508444  3
   3079   3078   3090   3091     1  0.0000000  0.6508444  3
   3079   3078   3090   3092     1  0.0000000  0.6508444  3
   3080   3078   3074   3081     1  0.0000000  1.2552000  3
   3080   3078   3090   3096     1  0.0000000  0.6508444  3
   3080   3078   3090   3091     1  0.0000000  0.6508444  3
   3080   3078   3090   3092     1  0.0000000  0.6508444  3
   3081   3084   3093   3094     1  0.0000000  0.6508444  3
   3081   3084   3093   3095     1  0.0000000  0.6508444  3
   3082   3081   3084   3093     1  0.0000000  0.6508444  3
   3082   3081   3084   3085     1  0.0000000  0.6508444  3
   3082   3081   3084   3086     1  0.0000000  0.6508444  3
   3083   3081   3084   3093     1  0.0000000  0.6508444  3
   3083   3081   3084   3085     1  0.0000000  0.6508444  3
   3083   3081   3084   3086     1  0.0000000  0.6508444  3
   3085   3084   3093   3102     1  0.0000000  1.0460000  1
   3085   3084   3093   3102     1  0.0000000  0.0000000  3
   3085   3084   3093   3094     1  0.0000000  0.6508444  3
   3085   3084   3093   3095     1  0.0000000  0.6508444  3
   3086   3084   3093   3102     1  0.0000000  1.0460000  1
   3086   3084   3093   3102     1  0.0000000  0.0000000  3
   3086   3084   3093   3094     1  0.0000000  0.6508444  3
   3086   3084   3093   3095     1  0.0000000  0.6508444  3
   3088   3087   3099   6263     1  0.0000000  1.0460000  1
   3088   3087   3099   6263     1  0.0000000  0.0000000  3
   3088   3087   3099   3100     1  0.0000000  0.6508444  3
   3088   3087   3099   3101     1  0.0000000  0.6508444  3
   3089   3087   3099   6263     1  0.0000000  1.0460000  1
   3089   3087   3099   6263     1  0.0000000  0.0000000  3
   3089   3087   3099   3100     1  0.0000000  0.6508444  3
   3089   3087   3099   3101     1  0.0000000  0.6508444  3
   3091   3090   3096   6234     1  0.0000000  1.0460000  1
   3091   3090   3096   6234     1  0.0000000  0.0000000  3
   3091   3090   3096   3097     1  0.0000000  0.6508444  3
   3091   3090   3096   3098     1  0.0000000  0.6508444  3
   3092   3090   3096   6234     1  0.0000000  1.0460000  1
   3092   3090   3096   6234     1  0.0000000  0.0000000  3
   3092   3090   3096   3097     1  0.0000000  0.6508444  3
   3092   3090   3096   3098     1  0.0000000  0.6508444  3
   3096   6234   6206   6207     1  0.0000000  1.6038667  3
   3096   6234   6206   6208     1  0.0000000  1.6038667  3
   3097   3096   6234   6206     1  0.0000000  1.6038667  3
   3098   3096   6234   6206     1  0.0000000  1.6038667  3
   3099   6263   6235   6236     1  0.0000000  1.6038667  3
   3099   6263   6235   6237     1  0.0000000  1.6038667  3
   3100   3099   6263   6235     1  0.0000000  1.6038667  3
   3101   3099   6263   6235     1  0.0000000  1.6038667  3
   3103   3104   3116   3117     1  0.0000000  0.6508444  3
   3103   3104   3116   3118     1  0.0000000  0.6508444  3
   3103   3107   3119   3120     1  0.0000000  0.6508444  3
   3103   3107   3119   3121     1  0.0000000  0.6508444  3
   3103   3110   3113   3114     1  0.0000000  0.6508444  3
   3103   3110   3113   3115     1  0.0000000  0.6508444  3
   3104   3103   3107   3108     1  0.0000000  1.2552000  3
   3104   3103   3107   3109     1  0.0000000  1.2552000  3
   3104   3103   3110   3111     1  0.0000000  1.2552000  3
   3104   3103   3110   3112     1  0.0000000  1.2552000  3
   3104   3116   3128   3129     1  0.0000000  0.6508444  3
   3104   3116   3128   3130     1  0.0000000  0.6508444  3
   3105   3104   3103   3107     1  0.0000000  1.2552000  3
   3105   3104   3103   3110     1  0.0000000  1.2552000  3
   3105   3104   3116   3128     1  0.0000000  0.6508444  3
   3105   3104   3116   3117     1  0.0000000  0.6508444  3
   3105   3104   3116   3118     1  0.0000000  0.6508444  3
   3106   3104   3103   3107     1  0.0000000  1.2552000  3
   3106   3104   3103   3110     1  0.0000000  1.2552000  3
   3106   3104   3116   3128     1  0.0000000  0.6508444  3
   3106   3104   3116   3117     1  0.0000000  0.6508444  3
   3106   3104   3116   3118     1  0.0000000  0.6508444  3
   3107   3103   3110   3111     1  0.0000000  1.2552000  3
   3107   3103   3110   3112     1  0.0000000  1.2552000  3
   3107   3119   3125   3126     1  0.0000000  0.6508444  3
   3107   3119   3125   3127     1  0.0000000  0.6508444  3
   3108   3107   3103   3110     1  0.0000000  1.2552000  3
   3108   3107   3119   3125     1  0.0000000  0.6508444  3
   3108   3107   3119   3120     1  0.0000000  0.6508444  3
   3108   3107   3119   3121     1  0.0000000  0.6508444  3
   3109   3107   3103   3110     1  0.0000000  1.2552000  3
   3109   3107   3119   3125     1  0.0000000  0.6508444  3
   3109   3107   3119   3120     1  0.0000000  0.6508444  3
   3109   3107   3119   3121     1  0.0000000  0.6508444  3
   3110   3113   3122   3123     1  0.0000000  0.6508444  3
   3110   3113   3122   3124     1  0.0000000  0.6508444  3
   3111   3110   3113   3122     1  0.0000000  0.6508444  3
   3111   3110   3113   3114     1  0.0000000  0.6508444  3
   3111   3110   3113   3115     1  0.0000000  0.6508444  3
   3112   3110   3113   3122     1  0.0000000  0.6508444  3
   3112   3110   3113   3114     1  0.0000000  0.6508444  3
   3112   3110   3113   3115     1  0.0000000  0.6508444  3
   3114   3113   3122   3131     1  0.0000000  1.0460000  1
   3114   3113   3122   3131     1  0.0000000  0.0000000  3
   3114   3113   3122   3123     1  0.0000000  0.6508444  3
   3114   3113   3122   3124     1  0.0000000  0.6508444  3
   3115   3113   3122   3131     1  0.0000000  1.0460000  1
   3115   3113   3122   3131     1  0.0000000  0.0000000  3
   3115   3113   3122   3123     1  0.0000000  0.6508444  3
   3115   3113   3122   3124     1  0.0000000  0.6508444  3
   3117   3116   3128   6321     1  0.0000000  1.0460000  1
   3117   3116   3128   6321     1  0.0000000  0.0000000  3
   3117   3116   3128   3129     1  0.0000000  0.6508444  3
   3117   3116   3128   3130     1  0.0000000  0.6508444  3
   3118   3116   3128   6321     1  0.0000000  1.0460000  1
   3118   3116   3128   6321     1  0.0000000  0.0000000  3
   3118   3116   3128   3129     1  0.0000000  0.6508444  3
   3118   3116   3128   3130     1  0.0000000  0.6508444  3
   3120   3119   3125   6292     1  0.0000000  1.0460000  1
   3120   3119   3125   6292     1  0.0000000  0.0000000  3
   3120   3119   3125   3126     1  0.0000000  0.6508444  3
   3120   3119   3125   3127     1  0.0000000  0.6508444  3
   3121   3119   3125   6292     1  0.0000000  1.0460000  1
   3121   3119   3125   6292     1  0.0000000  0.0000000  3
   3121   3119   3125   3126     1  0.0000000  0.6508444  3
   3121   3119   3125   3127     1  0.0000000  0.6508444  3
   3125   6292   6264   6265     1  0.0000000  1.6038667  3
   3125   6292   6264   6266     1  0.0000000  1.6038667  3
   3126   3125   6292   6264     1  0.0000000  1.6038667  3
   3127   3125   6292   6264     1  0.0000000  1.6038667  3
   3128   6321   6293   6294     1  0.0000000  1.6038667  3
   3128   6321   6293   6295     1  0.0000000  1.6038667  3
   3129   3128   6321   6293     1  0.0000000  1.6038667  3
   3130   3128   6321   6293     1  0.0000000  1.6038667  3
   3132   3133   3145   3146     1  0.0000000  0.6508444  3
   3132   3133   3145   3147     1  0.0000000  0.6508444  3
   3132   3136   3148   3149     1  0.0000000  0.6508444  3
   3132   3136   3148   3150     1  0.0000000  0.6508444  3
   3132   3139   3142   3143     1  0.0000000  0.6508444  3
   3132   3139   3142   3144     1  0.0000000  0.6508444  3
   3133   3132   3136   3137     1  0.0000000  1.2552000  3
   3133   3132   3136   3138     1  0.0000000  1.2552000  3
   3133   3132   3139   3140     1  0.0000000  1.2552000  3
   3133   3132   3139   3141     1  0.0000000  1.2552000  3
   3133   3145   3157   3158     1  0.0000000  0.6508444  3
   3133   3145   3157   3159     1  0.0000000  0.6508444  3
   3134   3133   3132   3136     1  0.0000000  1.2552000  3
   3134   3133   3132   3139     1  0.0000000  1.2552000  3
   3134   3133   3145   3157     1  0.0000000  0.6508444  3
   3134   3133   3145   3146     1  0.0000000  0.6508444  3
   3134   3133   3145   3147     1  0.0000000  0.6508444  3
   3135   3133   3132   3136     1  0.0000000  1.2552000  3
   3135   3133   3132   3139     1  0.0000000  1.2552000  3
   3135   3133   3145   3157     1  0.0000000  0.6508444  3
   3135   3133   3145   3146     1  0.0000000  0.6508444  3
   3135   3133   3145   3147     1  0.0000000  0.6508444  3
   3136   3132   3139   3140     1  0.0000000  1.2552000  3
   3136   3132   3139   3141     1  0.0000000  1.2552000  3
   3136   3148   3154   3155     1  0.0000000  0.6508444  3
   3136   3148   3154   3156     1  0.0000000  0.6508444  3
   3137   3136   3132   3139     1  0.0000000  1.2552000  3
   3137   3136   3148   3154     1  0.0000000  0.6508444  3
   3137   3136   3148   3149     1  0.0000000  0.6508444  3
   3137   3136   3148   3150     1  0.0000000  0.6508444  3
   3138   3136   3132   3139     1  0.0000000  1.2552000  3
   3138   3136   3148   3154     1  0.0000000  0.6508444  3
   3138   3136   3148   3149     1  0.0000000  0.6508444  3
   3138   3136   3148   3150     1  0.0000000  0.6508444  3
   3139   3142   3151   3152     1  0.0000000  0.6508444  3
   3139   3142   3151   3153     1  0.0000000  0.6508444  3
   3140   3139   3142   3151     1  0.0000000  0.6508444  3
   3140   3139   3142   3143     1  0.0000000  0.6508444  3
   3140   3139   3142   3144     1  0.0000000  0.6508444  3
   3141   3139   3142   3151     1  0.0000000  0.6508444  3
   3141   3139   3142   3143     1  0.0000000  0.6508444  3
   3141   3139   3142   3144     1  0.0000000  0.6508444  3
   3143   3142   3151   3160     1  0.0000000  1.0460000  1
   3143   3142   3151   3160     1  0.0000000  0.0000000  3
   3143   3142   3151   3152     1  0.0000000  0.6508444  3
   3143   3142   3151   3153     1  0.0000000  0.6508444  3
   3144   3142   3151   3160     1  0.0000000  1.0460000  1
   3144   3142   3151   3160     1  0.0000000  0.0000000  3
   3144   3142   3151   3152     1  0.0000000  0.6508444  3
   3144   3142   3151   3153     1  0.0000000  0.6508444  3
   3146   3145   3157   6379     1  0.0000000  1.0460000  1
   3146   3145   3157   6379     1  0.0000000  0.0000000  3
   3146   3145   3157   3158     1  0.0000000  0.6508444  3
   3146   3145   3157   3159     1  0.0000000  0.6508444  3
   3147   3145   3157   6379     1  0.0000000  1.0460000  1
   3147   3145   3157   6379     1  0.0000000  0.0000000  3
   3147   3145   3157   3158     1  0.0000000  0.6508444  3
   3147   3145   3157   3159     1  0.0000000  0.6508444  3
   3149   3148   3154   6350     1  0.0000000  1.0460000  1
   3149   3148   3154   6350     1  0.0000000  0.0000000  3
   3149   3148   3154   3155     1  0.0000000  0.6508444  3
   3149   3148   3154   3156     1  0.0000000  0.6508444  3
   3150   3148   3154   6350     1  0.0000000  1.0460000  1
   3150   3148   3154   6350     1  0.0000000  0.0000000  3
   3150   3148   3154   3155     1  0.0000000  0.6508444  3
   3150   3148   3154   3156     1  0.0000000  0.6508444  3
   3154   6350   6322   6323     1  0.0000000  1.6038667  3
   3154   6350   6322   6324     1  0.0000000  1.6038667  3
   3155   3154   6350   6322     1  0.0000000  1.6038667  3
   3156   3154   6350   6322     1  0.0000000  1.6038667  3
   3157   6379   6351   6352     1  0.0000000  1.6038667  3
   3157   6379   6351   6353     1  0.0000000  1.6038667  3
   3158   3157   6379   6351     1  0.0000000  1.6038667  3
   3159   3157   6379   6351     1  0.0000000  1.6038667  3
   3161   3162   3174   3175     1  0.0000000  0.6508444  3
   3161   3162   3174   3176     1  0.0000000  0.6508444  3
   3161   3165   3177   3178     1  0.0000000  0.6508444  3
   3161   3165   3177   3179     1  0.0000000  0.6508444  3
   3161   3168   3171   3172     1  0.0000000  0.6508444  3
   3161   3168   3171   3173     1  0.0000000  0.6508444  3
   3162   3161   3165   3166     1  0.0000000  1.2552000  3
   3162   3161   3165   3167     1  0.0000000  1.2552000  3
   3162   3161   3168   3169     1  0.0000000  1.2552000  3
   3162   3161   3168   3170     1  0.0000000  1.2552000  3
   3162   3174   3186   3187     1  0.0000000  0.6508444  3
   3162   3174   3186   3188     1  0.0000000  0.6508444  3
   3163   3162   3161   3165     1  0.0000000  1.2552000  3
   3163   3162   3161   3168     1  0.0000000  1.2552000  3
   3163   3162   3174   3186     1  0.0000000  0.6508444  3
   3163   3162   3174   3175     1  0.0000000  0.6508444  3
   3163   3162   3174   3176     1  0.0000000  0.6508444  3
   3164   3162   3161   3165     1  0.0000000  1.2552000  3
   3164   3162   3161   3168     1  0.0000000  1.2552000  3
   3164   3162   3174   3186     1  0.0000000  0.6508444  3
   3164   3162   3174   3175     1  0.0000000  0.6508444  3
   3164   3162   3174   3176     1  0.0000000  0.6508444  3
   3165   3161   3168   3169     1  0.0000000  1.2552000  3
   3165   3161   3168   3170     1  0.0000000  1.2552000  3
   3165   3177   3183   3184     1  0.0000000  0.6508444  3
   3165   3177   3183   3185     1  0.0000000  0.6508444  3
   3166   3165   3161   3168     1  0.0000000  1.2552000  3
   3166   3165   3177   3183     1  0.0000000  0.6508444  3
   3166   3165   3177   3178     1  0.0000000  0.6508444  3
   3166   3165   3177   3179     1  0.0000000  0.6508444  3
   3167   3165   3161   3168     1  0.0000000  1.2552000  3
   3167   3165   3177   3183     1  0.0000000  0.6508444  3
   3167   3165   3177   3178     1  0.0000000  0.6508444  3
   3167   3165   3177   3179     1  0.0000000  0.6508444  3
   3168   3171   3180   3181     1  0.0000000  0.6508444  3
   3168   3171   3180   3182     1  0.0000000  0.6508444  3
   3169   3168   3171   3180     1  0.0000000  0.6508444  3
   3169   3168   3171   3172     1  0.0000000  0.6508444  3
   3169   3168   3171   3173     1  0.0000000  0.6508444  3
   3170   3168   3171   3180     1  0.0000000  0.6508444  3
   3170   3168   3171   3172     1  0.0000000  0.6508444  3
   3170   3168   3171   3173     1  0.0000000  0.6508444  3
   3172   3171   3180   3189     1  0.0000000  1.0460000  1
   3172   3171   3180   3189     1  0.0000000  0.0000000  3
   3172   3171   3180   3181     1  0.0000000  0.6508444  3
   3172   3171   3180   3182     1  0.0000000  0.6508444  3
   3173   3171   3180   3189     1  0.0000000  1.0460000  1
   3173   3171   3180   3189     1  0.0000000  0.0000000  3
   3173   3171   3180   3181     1  0.0000000  0.6508444  3
   3173   3171   3180   3182     1  0.0000000  0.6508444  3
   3175   3174   3186   6437     1  0.0000000  1.0460000  1
   3175   3174   3186   6437     1  0.0000000  0.0000000  3
   3175   3174   3186   3187     1  0.0000000  0.6508444  3
   3175   3174   3186   3188     1  0.0000000  0.6508444  3
   3176   3174   3186   6437     1  0.0000000  1.0460000  1
   3176   3174   3186   6437     1  0.0000000  0.0000000  3
   3176   3174   3186   3187     1  0.0000000  0.6508444  3
   3176   3174   3186   3188     1  0.0000000  0.6508444  3
   3178   3177   3183   6408     1  0.0000000  1.0460000  1
   3178   3177   3183   6408     1  0.0000000  0.0000000  3
   3178   3177   3183   3184     1  0.0000000  0.6508444  3
   3178   3177   3183   3185     1  0.0000000  0.6508444  3
   3179   3177   3183   6408     1  0.0000000  1.0460000  1
   3179   3177   3183   6408     1  0.0000000  0.0000000  3
   3179   3177   3183   3184     1  0.0000000  0.6508444  3
   3179   3177   3183   3185     1  0.0000000  0.6508444  3
   3183   6408   6380   6381     1  0.0000000  1.6038667  3
   3183   6408   6380   6382     1  0.0000000  1.6038667  3
   3184   3183   6408   6380     1  0.0000000  1.6038667  3
   3185   3183   6408   6380     1  0.0000000  1.6038667  3
   3186   6437   6409   6410     1  0.0000000  1.6038667  3
   3186   6437   6409   6411     1  0.0000000  1.6038667  3
   3187   3186   6437   6409     1  0.0000000  1.6038667  3
   3188   3186   6437   6409     1  0.0000000  1.6038667  3
   3190   3191   3203   3204     1  0.0000000  0.6508444  3
   3190   3191   3203   3205     1  0.0000000  0.6508444  3
   3190   3194   3206   3207     1  0.0000000  0.6508444  3
   3190   3194   3206   3208     1  0.0000000  0.6508444  3
   3190   3197   3200   3201     1  0.0000000  0.6508444  3
   3190   3197   3200   3202     1  0.0000000  0.6508444  3
   3191   3190   3194   3195     1  0.0000000  1.2552000  3
   3191   3190   3194   3196     1  0.0000000  1.2552000  3
   3191   3190   3197   3198     1  0.0000000  1.2552000  3
   3191   3190   3197   3199     1  0.0000000  1.2552000  3
   3191   3203   3215   3216     1  0.0000000  0.6508444  3
   3191   3203   3215   3217     1  0.0000000  0.6508444  3
   3192   3191   3190   3194     1  0.0000000  1.2552000  3
   3192   3191   3190   3197     1  0.0000000  1.2552000  3
   3192   3191   3203   3215     1  0.0000000  0.6508444  3
   3192   3191   3203   3204     1  0.0000000  0.6508444  3
   3192   3191   3203   3205     1  0.0000000  0.6508444  3
   3193   3191   3190   3194     1  0.0000000  1.2552000  3
   3193   3191   3190   3197     1  0.0000000  1.2552000  3
   3193   3191   3203   3215     1  0.0000000  0.6508444  3
   3193   3191   3203   3204     1  0.0000000  0.6508444  3
   3193   3191   3203   3205     1  0.0000000  0.6508444  3
   3194   3190   3197   3198     1  0.0000000  1.2552000  3
   3194   3190   3197   3199     1  0.0000000  1.2552000  3
   3194   3206   3212   3213     1  0.0000000  0.6508444  3
   3194   3206   3212   3214     1  0.0000000  0.6508444  3
   3195   3194   3190   3197     1  0.0000000  1.2552000  3
   3195   3194   3206   3212     1  0.0000000  0.6508444  3
   3195   3194   3206   3207     1  0.0000000  0.6508444  3
   3195   3194   3206   3208     1  0.0000000  0.6508444  3
   3196   3194   3190   3197     1  0.0000000  1.2552000  3
   3196   3194   3206   3212     1  0.0000000  0.6508444  3
   3196   3194   3206   3207     1  0.0000000  0.6508444  3
   3196   3194   3206   3208     1  0.0000000  0.6508444  3
   3197   3200   3209   3210     1  0.0000000  0.6508444  3
   3197   3200   3209   3211     1  0.0000000  0.6508444  3
   3198   3197   3200   3209     1  0.0000000  0.6508444  3
   3198   3197   3200   3201     1  0.0000000  0.6508444  3
   3198   3197   3200   3202     1  0.0000000  0.6508444  3
   3199   3197   3200   3209     1  0.0000000  0.6508444  3
   3199   3197   3200   3201     1  0.0000000  0.6508444  3
   3199   3197   3200   3202     1  0.0000000  0.6508444  3
   3201   3200   3209   3218     1  0.0000000  1.0460000  1
   3201   3200   3209   3218     1  0.0000000  0.0000000  3
   3201   3200   3209   3210     1  0.0000000  0.6508444  3
   3201   3200   3209   3211     1  0.0000000  0.6508444  3
   3202   3200   3209   3218     1  0.0000000  1.0460000  1
   3202   3200   3209   3218     1  0.0000000  0.0000000  3
   3202   3200   3209   3210     1  0.0000000  0.6508444  3
   3202   3200   3209   3211     1  0.0000000  0.6508444  3
   3204   3203   3215   6495     1  0.0000000  1.0460000  1
   3204   3203   3215   6495     1  0.0000000  0.0000000  3
   3204   3203   3215   3216     1  0.0000000  0.6508444  3
   3204   3203   3215   3217     1  0.0000000  0.6508444  3
   3205   3203   3215   6495     1  0.0000000  1.0460000  1
   3205   3203   3215   6495     1  0.0000000  0.0000000  3
   3205   3203   3215   3216     1  0.0000000  0.6508444  3
   3205   3203   3215   3217     1  0.0000000  0.6508444  3
   3207   3206   3212   6466     1  0.0000000  1.0460000  1
   3207   3206   3212   6466     1  0.0000000  0.0000000  3
   3207   3206   3212   3213     1  0.0000000  0.6508444  3
   3207   3206   3212   3214     1  0.0000000  0.6508444  3
   3208   3206   3212   6466     1  0.0000000  1.0460000  1
   3208   3206   3212   6466     1  0.0000000  0.0000000  3
   3208   3206   3212   3213     1  0.0000000  0.6508444  3
   3208   3206   3212   3214     1  0.0000000  0.6508444  3
   3212   6466   6438   6439     1  0.0000000  1.6038667  3
   3212   6466   6438   6440     1  0.0000000  1.6038667  3
   3213   3212   6466   6438     1  0.0000000  1.6038667  3
   3214   3212   6466   6438     1  0.0000000  1.6038667  3
   3215   6495   6467   6468     1  0.0000000  1.6038667  3
   3215   6495   6467   6469     1  0.0000000  1.6038667  3
   3216   3215   6495   6467     1  0.0000000  1.6038667  3
   3217   3215   6495   6467     1  0.0000000  1.6038667  3
   3219   3220   3232   3233     1  0.0000000  0.6508444  3
   3219   3220   3232   3234     1  0.0000000  0.6508444  3
   3219   3223   3235   3236     1  0.0000000  0.6508444  3
   3219   3223   3235   3237     1  0.0000000  0.6508444  3
   3219   3226   3229   3230     1  0.0000000  0.6508444  3
   3219   3226   3229   3231     1  0.0000000  0.6508444  3
   3220   3219   3223   3224     1  0.0000000  1.2552000  3
   3220   3219   3223   3225     1  0.0000000  1.2552000  3
   3220   3219   3226   3227     1  0.0000000  1.2552000  3
   3220   3219   3226   3228     1  0.0000000  1.2552000  3
   3220   3232   3244   3245     1  0.0000000  0.6508444  3
   3220   3232   3244   3246     1  0.0000000  0.6508444  3
   3221   3220   3219   3223     1  0.0000000  1.2552000  3
   3221   3220   3219   3226     1  0.0000000  1.2552000  3
   3221   3220   3232   3244     1  0.0000000  0.6508444  3
   3221   3220   3232   3233     1  0.0000000  0.6508444  3
   3221   3220   3232   3234     1  0.0000000  0.6508444  3
   3222   3220   3219   3223     1  0.0000000  1.2552000  3
   3222   3220   3219   3226     1  0.0000000  1.2552000  3
   3222   3220   3232   3244     1  0.0000000  0.6508444  3
   3222   3220   3232   3233     1  0.0000000  0.6508444  3
   3222   3220   3232   3234     1  0.0000000  0.6508444  3
   3223   3219   3226   3227     1  0.0000000  1.2552000  3
   3223   3219   3226   3228     1  0.0000000  1.2552000  3
   3223   3235   3241   3242     1  0.0000000  0.6508444  3
   3223   3235   3241   3243     1  0.0000000  0.6508444  3
   3224   3223   3219   3226     1  0.0000000  1.2552000  3
   3224   3223   3235   3241     1  0.0000000  0.6508444  3
   3224   3223   3235   3236     1  0.0000000  0.6508444  3
   3224   3223   3235   3237     1  0.0000000  0.6508444  3
   3225   3223   3219   3226     1  0.0000000  1.2552000  3
   3225   3223   3235   3241     1  0.0000000  0.6508444  3
   3225   3223   3235   3236     1  0.0000000  0.6508444  3
   3225   3223   3235   3237     1  0.0000000  0.6508444  3
   3226   3229   3238   3239     1  0.0000000  0.6508444  3
   3226   3229   3238   3240     1  0.0000000  0.6508444  3
   3227   3226   3229   3238     1  0.0000000  0.6508444  3
   3227   3226   3229   3230     1  0.0000000  0.6508444  3
   3227   3226   3229   3231     1  0.0000000  0.6508444  3
   3228   3226   3229   3238     1  0.0000000  0.6508444  3
   3228   3226   3229   3230     1  0.0000000  0.6508444  3
   3228   3226   3229   3231     1  0.0000000  0.6508444  3
   3230   3229   3238   3247     1  0.0000000  1.0460000  1
   3230   3229   3238   3247     1  0.0000000  0.0000000  3
   3230   3229   3238   3239     1  0.0000000  0.6508444  3
   3230   3229   3238   3240     1  0.0000000  0.6508444  3
   3231   3229   3238   3247     1  0.0000000  1.0460000  1
   3231   3229   3238   3247     1  0.0000000  0.0000000  3
   3231   3229   3238   3239     1  0.0000000  0.6508444  3
   3231   3229   3238   3240     1  0.0000000  0.6508444  3
   3233   3232   3244   6553     1  0.0000000  1.0460000  1
   3233   3232   3244   6553     1  0.0000000  0.0000000  3
   3233   3232   3244   3245     1  0.0000000  0.6508444  3
   3233   3232   3244   3246     1  0.0000000  0.6508444  3
   3234   3232   3244   6553     1  0.0000000  1.0460000  1
   3234   3232   3244   6553     1  0.0000000  0.0000000  3
   3234   3232   3244   3245     1  0.0000000  0.6508444  3
   3234   3232   3244   3246     1  0.0000000  0.6508444  3
   3236   3235   3241   6524     1  0.0000000  1.0460000  1
   3236   3235   3241   6524     1  0.0000000  0.0000000  3
   3236   3235   3241   3242     1  0.0000000  0.6508444  3
   3236   3235   3241   3243     1  0.0000000  0.6508444  3
   3237   3235   3241   6524     1  0.0000000  1.0460000  1
   3237   3235   3241   6524     1  0.0000000  0.0000000  3
   3237   3235   3241   3242     1  0.0000000  0.6508444  3
   3237   3235   3241   3243     1  0.0000000  0.6508444  3
   3241   6524   6496   6497     1  0.0000000  1.6038667  3
   3241   6524   6496   6498     1  0.0000000  1.6038667  3
   3242   3241   6524   6496     1  0.0000000  1.6038667  3
   3243   3241   6524   6496     1  0.0000000  1.6038667  3
   3244   6553   6525   6526     1  0.0000000  1.6038667  3
   3244   6553   6525   6527     1  0.0000000  1.6038667  3
   3245   3244   6553   6525     1  0.0000000  1.6038667  3
   3246   3244   6553   6525     1  0.0000000  1.6038667  3
   3248   3249   3261   3262     1  0.0000000  0.6508444  3
   3248   3249   3261   3263     1  0.0000000  0.6508444  3
   3248   3252   3264   3265     1  0.0000000  0.6508444  3
   3248   3252   3264   3266     1  0.0000000  0.6508444  3
   3248   3255   3258   3259     1  0.0000000  0.6508444  3
   3248   3255   3258   3260     1  0.0000000  0.6508444  3
   3249   3248   3252   3253     1  0.0000000  1.2552000  3
   3249   3248   3252   3254     1  0.0000000  1.2552000  3
   3249   3248   3255   3256     1  0.0000000  1.2552000  3
   3249   3248   3255   3257     1  0.0000000  1.2552000  3
   3249   3261   3273   3274     1  0.0000000  0.6508444  3
   3249   3261   3273   3275     1  0.0000000  0.6508444  3
   3250   3249   3248   3252     1  0.0000000  1.2552000  3
   3250   3249   3248   3255     1  0.0000000  1.2552000  3
   3250   3249   3261   3273     1  0.0000000  0.6508444  3
   3250   3249   3261   3262     1  0.0000000  0.6508444  3
   3250   3249   3261   3263     1  0.0000000  0.6508444  3
   3251   3249   3248   3252     1  0.0000000  1.2552000  3
   3251   3249   3248   3255     1  0.0000000  1.2552000  3
   3251   3249   3261   3273     1  0.0000000  0.6508444  3
   3251   3249   3261   3262     1  0.0000000  0.6508444  3
   3251   3249   3261   3263     1  0.0000000  0.6508444  3
   3252   3248   3255   3256     1  0.0000000  1.2552000  3
   3252   3248   3255   3257     1  0.0000000  1.2552000  3
   3252   3264   3270   3271     1  0.0000000  0.6508444  3
   3252   3264   3270   3272     1  0.0000000  0.6508444  3
   3253   3252   3248   3255     1  0.0000000  1.2552000  3
   3253   3252   3264   3270     1  0.0000000  0.6508444  3
   3253   3252   3264   3265     1  0.0000000  0.6508444  3
   3253   3252   3264   3266     1  0.0000000  0.6508444  3
   3254   3252   3248   3255     1  0.0000000  1.2552000  3
   3254   3252   3264   3270     1  0.0000000  0.6508444  3
   3254   3252   3264   3265     1  0.0000000  0.6508444  3
   3254   3252   3264   3266     1  0.0000000  0.6508444  3
   3255   3258   3267   3268     1  0.0000000  0.6508444  3
   3255   3258   3267   3269     1  0.0000000  0.6508444  3
   3256   3255   3258   3267     1  0.0000000  0.6508444  3
   3256   3255   3258   3259     1  0.0000000  0.6508444  3
   3256   3255   3258   3260     1  0.0000000  0.6508444  3
   3257   3255   3258   3267     1  0.0000000  0.6508444  3
   3257   3255   3258   3259     1  0.0000000  0.6508444  3
   3257   3255   3258   3260     1  0.0000000  0.6508444  3
   3259   3258   3267   3276     1  0.0000000  1.0460000  1
   3259   3258   3267   3276     1  0.0000000  0.0000000  3
   3259   3258   3267   3268     1  0.0000000  0.6508444  3
   3259   3258   3267   3269     1  0.0000000  0.6508444  3
   3260   3258   3267   3276     1  0.0000000  1.0460000  1
   3260   3258   3267   3276     1  0.0000000  0.0000000  3
   3260   3258   3267   3268     1  0.0000000  0.6508444  3
   3260   3258   3267   3269     1  0.0000000  0.6508444  3
   3262   3261   3273   6611     1  0.0000000  1.0460000  1
   3262   3261   3273   6611     1  0.0000000  0.0000000  3
   3262   3261   3273   3274     1  0.0000000  0.6508444  3
   3262   3261   3273   3275     1  0.0000000  0.6508444  3
   3263   3261   3273   6611     1  0.0000000  1.0460000  1
   3263   3261   3273   6611     1  0.0000000  0.0000000  3
   3263   3261   3273   3274     1  0.0000000  0.6508444  3
   3263   3261   3273   3275     1  0.0000000  0.6508444  3
   3265   3264   3270   6582     1  0.0000000  1.0460000  1
   3265   3264   3270   6582     1  0.0000000  0.0000000  3
   3265   3264   3270   3271     1  0.0000000  0.6508444  3
   3265   3264   3270   3272     1  0.0000000  0.6508444  3
   3266   3264   3270   6582     1  0.0000000  1.0460000  1
   3266   3264   3270   6582     1  0.0000000  0.0000000  3
   3266   3264   3270   3271     1  0.0000000  0.6508444  3
   3266   3264   3270   3272     1  0.0000000  0.6508444  3
   3270   6582   6554   6555     1  0.0000000  1.6038667  3
   3270   6582   6554   6556     1  0.0000000  1.6038667  3
   3271   3270   6582   6554     1  0.0000000  1.6038667  3
   3272   3270   6582   6554     1  0.0000000  1.6038667  3
   3273   6611   6583   6584     1  0.0000000  1.6038667  3
   3273   6611   6583   6585     1  0.0000000  1.6038667  3
   3274   3273   6611   6583     1  0.0000000  1.6038667  3
   3275   3273   6611   6583     1  0.0000000  1.6038667  3
   3277   3278   3290   3291     1  0.0000000  0.6508444  3
   3277   3278   3290   3292     1  0.0000000  0.6508444  3
   3277   3281   3293   3294     1  0.0000000  0.6508444  3
   3277   3281   3293   3295     1  0.0000000  0.6508444  3
   3277   3284   3287   3288     1  0.0000000  0.6508444  3
   3277   3284   3287   3289     1  0.0000000  0.6508444  3
   3278   3277   3281   3282     1  0.0000000  1.2552000  3
   3278   3277   3281   3283     1  0.0000000  1.2552000  3
   3278   3277   3284   3285     1  0.0000000  1.2552000  3
   3278   3277   3284   3286     1  0.0000000  1.2552000  3
   3278   3290   3302   3303     1  0.0000000  0.6508444  3
   3278   3290   3302   3304     1  0.0000000  0.6508444  3
   3279   3278   3277   3281     1  0.0000000  1.2552000  3
   3279   3278   3277   3284     1  0.0000000  1.2552000  3
   3279   3278   3290   3302     1  0.0000000  0.6508444  3
   3279   3278   3290   3291     1  0.0000000  0.6508444  3
   3279   3278   3290   3292     1  0.0000000  0.6508444  3
   3280   3278   3277   3281     1  0.0000000  1.2552000  3
   3280   3278   3277   3284     1  0.0000000  1.2552000  3
   3280   3278   3290   3302     1  0.0000000  0.6508444  3
   3280   3278   3290   3291     1  0.0000000  0.6508444  3
   3280   3278   3290   3292     1  0.0000000  0.6508444  3
   3281   3277   3284   3285     1  0.0000000  1.2552000  3
   3281   3277   3284   3286     1  0.0000000  1.2552000  3
   3281   3293   3299   3300     1  0.0000000  0.6508444  3
   3281   3293   3299   3301     1  0.0000000  0.6508444  3
   3282   3281   3277   3284     1  0.0000000  1.2552000  3
   3282   3281   3293   3299     1  0.0000000  0.6508444  3
   3282   3281   3293   3294     1  0.0000000  0.6508444  3
   3282   3281   3293   3295     1  0.0000000  0.6508444  3
   3283   3281   3277   3284     1  0.0000000  1.2552000  3
   3283   3281   3293   3299     1  0.0000000  0.6508444  3
   3283   3281   3293   3294     1  0.0000000  0.6508444  3
   3283   3281   3293   3295     1  0.0000000  0.6508444  3
   3284   3287   3296   3297     1  0.0000000  0.6508444  3
   3284   3287   3296   3298     1  0.0000000  0.6508444  3
   3285   3284   3287   3296     1  0.0000000  0.6508444  3
   3285   3284   3287   3288     1  0.0000000  0.6508444  3
   3285   3284   3287   3289     1  0.0000000  0.6508444  3
   3286   3284   3287   3296     1  0.0000000  0.6508444  3
   3286   3284   3287   3288     1  0.0000000  0.6508444  3
   3286   3284   3287   3289     1  0.0000000  0.6508444  3
   3288   3287   3296   3305     1  0.0000000  1.0460000  1
   3288   3287   3296   3305     1  0.0000000  0.0000000  3
   3288   3287   3296   3297     1  0.0000000  0.6508444  3
   3288   3287   3296   3298     1  0.0000000  0.6508444  3
   3289   3287   3296   3305     1  0.0000000  1.0460000  1
   3289   3287   3296   3305     1  0.0000000  0.0000000  3
   3289   3287   3296   3297     1  0.0000000  0.6508444  3
   3289   3287   3296   3298     1  0.0000000  0.6508444  3
   3291   3290   3302   6669     1  0.0000000  1.0460000  1
   3291   3290   3302   6669     1  0.0000000  0.0000000  3
   3291   3290   3302   3303     1  0.0000000  0.6508444  3
   3291   3290   3302   3304     1  0.0000000  0.6508444  3
   3292   3290   3302   6669     1  0.0000000  1.0460000  1
   3292   3290   3302   6669     1  0.0000000  0.0000000  3
   3292   3290   3302   3303     1  0.0000000  0.6508444  3
   3292   3290   3302   3304     1  0.0000000  0.6508444  3
   3294   3293   3299   6640     1  0.0000000  1.0460000  1
   3294   3293   3299   6640     1  0.0000000  0.0000000  3
   3294   3293   3299   3300     1  0.0000000  0.6508444  3
   3294   3293   3299   3301     1  0.0000000  0.6508444  3
   3295   3293   3299   6640     1  0.0000000  1.0460000  1
   3295   3293   3299   6640     1  0.0000000  0.0000000  3
   3295   3293   3299   3300     1  0.0000000  0.6508444  3
   3295   3293   3299   3301     1  0.0000000  0.6508444  3
   3299   6640   6612   6613     1  0.0000000  1.6038667  3
   3299   6640   6612   6614     1  0.0000000  1.6038667  3
   3300   3299   6640   6612     1  0.0000000  1.6038667  3
   3301   3299   6640   6612     1  0.0000000  1.6038667  3
   3302   6669   6641   6642     1  0.0000000  1.6038667  3
   3302   6669   6641   6643     1  0.0000000  1.6038667  3
   3303   3302   6669   6641     1  0.0000000  1.6038667  3
   3304   3302   6669   6641     1  0.0000000  1.6038667  3
   3306   3307   3319   3320     1  0.0000000  0.6508444  3
   3306   3307   3319   3321     1  0.0000000  0.6508444  3
   3306   3310   3322   3323     1  0.0000000  0.6508444  3
   3306   3310   3322   3324     1  0.0000000  0.6508444  3
   3306   3313   3316   3317     1  0.0000000  0.6508444  3
   3306   3313   3316   3318     1  0.0000000  0.6508444  3
   3307   3306   3310   3311     1  0.0000000  1.2552000  3
   3307   3306   3310   3312     1  0.0000000  1.2552000  3
   3307   3306   3313   3314     1  0.0000000  1.2552000  3
   3307   3306   3313   3315     1  0.0000000  1.2552000  3
   3307   3319   3331   3332     1  0.0000000  0.6508444  3
   3307   3319   3331   3333     1  0.0000000  0.6508444  3
   3308   3307   3306   3310     1  0.0000000  1.2552000  3
   3308   3307   3306   3313     1  0.0000000  1.2552000  3
   3308   3307   3319   3331     1  0.0000000  0.6508444  3
   3308   3307   3319   3320     1  0.0000000  0.6508444  3
   3308   3307   3319   3321     1  0.0000000  0.6508444  3
   3309   3307   3306   3310     1  0.0000000  1.2552000  3
   3309   3307   3306   3313     1  0.0000000  1.2552000  3
   3309   3307   3319   3331     1  0.0000000  0.6508444  3
   3309   3307   3319   3320     1  0.0000000  0.6508444  3
   3309   3307   3319   3321     1  0.0000000  0.6508444  3
   3310   3306   3313   3314     1  0.0000000  1.2552000  3
   3310   3306   3313   3315     1  0.0000000  1.2552000  3
   3310   3322   3328   3329     1  0.0000000  0.6508444  3
   3310   3322   3328   3330     1  0.0000000  0.6508444  3
   3311   3310   3306   3313     1  0.0000000  1.2552000  3
   3311   3310   3322   3328     1  0.0000000  0.6508444  3
   3311   3310   3322   3323     1  0.0000000  0.6508444  3
   3311   3310   3322   3324     1  0.0000000  0.6508444  3
   3312   3310   3306   3313     1  0.0000000  1.2552000  3
   3312   3310   3322   3328     1  0.0000000  0.6508444  3
   3312   3310   3322   3323     1  0.0000000  0.6508444  3
   3312   3310   3322   3324     1  0.0000000  0.6508444  3
   3313   3316   3325   3326     1  0.0000000  0.6508444  3
   3313   3316   3325   3327     1  0.0000000  0.6508444  3
   3314   3313   3316   3325     1  0.0000000  0.6508444  3
   3314   3313   3316   3317     1  0.0000000  0.6508444  3
   3314   3313   3316   3318     1  0.0000000  0.6508444  3
   3315   3313   3316   3325     1  0.0000000  0.6508444  3
   3315   3313   3316   3317     1  0.0000000  0.6508444  3
   3315   3313   3316   3318     1  0.0000000  0.6508444  3
   3317   3316   3325   3334     1  0.0000000  1.0460000  1
   3317   3316   3325   3334     1  0.0000000  0.0000000  3
   3317   3316   3325   3326     1  0.0000000  0.6508444  3
   3317   3316   3325   3327     1  0.0000000  0.6508444  3
   3318   3316   3325   3334     1  0.0000000  1.0460000  1
   3318   3316   3325   3334     1  0.0000000  0.0000000  3
   3318   3316   3325   3326     1  0.0000000  0.6508444  3
   3318   3316   3325   3327     1  0.0000000  0.6508444  3
   3320   3319   3331   6727     1  0.0000000  1.0460000  1
   3320   3319   3331   6727     1  0.0000000  0.0000000  3
   3320   3319   3331   3332     1  0.0000000  0.6508444  3
   3320   3319   3331   3333     1  0.0000000  0.6508444  3
   3321   3319   3331   6727     1  0.0000000  1.0460000  1
   3321   3319   3331   6727     1  0.0000000  0.0000000  3
   3321   3319   3331   3332     1  0.0000000  0.6508444  3
   3321   3319   3331   3333     1  0.0000000  0.6508444  3
   3323   3322   3328   6698     1  0.0000000  1.0460000  1
   3323   3322   3328   6698     1  0.0000000  0.0000000  3
   3323   3322   3328   3329     1  0.0000000  0.6508444  3
   3323   3322   3328   3330     1  0.0000000  0.6508444  3
   3324   3322   3328   6698     1  0.0000000  1.0460000  1
   3324   3322   3328   6698     1  0.0000000  0.0000000  3
   3324   3322   3328   3329     1  0.0000000  0.6508444  3
   3324   3322   3328   3330     1  0.0000000  0.6508444  3
   3328   6698   6670   6671     1  0.0000000  1.6038667  3
   3328   6698   6670   6672     1  0.0000000  1.6038667  3
   3329   3328   6698   6670     1  0.0000000  1.6038667  3
   3330   3328   6698   6670     1  0.0000000  1.6038667  3
   3331   6727   6699   6700     1  0.0000000  1.6038667  3
   3331   6727   6699   6701     1  0.0000000  1.6038667  3
   3332   3331   6727   6699     1  0.0000000  1.6038667  3
   3333   3331   6727   6699     1  0.0000000  1.6038667  3
   3335   3336   3348   3349     1  0.0000000  0.6508444  3
   3335   3336   3348   3350     1  0.0000000  0.6508444  3
   3335   3339   3351   3352     1  0.0000000  0.6508444  3
   3335   3339   3351   3353     1  0.0000000  0.6508444  3
   3335   3342   3345   3346     1  0.0000000  0.6508444  3
   3335   3342   3345   3347     1  0.0000000  0.6508444  3
   3336   3335   3339   3340     1  0.0000000  1.2552000  3
   3336   3335   3339   3341     1  0.0000000  1.2552000  3
   3336   3335   3342   3343     1  0.0000000  1.2552000  3
   3336   3335   3342   3344     1  0.0000000  1.2552000  3
   3336   3348   3360   3361     1  0.0000000  0.6508444  3
   3336   3348   3360   3362     1  0.0000000  0.6508444  3
   3337   3336   3335   3339     1  0.0000000  1.2552000  3
   3337   3336   3335   3342     1  0.0000000  1.2552000  3
   3337   3336   3348   3360     1  0.0000000  0.6508444  3
   3337   3336   3348   3349     1  0.0000000  0.6508444  3
   3337   3336   3348   3350     1  0.0000000  0.6508444  3
   3338   3336   3335   3339     1  0.0000000  1.2552000  3
   3338   3336   3335   3342     1  0.0000000  1.2552000  3
   3338   3336   3348   3360     1  0.0000000  0.6508444  3
   3338   3336   3348   3349     1  0.0000000  0.6508444  3
   3338   3336   3348   3350     1  0.0000000  0.6508444  3
   3339   3335   3342   3343     1  0.0000000  1.2552000  3
   3339   3335   3342   3344     1  0.0000000  1.2552000  3
   3339   3351   3357   3358     1  0.0000000  0.6508444  3
   3339   3351   3357   3359     1  0.0000000  0.6508444  3
   3340   3339   3335   3342     1  0.0000000  1.2552000  3
   3340   3339   3351   3357     1  0.0000000  0.6508444  3
   3340   3339   3351   3352     1  0.0000000  0.6508444  3
   3340   3339   3351   3353     1  0.0000000  0.6508444  3
   3341   3339   3335   3342     1  0.0000000  1.2552000  3
   3341   3339   3351   3357     1  0.0000000  0.6508444  3
   3341   3339   3351   3352     1  0.0000000  0.6508444  3
   3341   3339   3351   3353     1  0.0000000  0.6508444  3
   3342   3345   3354   3355     1  0.0000000  0.6508444  3
   3342   3345   3354   3356     1  0.0000000  0.6508444  3
   3343   3342   3345   3354     1  0.0000000  0.6508444  3
   3343   3342   3345   3346     1  0.0000000  0.6508444  3
   3343   3342   3345   3347     1  0.0000000  0.6508444  3
   3344   3342   3345   3354     1  0.0000000  0.6508444  3
   3344   3342   3345   3346     1  0.0000000  0.6508444  3
   3344   3342   3345   3347     1  0.0000000  0.6508444  3
   3346   3345   3354   3363     1  0.0000000  1.0460000  1
   3346   3345   3354   3363     1  0.0000000  0.0000000  3
   3346   3345   3354   3355     1  0.0000000  0.6508444  3
   3346   3345   3354   3356     1  0.0000000  0.6508444  3
   3347   3345   3354   3363     1  0.0000000  1.0460000  1
   3347   3345   3354   3363     1  0.0000000  0.0000000  3
   3347   3345   3354   3355     1  0.0000000  0.6508444  3
   3347   3345   3354   3356     1  0.0000000  0.6508444  3
   3349   3348   3360   6785     1  0.0000000  1.0460000  1
   3349   3348   3360   6785     1  0.0000000  0.0000000  3
   3349   3348   3360   3361     1  0.0000000  0.6508444  3
   3349   3348   3360   3362     1  0.0000000  0.6508444  3
   3350   3348   3360   6785     1  0.0000000  1.0460000  1
   3350   3348   3360   6785     1  0.0000000  0.0000000  3
   3350   3348   3360   3361     1  0.0000000  0.6508444  3
   3350   3348   3360   3362     1  0.0000000  0.6508444  3
   3352   3351   3357   6756     1  0.0000000  1.0460000  1
   3352   3351   3357   6756     1  0.0000000  0.0000000  3
   3352   3351   3357   3358     1  0.0000000  0.6508444  3
   3352   3351   3357   3359     1  0.0000000  0.6508444  3
   3353   3351   3357   6756     1  0.0000000  1.0460000  1
   3353   3351   3357   6756     1  0.0000000  0.0000000  3
   3353   3351   3357   3358     1  0.0000000  0.6508444  3
   3353   3351   3357   3359     1  0.0000000  0.6508444  3
   3357   6756   6728   6729     1  0.0000000  1.6038667  3
   3357   6756   6728   6730     1  0.0000000  1.6038667  3
   3358   3357   6756   6728     1  0.0000000  1.6038667  3
   3359   3357   6756   6728     1  0.0000000  1.6038667  3
   3360   6785   6757   6758     1  0.0000000  1.6038667  3
   3360   6785   6757   6759     1  0.0000000  1.6038667  3
   3361   3360   6785   6757     1  0.0000000  1.6038667  3
   3362   3360   6785   6757     1  0.0000000  1.6038667  3
   3364   3365   3377   3378     1  0.0000000  0.6508444  3
   3364   3365   3377   3379     1  0.0000000  0.6508444  3
   3364   3368   3380   3381     1  0.0000000  0.6508444  3
   3364   3368   3380   3382     1  0.0000000  0.6508444  3
   3364   3371   3374   3375     1  0.0000000  0.6508444  3
   3364   3371   3374   3376     1  0.0000000  0.6508444  3
   3365   3364   3368   3369     1  0.0000000  1.2552000  3
   3365   3364   3368   3370     1  0.0000000  1.2552000  3
   3365   3364   3371   3372     1  0.0000000  1.2552000  3
   3365   3364   3371   3373     1  0.0000000  1.2552000  3
   3365   3377   3389   3390     1  0.0000000  0.6508444  3
   3365   3377   3389   3391     1  0.0000000  0.6508444  3
   3366   3365   3364   3368     1  0.0000000  1.2552000  3
   3366   3365   3364   3371     1  0.0000000  1.2552000  3
   3366   3365   3377   3389     1  0.0000000  0.6508444  3
   3366   3365   3377   3378     1  0.0000000  0.6508444  3
   3366   3365   3377   3379     1  0.0000000  0.6508444  3
   3367   3365   3364   3368     1  0.0000000  1.2552000  3
   3367   3365   3364   3371     1  0.0000000  1.2552000  3
   3367   3365   3377   3389     1  0.0000000  0.6508444  3
   3367   3365   3377   3378     1  0.0000000  0.6508444  3
   3367   3365   3377   3379     1  0.0000000  0.6508444  3
   3368   3364   3371   3372     1  0.0000000  1.2552000  3
   3368   3364   3371   3373     1  0.0000000  1.2552000  3
   3368   3380   3386   3387     1  0.0000000  0.6508444  3
   3368   3380   3386   3388     1  0.0000000  0.6508444  3
   3369   3368   3364   3371     1  0.0000000  1.2552000  3
   3369   3368   3380   3386     1  0.0000000  0.6508444  3
   3369   3368   3380   3381     1  0.0000000  0.6508444  3
   3369   3368   3380   3382     1  0.0000000  0.6508444  3
   3370   3368   3364   3371     1  0.0000000  1.2552000  3
   3370   3368   3380   3386     1  0.0000000  0.6508444  3
   3370   3368   3380   3381     1  0.0000000  0.6508444  3
   3370   3368   3380   3382     1  0.0000000  0.6508444  3
   3371   3374   3383   3384     1  0.0000000  0.6508444  3
   3371   3374   3383   3385     1  0.0000000  0.6508444  3
   3372   3371   3374   3383     1  0.0000000  0.6508444  3
   3372   3371   3374   3375     1  0.0000000  0.6508444  3
   3372   3371   3374   3376     1  0.0000000  0.6508444  3
   3373   3371   3374   3383     1  0.0000000  0.6508444  3
   3373   3371   3374   3375     1  0.0000000  0.6508444  3
   3373   3371   3374   3376     1  0.0000000  0.6508444  3
   3375   3374   3383   3392     1  0.0000000  1.0460000  1
   3375   3374   3383   3392     1  0.0000000  0.0000000  3
   3375   3374   3383   3384     1  0.0000000  0.6508444  3
   3375   3374   3383   3385     1  0.0000000  0.6508444  3
   3376   3374   3383   3392     1  0.0000000  1.0460000  1
   3376   3374   3383   3392     1  0.0000000  0.0000000  3
   3376   3374   3383   3384     1  0.0000000  0.6508444  3
   3376   3374   3383   3385     1  0.0000000  0.6508444  3
   3378   3377   3389   6843     1  0.0000000  1.0460000  1
   3378   3377   3389   6843     1  0.0000000  0.0000000  3
   3378   3377   3389   3390     1  0.0000000  0.6508444  3
   3378   3377   3389   3391     1  0.0000000  0.6508444  3
   3379   3377   3389   6843     1  0.0000000  1.0460000  1
   3379   3377   3389   6843     1  0.0000000  0.0000000  3
   3379   3377   3389   3390     1  0.0000000  0.6508444  3
   3379   3377   3389   3391     1  0.0000000  0.6508444  3
   3381   3380   3386   6814     1  0.0000000  1.0460000  1
   3381   3380   3386   6814     1  0.0000000  0.0000000  3
   3381   3380   3386   3387     1  0.0000000  0.6508444  3
   3381   3380   3386   3388     1  0.0000000  0.6508444  3
   3382   3380   3386   6814     1  0.0000000  1.0460000  1
   3382   3380   3386   6814     1  0.0000000  0.0000000  3
   3382   3380   3386   3387     1  0.0000000  0.6508444  3
   3382   3380   3386   3388     1  0.0000000  0.6508444  3
   3386   6814   6786   6787     1  0.0000000  1.6038667  3
   3386   6814   6786   6788     1  0.0000000  1.6038667  3
   3387   3386   6814   6786     1  0.0000000  1.6038667  3
   3388   3386   6814   6786     1  0.0000000  1.6038667  3
   3389   6843   6815   6816     1  0.0000000  1.6038667  3
   3389   6843   6815   6817     1  0.0000000  1.6038667  3
   3390   3389   6843   6815     1  0.0000000  1.6038667  3
   3391   3389   6843   6815     1  0.0000000  1.6038667  3
   3393   3394   3406   3407     1  0.0000000  0.6508444  3
   3393   3394   3406   3408     1  0.0000000  0.6508444  3
   3393   3397   3409   3410     1  0.0000000  0.6508444  3
   3393   3397   3409   3411     1  0.0000000  0.6508444  3
   3393   3400   3403   3404     1  0.0000000  0.6508444  3
   3393   3400   3403   3405     1  0.0000000  0.6508444  3
   3394   3393   3397   3398     1  0.0000000  1.2552000  3
   3394   3393   3397   3399     1  0.0000000  1.2552000  3
   3394   3393   3400   3401     1  0.0000000  1.2552000  3
   3394   3393   3400   3402     1  0.0000000  1.2552000  3
   3394   3406   3418   3419     1  0.0000000  0.6508444  3
   3394   3406   3418   3420     1  0.0000000  0.6508444  3
   3395   3394   3393   3397     1  0.0000000  1.2552000  3
   3395   3394   3393   3400     1  0.0000000  1.2552000  3
   3395   3394   3406   3418     1  0.0000000  0.6508444  3
   3395   3394   3406   3407     1  0.0000000  0.6508444  3
   3395   3394   3406   3408     1  0.0000000  0.6508444  3
   3396   3394   3393   3397     1  0.0000000  1.2552000  3
   3396   3394   3393   3400     1  0.0000000  1.2552000  3
   3396   3394   3406   3418     1  0.0000000  0.6508444  3
   3396   3394   3406   3407     1  0.0000000  0.6508444  3
   3396   3394   3406   3408     1  0.0000000  0.6508444  3
   3397   3393   3400   3401     1  0.0000000  1.2552000  3
   3397   3393   3400   3402     1  0.0000000  1.2552000  3
   3397   3409   3415   3416     1  0.0000000  0.6508444  3
   3397   3409   3415   3417     1  0.0000000  0.6508444  3
   3398   3397   3393   3400     1  0.0000000  1.2552000  3
   3398   3397   3409   3415     1  0.0000000  0.6508444  3
   3398   3397   3409   3410     1  0.0000000  0.6508444  3
   3398   3397   3409   3411     1  0.0000000  0.6508444  3
   3399   3397   3393   3400     1  0.0000000  1.2552000  3
   3399   3397   3409   3415     1  0.0000000  0.6508444  3
   3399   3397   3409   3410     1  0.0000000  0.6508444  3
   3399   3397   3409   3411     1  0.0000000  0.6508444  3
   3400   3403   3412   3413     1  0.0000000  0.6508444  3
   3400   3403   3412   3414     1  0.0000000  0.6508444  3
   3401   3400   3403   3412     1  0.0000000  0.6508444  3
   3401   3400   3403   3404     1  0.0000000  0.6508444  3
   3401   3400   3403   3405     1  0.0000000  0.6508444  3
   3402   3400   3403   3412     1  0.0000000  0.6508444  3
   3402   3400   3403   3404     1  0.0000000  0.6508444  3
   3402   3400   3403   3405     1  0.0000000  0.6508444  3
   3404   3403   3412   3421     1  0.0000000  1.0460000  1
   3404   3403   3412   3421     1  0.0000000  0.0000000  3
   3404   3403   3412   3413     1  0.0000000  0.6508444  3
   3404   3403   3412   3414     1  0.0000000  0.6508444  3
   3405   3403   3412   3421     1  0.0000000  1.0460000  1
   3405   3403   3412   3421     1  0.0000000  0.0000000  3
   3405   3403   3412   3413     1  0.0000000  0.6508444  3
   3405   3403   3412   3414     1  0.0000000  0.6508444  3
   3407   3406   3418   6901     1  0.0000000  1.0460000  1
   3407   3406   3418   6901     1  0.0000000  0.0000000  3
   3407   3406   3418   3419     1  0.0000000  0.6508444  3
   3407   3406   3418   3420     1  0.0000000  0.6508444  3
   3408   3406   3418   6901     1  0.0000000  1.0460000  1
   3408   3406   3418   6901     1  0.0000000  0.0000000  3
   3408   3406   3418   3419     1  0.0000000  0.6508444  3
   3408   3406   3418   3420     1  0.0000000  0.6508444  3
   3410   3409   3415   6872     1  0.0000000  1.0460000  1
   3410   3409   3415   6872     1  0.0000000  0.0000000  3
   3410   3409   3415   3416     1  0.0000000  0.6508444  3
   3410   3409   3415   3417     1  0.0000000  0.6508444  3
   3411   3409   3415   6872     1  0.0000000  1.0460000  1
   3411   3409   3415   6872     1  0.0000000  0.0000000  3
   3411   3409   3415   3416     1  0.0000000  0.6508444  3
   3411   3409   3415   3417     1  0.0000000  0.6508444  3
   3415   6872   6844   6845     1  0.0000000  1.6038667  3
   3415   6872   6844   6846     1  0.0000000  1.6038667  3
   3416   3415   6872   6844     1  0.0000000  1.6038667  3
   3417   3415   6872   6844     1  0.0000000  1.6038667  3
   3418   6901   6873   6874     1  0.0000000  1.6038667  3
   3418   6901   6873   6875     1  0.0000000  1.6038667  3
   3419   3418   6901   6873     1  0.0000000  1.6038667  3
   3420   3418   6901   6873     1  0.0000000  1.6038667  3
   3422   3423   3435   3436     1  0.0000000  0.6508444  3
   3422   3423   3435   3437     1  0.0000000  0.6508444  3
   3422   3426   3438   3439     1  0.0000000  0.6508444  3
   3422   3426   3438   3440     1  0.0000000  0.6508444  3
   3422   3429   3432   3433     1  0.0000000  0.6508444  3
   3422   3429   3432   3434     1  0.0000000  0.6508444  3
   3423   3422   3426   3427     1  0.0000000  1.2552000  3
   3423   3422   3426   3428     1  0.0000000  1.2552000  3
   3423   3422   3429   3430     1  0.0000000  1.2552000  3
   3423   3422   3429   3431     1  0.0000000  1.2552000  3
   3423   3435   3447   3448     1  0.0000000  0.6508444  3
   3423   3435   3447   3449     1  0.0000000  0.6508444  3
   3424   3423   3422   3426     1  0.0000000  1.2552000  3
   3424   3423   3422   3429     1  0.0000000  1.2552000  3
   3424   3423   3435   3447     1  0.0000000  0.6508444  3
   3424   3423   3435   3436     1  0.0000000  0.6508444  3
   3424   3423   3435   3437     1  0.0000000  0.6508444  3
   3425   3423   3422   3426     1  0.0000000  1.2552000  3
   3425   3423   3422   3429     1  0.0000000  1.2552000  3
   3425   3423   3435   3447     1  0.0000000  0.6508444  3
   3425   3423   3435   3436     1  0.0000000  0.6508444  3
   3425   3423   3435   3437     1  0.0000000  0.6508444  3
   3426   3422   3429   3430     1  0.0000000  1.2552000  3
   3426   3422   3429   3431     1  0.0000000  1.2552000  3
   3426   3438   3444   3445     1  0.0000000  0.6508444  3
   3426   3438   3444   3446     1  0.0000000  0.6508444  3
   3427   3426   3422   3429     1  0.0000000  1.2552000  3
   3427   3426   3438   3444     1  0.0000000  0.6508444  3
   3427   3426   3438   3439     1  0.0000000  0.6508444  3
   3427   3426   3438   3440     1  0.0000000  0.6508444  3
   3428   3426   3422   3429     1  0.0000000  1.2552000  3
   3428   3426   3438   3444     1  0.0000000  0.6508444  3
   3428   3426   3438   3439     1  0.0000000  0.6508444  3
   3428   3426   3438   3440     1  0.0000000  0.6508444  3
   3429   3432   3441   3442     1  0.0000000  0.6508444  3
   3429   3432   3441   3443     1  0.0000000  0.6508444  3
   3430   3429   3432   3441     1  0.0000000  0.6508444  3
   3430   3429   3432   3433     1  0.0000000  0.6508444  3
   3430   3429   3432   3434     1  0.0000000  0.6508444  3
   3431   3429   3432   3441     1  0.0000000  0.6508444  3
   3431   3429   3432   3433     1  0.0000000  0.6508444  3
   3431   3429   3432   3434     1  0.0000000  0.6508444  3
   3433   3432   3441   3450     1  0.0000000  1.0460000  1
   3433   3432   3441   3450     1  0.0000000  0.0000000  3
   3433   3432   3441   3442     1  0.0000000  0.6508444  3
   3433   3432   3441   3443     1  0.0000000  0.6508444  3
   3434   3432   3441   3450     1  0.0000000  1.0460000  1
   3434   3432   3441   3450     1  0.0000000  0.0000000  3
   3434   3432   3441   3442     1  0.0000000  0.6508444  3
   3434   3432   3441   3443     1  0.0000000  0.6508444  3
   3436   3435   3447   6959     1  0.0000000  1.0460000  1
   3436   3435   3447   6959     1  0.0000000  0.0000000  3
   3436   3435   3447   3448     1  0.0000000  0.6508444  3
   3436   3435   3447   3449     1  0.0000000  0.6508444  3
   3437   3435   3447   6959     1  0.0000000  1.0460000  1
   3437   3435   3447   6959     1  0.0000000  0.0000000  3
   3437   3435   3447   3448     1  0.0000000  0.6508444  3
   3437   3435   3447   3449     1  0.0000000  0.6508444  3
   3439   3438   3444   6930     1  0.0000000  1.0460000  1
   3439   3438   3444   6930     1  0.0000000  0.0000000  3
   3439   3438   3444   3445     1  0.0000000  0.6508444  3
   3439   3438   3444   3446     1  0.0000000  0.6508444  3
   3440   3438   3444   6930     1  0.0000000  1.0460000  1
   3440   3438   3444   6930     1  0.0000000  0.0000000  3
   3440   3438   3444   3445     1  0.0000000  0.6508444  3
   3440   3438   3444   3446     1  0.0000000  0.6508444  3
   3444   6930   6902   6903     1  0.0000000  1.6038667  3
   3444   6930   6902   6904     1  0.0000000  1.6038667  3
   3445   3444   6930   6902     1  0.0000000  1.6038667  3
   3446   3444   6930   6902     1  0.0000000  1.6038667  3
   3447   6959   6931   6932     1  0.0000000  1.6038667  3
   3447   6959   6931   6933     1  0.0000000  1.6038667  3
   3448   3447   6959   6931     1  0.0000000  1.6038667  3
   3449   3447   6959   6931     1  0.0000000  1.6038667  3
   3451   3452   3464   3465     1  0.0000000  0.6508444  3
   3451   3452   3464   3466     1  0.0000000  0.6508444  3
   3451   3455   3467   3468     1  0.0000000  0.6508444  3
   3451   3455   3467   3469     1  0.0000000  0.6508444  3
   3451   3458   3461   3462     1  0.0000000  0.6508444  3
   3451   3458   3461   3463     1  0.0000000  0.6508444  3
   3452   3451   3455   3456     1  0.0000000  1.2552000  3
   3452   3451   3455   3457     1  0.0000000  1.2552000  3
   3452   3451   3458   3459     1  0.0000000  1.2552000  3
   3452   3451   3458   3460     1  0.0000000  1.2552000  3
   3452   3464   3476   3477     1  0.0000000  0.6508444  3
   3452   3464   3476   3478     1  0.0000000  0.6508444  3
   3453   3452   3451   3455     1  0.0000000  1.2552000  3
   3453   3452   3451   3458     1  0.0000000  1.2552000  3
   3453   3452   3464   3476     1  0.0000000  0.6508444  3
   3453   3452   3464   3465     1  0.0000000  0.6508444  3
   3453   3452   3464   3466     1  0.0000000  0.6508444  3
   3454   3452   3451   3455     1  0.0000000  1.2552000  3
   3454   3452   3451   3458     1  0.0000000  1.2552000  3
   3454   3452   3464   3476     1  0.0000000  0.6508444  3
   3454   3452   3464   3465     1  0.0000000  0.6508444  3
   3454   3452   3464   3466     1  0.0000000  0.6508444  3
   3455   3451   3458   3459     1  0.0000000  1.2552000  3
   3455   3451   3458   3460     1  0.0000000  1.2552000  3
   3455   3467   3473   3474     1  0.0000000  0.6508444  3
   3455   3467   3473   3475     1  0.0000000  0.6508444  3
   3456   3455   3451   3458     1  0.0000000  1.2552000  3
   3456   3455   3467   3473     1  0.0000000  0.6508444  3
   3456   3455   3467   3468     1  0.0000000  0.6508444  3
   3456   3455   3467   3469     1  0.0000000  0.6508444  3
   3457   3455   3451   3458     1  0.0000000  1.2552000  3
   3457   3455   3467   3473     1  0.0000000  0.6508444  3
   3457   3455   3467   3468     1  0.0000000  0.6508444  3
   3457   3455   3467   3469     1  0.0000000  0.6508444  3
   3458   3461   3470   3471     1  0.0000000  0.6508444  3
   3458   3461   3470   3472     1  0.0000000  0.6508444  3
   3459   3458   3461   3470     1  0.0000000  0.6508444  3
   3459   3458   3461   3462     1  0.0000000  0.6508444  3
   3459   3458   3461   3463     1  0.0000000  0.6508444  3
   3460   3458   3461   3470     1  0.0000000  0.6508444  3
   3460   3458   3461   3462     1  0.0000000  0.6508444  3
   3460   3458   3461   3463     1  0.0000000  0.6508444  3
   3462   3461   3470   3479     1  0.0000000  1.0460000  1
   3462   3461   3470   3479     1  0.0000000  0.0000000  3
   3462   3461   3470   3471     1  0.0000000  0.6508444  3
   3462   3461   3470   3472     1  0.0000000  0.6508444  3
   3463   3461   3470   3479     1  0.0000000  1.0460000  1
   3463   3461   3470   3479     1  0.0000000  0.0000000  3
   3463   3461   3470   3471     1  0.0000000  0.6508444  3
   3463   3461   3470   3472     1  0.0000000  0.6508444  3
   3465   3464   3476   7017     1  0.0000000  1.0460000  1
   3465   3464   3476   7017     1  0.0000000  0.0000000  3
   3465   3464   3476   3477     1  0.0000000  0.6508444  3
   3465   3464   3476   3478     1  0.0000000  0.6508444  3
   3466   3464   3476   7017     1  0.0000000  1.0460000  1
   3466   3464   3476   7017     1  0.0000000  0.0000000  3
   3466   3464   3476   3477     1  0.0000000  0.6508444  3
   3466   3464   3476   3478     1  0.0000000  0.6508444  3
   3468   3467   3473   6988     1  0.0000000  1.0460000  1
   3468   3467   3473   6988     1  0.0000000  0.0000000  3
   3468   3467   3473   3474     1  0.0000000  0.6508444  3
   3468   3467   3473   3475     1  0.0000000  0.6508444  3
   3469   3467   3473   6988     1  0.0000000  1.0460000  1
   3469   3467   3473   6988     1  0.0000000  0.0000000  3
   3469   3467   3473   3474     1  0.0000000  0.6508444  3
   3469   3467   3473   3475     1  0.0000000  0.6508444  3
   3473   6988   6960   6961     1  0.0000000  1.6038667  3
   3473   6988   6960   6962     1  0.0000000  1.6038667  3
   3474   3473   6988   6960     1  0.0000000  1.6038667  3
   3475   3473   6988   6960     1  0.0000000  1.6038667  3
   3476   7017   6989   6990     1  0.0000000  1.6038667  3
   3476   7017   6989   6991     1  0.0000000  1.6038667  3
   3477   3476   7017   6989     1  0.0000000  1.6038667  3
   3478   3476   7017   6989     1  0.0000000  1.6038667  3
   3480   3481   3493   3494     1  0.0000000  0.6508444  3
   3480   3481   3493   3495     1  0.0000000  0.6508444  3
   3480   3484   3496   3497     1  0.0000000  0.6508444  3
   3480   3484   3496   3498     1  0.0000000  0.6508444  3
   3480   3487   3490   3491     1  0.0000000  0.6508444  3
   3480   3487   3490   3492     1  0.0000000  0.6508444  3
   3481   3480   3484   3485     1  0.0000000  1.2552000  3
   3481   3480   3484   3486     1  0.0000000  1.2552000  3
   3481   3480   3487   3488     1  0.0000000  1.2552000  3
   3481   3480   3487   3489     1  0.0000000  1.2552000  3
   3481   3493   3505   3506     1  0.0000000  0.6508444  3
   3481   3493   3505   3507     1  0.0000000  0.6508444  3
   3482   3481   3480   3484     1  0.0000000  1.2552000  3
   3482   3481   3480   3487     1  0.0000000  1.2552000  3
   3482   3481   3493   3505     1  0.0000000  0.6508444  3
   3482   3481   3493   3494     1  0.0000000  0.6508444  3
   3482   3481   3493   3495     1  0.0000000  0.6508444  3
   3483   3481   3480   3484     1  0.0000000  1.2552000  3
   3483   3481   3480   3487     1  0.0000000  1.2552000  3
   3483   3481   3493   3505     1  0.0000000  0.6508444  3
   3483   3481   3493   3494     1  0.0000000  0.6508444  3
   3483   3481   3493   3495     1  0.0000000  0.6508444  3
   3484   3480   3487   3488     1  0.0000000  1.2552000  3
   3484   3480   3487   3489     1  0.0000000  1.2552000  3
   3484   3496   3502   3503     1  0.0000000  0.6508444  3
   3484   3496   3502   3504     1  0.0000000  0.6508444  3
   3485   3484   3480   3487     1  0.0000000  1.2552000  3
   3485   3484   3496   3502     1  0.0000000  0.6508444  3
   3485   3484   3496   3497     1  0.0000000  0.6508444  3
   3485   3484   3496   3498     1  0.0000000  0.6508444  3
   3486   3484   3480   3487     1  0.0000000  1.2552000  3
   3486   3484   3496   3502     1  0.0000000  0.6508444  3
   3486   3484   3496   3497     1  0.0000000  0.6508444  3
   3486   3484   3496   3498     1  0.0000000  0.6508444  3
   3487   3490   3499   3500     1  0.0000000  0.6508444  3
   3487   3490   3499   3501     1  0.0000000  0.6508444  3
   3488   3487   3490   3499     1  0.0000000  0.6508444  3
   3488   3487   3490   3491     1  0.0000000  0.6508444  3
   3488   3487   3490   3492     1  0.0000000  0.6508444  3
   3489   3487   3490   3499     1  0.0000000  0.6508444  3
   3489   3487   3490   3491     1  0.0000000  0.6508444  3
   3489   3487   3490   3492     1  0.0000000  0.6508444  3
   3491   3490   3499   3508     1  0.0000000  1.0460000  1
   3491   3490   3499   3508     1  0.0000000  0.0000000  3
   3491   3490   3499   3500     1  0.0000000  0.6508444  3
   3491   3490   3499   3501     1  0.0000000  0.6508444  3
   3492   3490   3499   3508     1  0.0000000  1.0460000  1
   3492   3490   3499   3508     1  0.0000000  0.0000000  3
   3492   3490   3499   3500     1  0.0000000  0.6508444  3
   3492   3490   3499   3501     1  0.0000000  0.6508444  3
   3494   3493   3505   7075     1  0.0000000  1.0460000  1
   3494   3493   3505   7075     1  0.0000000  0.0000000  3
   3494   3493   3505   3506     1  0.0000000  0.6508444  3
   3494   3493   3505   3507     1  0.0000000  0.6508444  3
   3495   3493   3505   7075     1  0.0000000  1.0460000  1
   3495   3493   3505   7075     1  0.0000000  0.0000000  3
   3495   3493   3505   3506     1  0.0000000  0.6508444  3
   3495   3493   3505   3507     1  0.0000000  0.6508444  3
   3497   3496   3502   7046     1  0.0000000  1.0460000  1
   3497   3496   3502   7046     1  0.0000000  0.0000000  3
   3497   3496   3502   3503     1  0.0000000  0.6508444  3
   3497   3496   3502   3504     1  0.0000000  0.6508444  3
   3498   3496   3502   7046     1  0.0000000  1.0460000  1
   3498   3496   3502   7046     1  0.0000000  0.0000000  3
   3498   3496   3502   3503     1  0.0000000  0.6508444  3
   3498   3496   3502   3504     1  0.0000000  0.6508444  3
   3502   7046   7018   7019     1  0.0000000  1.6038667  3
   3502   7046   7018   7020     1  0.0000000  1.6038667  3
   3503   3502   7046   7018     1  0.0000000  1.6038667  3
   3504   3502   7046   7018     1  0.0000000  1.6038667  3
   3505   7075   7047   7048     1  0.0000000  1.6038667  3
   3505   7075   7047   7049     1  0.0000000  1.6038667  3
   3506   3505   7075   7047     1  0.0000000  1.6038667  3
   3507   3505   7075   7047     1  0.0000000  1.6038667  3
   3509   3510   3522   3523     1  0.0000000  0.6508444  3
   3509   3510   3522   3524     1  0.0000000  0.6508444  3
   3509   3513   3525   3526     1  0.0000000  0.6508444  3
   3509   3513   3525   3527     1  0.0000000  0.6508444  3
   3509   3516   3519   3520     1  0.0000000  0.6508444  3
   3509   3516   3519   3521     1  0.0000000  0.6508444  3
   3510   3509   3513   3514     1  0.0000000  1.2552000  3
   3510   3509   3513   3515     1  0.0000000  1.2552000  3
   3510   3509   3516   3517     1  0.0000000  1.2552000  3
   3510   3509   3516   3518     1  0.0000000  1.2552000  3
   3510   3522   3534   3535     1  0.0000000  0.6508444  3
   3510   3522   3534   3536     1  0.0000000  0.6508444  3
   3511   3510   3509   3513     1  0.0000000  1.2552000  3
   3511   3510   3509   3516     1  0.0000000  1.2552000  3
   3511   3510   3522   3534     1  0.0000000  0.6508444  3
   3511   3510   3522   3523     1  0.0000000  0.6508444  3
   3511   3510   3522   3524     1  0.0000000  0.6508444  3
   3512   3510   3509   3513     1  0.0000000  1.2552000  3
   3512   3510   3509   3516     1  0.0000000  1.2552000  3
   3512   3510   3522   3534     1  0.0000000  0.6508444  3
   3512   3510   3522   3523     1  0.0000000  0.6508444  3
   3512   3510   3522   3524     1  0.0000000  0.6508444  3
   3513   3509   3516   3517     1  0.0000000  1.2552000  3
   3513   3509   3516   3518     1  0.0000000  1.2552000  3
   3513   3525   3531   3532     1  0.0000000  0.6508444  3
   3513   3525   3531   3533     1  0.0000000  0.6508444  3
   3514   3513   3509   3516     1  0.0000000  1.2552000  3
   3514   3513   3525   3531     1  0.0000000  0.6508444  3
   3514   3513   3525   3526     1  0.0000000  0.6508444  3
   3514   3513   3525   3527     1  0.0000000  0.6508444  3
   3515   3513   3509   3516     1  0.0000000  1.2552000  3
   3515   3513   3525   3531     1  0.0000000  0.6508444  3
   3515   3513   3525   3526     1  0.0000000  0.6508444  3
   3515   3513   3525   3527     1  0.0000000  0.6508444  3
   3516   3519   3528   3529     1  0.0000000  0.6508444  3
   3516   3519   3528   3530     1  0.0000000  0.6508444  3
   3517   3516   3519   3528     1  0.0000000  0.6508444  3
   3517   3516   3519   3520     1  0.0000000  0.6508444  3
   3517   3516   3519   3521     1  0.0000000  0.6508444  3
   3518   3516   3519   3528     1  0.0000000  0.6508444  3
   3518   3516   3519   3520     1  0.0000000  0.6508444  3
   3518   3516   3519   3521     1  0.0000000  0.6508444  3
   3520   3519   3528   3537     1  0.0000000  1.0460000  1
   3520   3519   3528   3537     1  0.0000000  0.0000000  3
   3520   3519   3528   3529     1  0.0000000  0.6508444  3
   3520   3519   3528   3530     1  0.0000000  0.6508444  3
   3521   3519   3528   3537     1  0.0000000  1.0460000  1
   3521   3519   3528   3537     1  0.0000000  0.0000000  3
   3521   3519   3528   3529     1  0.0000000  0.6508444  3
   3521   3519   3528   3530     1  0.0000000  0.6508444  3
   3523   3522   3534   7133     1  0.0000000  1.0460000  1
   3523   3522   3534   7133     1  0.0000000  0.0000000  3
   3523   3522   3534   3535     1  0.0000000  0.6508444  3
   3523   3522   3534   3536     1  0.0000000  0.6508444  3
   3524   3522   3534   7133     1  0.0000000  1.0460000  1
   3524   3522   3534   7133     1  0.0000000  0.0000000  3
   3524   3522   3534   3535     1  0.0000000  0.6508444  3
   3524   3522   3534   3536     1  0.0000000  0.6508444  3
   3526   3525   3531   7104     1  0.0000000  1.0460000  1
   3526   3525   3531   7104     1  0.0000000  0.0000000  3
   3526   3525   3531   3532     1  0.0000000  0.6508444  3
   3526   3525   3531   3533     1  0.0000000  0.6508444  3
   3527   3525   3531   7104     1  0.0000000  1.0460000  1
   3527   3525   3531   7104     1  0.0000000  0.0000000  3
   3527   3525   3531   3532     1  0.0000000  0.6508444  3
   3527   3525   3531   3533     1  0.0000000  0.6508444  3
   3531   7104   7076   7077     1  0.0000000  1.6038667  3
   3531   7104   7076   7078     1  0.0000000  1.6038667  3
   3532   3531   7104   7076     1  0.0000000  1.6038667  3
   3533   3531   7104   7076     1  0.0000000  1.6038667  3
   3534   7133   7105   7106     1  0.0000000  1.6038667  3
   3534   7133   7105   7107     1  0.0000000  1.6038667  3
   3535   3534   7133   7105     1  0.0000000  1.6038667  3
   3536   3534   7133   7105     1  0.0000000  1.6038667  3
   3538   3539   3551   3552     1  0.0000000  0.6508444  3
   3538   3539   3551   3553     1  0.0000000  0.6508444  3
   3538   3542   3554   3555     1  0.0000000  0.6508444  3
   3538   3542   3554   3556     1  0.0000000  0.6508444  3
   3538   3545   3548   3549     1  0.0000000  0.6508444  3
   3538   3545   3548   3550     1  0.0000000  0.6508444  3
   3539   3538   3542   3543     1  0.0000000  1.2552000  3
   3539   3538   3542   3544     1  0.0000000  1.2552000  3
   3539   3538   3545   3546     1  0.0000000  1.2552000  3
   3539   3538   3545   3547     1  0.0000000  1.2552000  3
   3539   3551   3563   3564     1  0.0000000  0.6508444  3
   3539   3551   3563   3565     1  0.0000000  0.6508444  3
   3540   3539   3538   3542     1  0.0000000  1.2552000  3
   3540   3539   3538   3545     1  0.0000000  1.2552000  3
   3540   3539   3551   3563     1  0.0000000  0.6508444  3
   3540   3539   3551   3552     1  0.0000000  0.6508444  3
   3540   3539   3551   3553     1  0.0000000  0.6508444  3
   3541   3539   3538   3542     1  0.0000000  1.2552000  3
   3541   3539   3538   3545     1  0.0000000  1.2552000  3
   3541   3539   3551   3563     1  0.0000000  0.6508444  3
   3541   3539   3551   3552     1  0.0000000  0.6508444  3
   3541   3539   3551   3553     1  0.0000000  0.6508444  3
   3542   3538   3545   3546     1  0.0000000  1.2552000  3
   3542   3538   3545   3547     1  0.0000000  1.2552000  3
   3542   3554   3560   3561     1  0.0000000  0.6508444  3
   3542   3554   3560   3562     1  0.0000000  0.6508444  3
   3543   3542   3538   3545     1  0.0000000  1.2552000  3
   3543   3542   3554   3560     1  0.0000000  0.6508444  3
   3543   3542   3554   3555     1  0.0000000  0.6508444  3
   3543   3542   3554   3556     1  0.0000000  0.6508444  3
   3544   3542   3538   3545     1  0.0000000  1.2552000  3
   3544   3542   3554   3560     1  0.0000000  0.6508444  3
   3544   3542   3554   3555     1  0.0000000  0.6508444  3
   3544   3542   3554   3556     1  0.0000000  0.6508444  3
   3545   3548   3557   3558     1  0.0000000  0.6508444  3
   3545   3548   3557   3559     1  0.0000000  0.6508444  3
   3546   3545   3548   3557     1  0.0000000  0.6508444  3
   3546   3545   3548   3549     1  0.0000000  0.6508444  3
   3546   3545   3548   3550     1  0.0000000  0.6508444  3
   3547   3545   3548   3557     1  0.0000000  0.6508444  3
   3547   3545   3548   3549     1  0.0000000  0.6508444  3
   3547   3545   3548   3550     1  0.0000000  0.6508444  3
   3549   3548   3557   3566     1  0.0000000  1.0460000  1
   3549   3548   3557   3566     1  0.0000000  0.0000000  3
   3549   3548   3557   3558     1  0.0000000  0.6508444  3
   3549   3548   3557   3559     1  0.0000000  0.6508444  3
   3550   3548   3557   3566     1  0.0000000  1.0460000  1
   3550   3548   3557   3566     1  0.0000000  0.0000000  3
   3550   3548   3557   3558     1  0.0000000  0.6508444  3
   3550   3548   3557   3559     1  0.0000000  0.6508444  3
   3552   3551   3563   7191     1  0.0000000  1.0460000  1
   3552   3551   3563   7191     1  0.0000000  0.0000000  3
   3552   3551   3563   3564     1  0.0000000  0.6508444  3
   3552   3551   3563   3565     1  0.0000000  0.6508444  3
   3553   3551   3563   7191     1  0.0000000  1.0460000  1
   3553   3551   3563   7191     1  0.0000000  0.0000000  3
   3553   3551   3563   3564     1  0.0000000  0.6508444  3
   3553   3551   3563   3565     1  0.0000000  0.6508444  3
   3555   3554   3560   7162     1  0.0000000  1.0460000  1
   3555   3554   3560   7162     1  0.0000000  0.0000000  3
   3555   3554   3560   3561     1  0.0000000  0.6508444  3
   3555   3554   3560   3562     1  0.0000000  0.6508444  3
   3556   3554   3560   7162     1  0.0000000  1.0460000  1
   3556   3554   3560   7162     1  0.0000000  0.0000000  3
   3556   3554   3560   3561     1  0.0000000  0.6508444  3
   3556   3554   3560   3562     1  0.0000000  0.6508444  3
   3560   7162   7134   7135     1  0.0000000  1.6038667  3
   3560   7162   7134   7136     1  0.0000000  1.6038667  3
   3561   3560   7162   7134     1  0.0000000  1.6038667  3
   3562   3560   7162   7134     1  0.0000000  1.6038667  3
   3563   7191   7163   7164     1  0.0000000  1.6038667  3
   3563   7191   7163   7165     1  0.0000000  1.6038667  3
   3564   3563   7191   7163     1  0.0000000  1.6038667  3
   3565   3563   7191   7163     1  0.0000000  1.6038667  3
   3567   3568   3580   3581     1  0.0000000  0.6508444  3
   3567   3568   3580   3582     1  0.0000000  0.6508444  3
   3567   3571   3583   3584     1  0.0000000  0.6508444  3
   3567   3571   3583   3585     1  0.0000000  0.6508444  3
   3567   3574   3577   3578     1  0.0000000  0.6508444  3
   3567   3574   3577   3579     1  0.0000000  0.6508444  3
   3568   3567   3571   3572     1  0.0000000  1.2552000  3
   3568   3567   3571   3573     1  0.0000000  1.2552000  3
   3568   3567   3574   3575     1  0.0000000  1.2552000  3
   3568   3567   3574   3576     1  0.0000000  1.2552000  3
   3568   3580   3592   3593     1  0.0000000  0.6508444  3
   3568   3580   3592   3594     1  0.0000000  0.6508444  3
   3569   3568   3567   3571     1  0.0000000  1.2552000  3
   3569   3568   3567   3574     1  0.0000000  1.2552000  3
   3569   3568   3580   3592     1  0.0000000  0.6508444  3
   3569   3568   3580   3581     1  0.0000000  0.6508444  3
   3569   3568   3580   3582     1  0.0000000  0.6508444  3
   3570   3568   3567   3571     1  0.0000000  1.2552000  3
   3570   3568   3567   3574     1  0.0000000  1.2552000  3
   3570   3568   3580   3592     1  0.0000000  0.6508444  3
   3570   3568   3580   3581     1  0.0000000  0.6508444  3
   3570   3568   3580   3582     1  0.0000000  0.6508444  3
   3571   3567   3574   3575     1  0.0000000  1.2552000  3
   3571   3567   3574   3576     1  0.0000000  1.2552000  3
   3571   3583   3589   3590     1  0.0000000  0.6508444  3
   3571   3583   3589   3591     1  0.0000000  0.6508444  3
   3572   3571   3567   3574     1  0.0000000  1.2552000  3
   3572   3571   3583   3589     1  0.0000000  0.6508444  3
   3572   3571   3583   3584     1  0.0000000  0.6508444  3
   3572   3571   3583   3585     1  0.0000000  0.6508444  3
   3573   3571   3567   3574     1  0.0000000  1.2552000  3
   3573   3571   3583   3589     1  0.0000000  0.6508444  3
   3573   3571   3583   3584     1  0.0000000  0.6508444  3
   3573   3571   3583   3585     1  0.0000000  0.6508444  3
   3574   3577   3586   3587     1  0.0000000  0.6508444  3
   3574   3577   3586   3588     1  0.0000000  0.6508444  3
   3575   3574   3577   3586     1  0.0000000  0.6508444  3
   3575   3574   3577   3578     1  0.0000000  0.6508444  3
   3575   3574   3577   3579     1  0.0000000  0.6508444  3
   3576   3574   3577   3586     1  0.0000000  0.6508444  3
   3576   3574   3577   3578     1  0.0000000  0.6508444  3
   3576   3574   3577   3579     1  0.0000000  0.6508444  3
   3578   3577   3586   3595     1  0.0000000  1.0460000  1
   3578   3577   3586   3595     1  0.0000000  0.0000000  3
   3578   3577   3586   3587     1  0.0000000  0.6508444  3
   3578   3577   3586   3588     1  0.0000000  0.6508444  3
   3579   3577   3586   3595     1  0.0000000  1.0460000  1
   3579   3577   3586   3595     1  0.0000000  0.0000000  3
   3579   3577   3586   3587     1  0.0000000  0.6508444  3
   3579   3577   3586   3588     1  0.0000000  0.6508444  3
   3581   3580   3592   7249     1  0.0000000  1.0460000  1
   3581   3580   3592   7249     1  0.0000000  0.0000000  3
   3581   3580   3592   3593     1  0.0000000  0.6508444  3
   3581   3580   3592   3594     1  0.0000000  0.6508444  3
   3582   3580   3592   7249     1  0.0000000  1.0460000  1
   3582   3580   3592   7249     1  0.0000000  0.0000000  3
   3582   3580   3592   3593     1  0.0000000  0.6508444  3
   3582   3580   3592   3594     1  0.0000000  0.6508444  3
   3584   3583   3589   7220     1  0.0000000  1.0460000  1
   3584   3583   3589   7220     1  0.0000000  0.0000000  3
   3584   3583   3589   3590     1  0.0000000  0.6508444  3
   3584   3583   3589   3591     1  0.0000000  0.6508444  3
   3585   3583   3589   7220     1  0.0000000  1.0460000  1
   3585   3583   3589   7220     1  0.0000000  0.0000000  3
   3585   3583   3589   3590     1  0.0000000  0.6508444  3
   3585   3583   3589   3591     1  0.0000000  0.6508444  3
   3589   7220   7192   7193     1  0.0000000  1.6038667  3
   3589   7220   7192   7194     1  0.0000000  1.6038667  3
   3590   3589   7220   7192     1  0.0000000  1.6038667  3
   3591   3589   7220   7192     1  0.0000000  1.6038667  3
   3592   7249   7221   7222     1  0.0000000  1.6038667  3
   3592   7249   7221   7223     1  0.0000000  1.6038667  3
   3593   3592   7249   7221     1  0.0000000  1.6038667  3
   3594   3592   7249   7221     1  0.0000000  1.6038667  3
   3596   3597   3609   3610     1  0.0000000  0.6508444  3
   3596   3597   3609   3611     1  0.0000000  0.6508444  3
   3596   3600   3612   3613     1  0.0000000  0.6508444  3
   3596   3600   3612   3614     1  0.0000000  0.6508444  3
   3596   3603   3606   3607     1  0.0000000  0.6508444  3
   3596   3603   3606   3608     1  0.0000000  0.6508444  3
   3597   3596   3600   3601     1  0.0000000  1.2552000  3
   3597   3596   3600   3602     1  0.0000000  1.2552000  3
   3597   3596   3603   3604     1  0.0000000  1.2552000  3
   3597   3596   3603   3605     1  0.0000000  1.2552000  3
   3597   3609   3621   3622     1  0.0000000  0.6508444  3
   3597   3609   3621   3623     1  0.0000000  0.6508444  3
   3598   3597   3596   3600     1  0.0000000  1.2552000  3
   3598   3597   3596   3603     1  0.0000000  1.2552000  3
   3598   3597   3609   3621     1  0.0000000  0.6508444  3
   3598   3597   3609   3610     1  0.0000000  0.6508444  3
   3598   3597   3609   3611     1  0.0000000  0.6508444  3
   3599   3597   3596   3600     1  0.0000000  1.2552000  3
   3599   3597   3596   3603     1  0.0000000  1.2552000  3
   3599   3597   3609   3621     1  0.0000000  0.6508444  3
   3599   3597   3609   3610     1  0.0000000  0.6508444  3
   3599   3597   3609   3611     1  0.0000000  0.6508444  3
   3600   3596   3603   3604     1  0.0000000  1.2552000  3
   3600   3596   3603   3605     1  0.0000000  1.2552000  3
   3600   3612   3618   3619     1  0.0000000  0.6508444  3
   3600   3612   3618   3620     1  0.0000000  0.6508444  3
   3601   3600   3596   3603     1  0.0000000  1.2552000  3
   3601   3600   3612   3618     1  0.0000000  0.6508444  3
   3601   3600   3612   3613     1  0.0000000  0.6508444  3
   3601   3600   3612   3614     1  0.0000000  0.6508444  3
   3602   3600   3596   3603     1  0.0000000  1.2552000  3
   3602   3600   3612   3618     1  0.0000000  0.6508444  3
   3602   3600   3612   3613     1  0.0000000  0.6508444  3
   3602   3600   3612   3614     1  0.0000000  0.6508444  3
   3603   3606   3615   3616     1  0.0000000  0.6508444  3
   3603   3606   3615   3617     1  0.0000000  0.6508444  3
   3604   3603   3606   3615     1  0.0000000  0.6508444  3
   3604   3603   3606   3607     1  0.0000000  0.6508444  3
   3604   3603   3606   3608     1  0.0000000  0.6508444  3
   3605   3603   3606   3615     1  0.0000000  0.6508444  3
   3605   3603   3606   3607     1  0.0000000  0.6508444  3
   3605   3603   3606   3608     1  0.0000000  0.6508444  3
   3607   3606   3615   3624     1  0.0000000  1.0460000  1
   3607   3606   3615   3624     1  0.0000000  0.0000000  3
   3607   3606   3615   3616     1  0.0000000  0.6508444  3
   3607   3606   3615   3617     1  0.0000000  0.6508444  3
   3608   3606   3615   3624     1  0.0000000  1.0460000  1
   3608   3606   3615   3624     1  0.0000000  0.0000000  3
   3608   3606   3615   3616     1  0.0000000  0.6508444  3
   3608   3606   3615   3617     1  0.0000000  0.6508444  3
   3610   3609   3621   7307     1  0.0000000  1.0460000  1
   3610   3609   3621   7307     1  0.0000000  0.0000000  3
   3610   3609   3621   3622     1  0.0000000  0.6508444  3
   3610   3609   3621   3623     1  0.0000000  0.6508444  3
   3611   3609   3621   7307     1  0.0000000  1.0460000  1
   3611   3609   3621   7307     1  0.0000000  0.0000000  3
   3611   3609   3621   3622     1  0.0000000  0.6508444  3
   3611   3609   3621   3623     1  0.0000000  0.6508444  3
   3613   3612   3618   7278     1  0.0000000  1.0460000  1
   3613   3612   3618   7278     1  0.0000000  0.0000000  3
   3613   3612   3618   3619     1  0.0000000  0.6508444  3
   3613   3612   3618   3620     1  0.0000000  0.6508444  3
   3614   3612   3618   7278     1  0.0000000  1.0460000  1
   3614   3612   3618   7278     1  0.0000000  0.0000000  3
   3614   3612   3618   3619     1  0.0000000  0.6508444  3
   3614   3612   3618   3620     1  0.0000000  0.6508444  3
   3618   7278   7250   7251     1  0.0000000  1.6038667  3
   3618   7278   7250   7252     1  0.0000000  1.6038667  3
   3619   3618   7278   7250     1  0.0000000  1.6038667  3
   3620   3618   7278   7250     1  0.0000000  1.6038667  3
   3621   7307   7279   7280     1  0.0000000  1.6038667  3
   3621   7307   7279   7281     1  0.0000000  1.6038667  3
   3622   3621   7307   7279     1  0.0000000  1.6038667  3
   3623   3621   7307   7279     1  0.0000000  1.6038667  3
   3625   3626   3638   3639     1  0.0000000  0.6508444  3
   3625   3626   3638   3640     1  0.0000000  0.6508444  3
   3625   3629   3641   3642     1  0.0000000  0.6508444  3
   3625   3629   3641   3643     1  0.0000000  0.6508444  3
   3625   3632   3635   3636     1  0.0000000  0.6508444  3
   3625   3632   3635   3637     1  0.0000000  0.6508444  3
   3626   3625   3629   3630     1  0.0000000  1.2552000  3
   3626   3625   3629   3631     1  0.0000000  1.2552000  3
   3626   3625   3632   3633     1  0.0000000  1.2552000  3
   3626   3625   3632   3634     1  0.0000000  1.2552000  3
   3626   3638   3650   3651     1  0.0000000  0.6508444  3
   3626   3638   3650   3652     1  0.0000000  0.6508444  3
   3627   3626   3625   3629     1  0.0000000  1.2552000  3
   3627   3626   3625   3632     1  0.0000000  1.2552000  3
   3627   3626   3638   3650     1  0.0000000  0.6508444  3
   3627   3626   3638   3639     1  0.0000000  0.6508444  3
   3627   3626   3638   3640     1  0.0000000  0.6508444  3
   3628   3626   3625   3629     1  0.0000000  1.2552000  3
   3628   3626   3625   3632     1  0.0000000  1.2552000  3
   3628   3626   3638   3650     1  0.0000000  0.6508444  3
   3628   3626   3638   3639     1  0.0000000  0.6508444  3
   3628   3626   3638   3640     1  0.0000000  0.6508444  3
   3629   3625   3632   3633     1  0.0000000  1.2552000  3
   3629   3625   3632   3634     1  0.0000000  1.2552000  3
   3629   3641   3647   3648     1  0.0000000  0.6508444  3
   3629   3641   3647   3649     1  0.0000000  0.6508444  3
   3630   3629   3625   3632     1  0.0000000  1.2552000  3
   3630   3629   3641   3647     1  0.0000000  0.6508444  3
   3630   3629   3641   3642     1  0.0000000  0.6508444  3
   3630   3629   3641   3643     1  0.0000000  0.6508444  3
   3631   3629   3625   3632     1  0.0000000  1.2552000  3
   3631   3629   3641   3647     1  0.0000000  0.6508444  3
   3631   3629   3641   3642     1  0.0000000  0.6508444  3
   3631   3629   3641   3643     1  0.0000000  0.6508444  3
   3632   3635   3644   3645     1  0.0000000  0.6508444  3
   3632   3635   3644   3646     1  0.0000000  0.6508444  3
   3633   3632   3635   3644     1  0.0000000  0.6508444  3
   3633   3632   3635   3636     1  0.0000000  0.6508444  3
   3633   3632   3635   3637     1  0.0000000  0.6508444  3
   3634   3632   3635   3644     1  0.0000000  0.6508444  3
   3634   3632   3635   3636     1  0.0000000  0.6508444  3
   3634   3632   3635   3637     1  0.0000000  0.6508444  3
   3636   3635   3644   3653     1  0.0000000  1.0460000  1
   3636   3635   3644   3653     1  0.0000000  0.0000000  3
   3636   3635   3644   3645     1  0.0000000  0.6508444  3
   3636   3635   3644   3646     1  0.0000000  0.6508444  3
   3637   3635   3644   3653     1  0.0000000  1.0460000  1
   3637   3635   3644   3653     1  0.0000000  0.0000000  3
   3637   3635   3644   3645     1  0.0000000  0.6508444  3
   3637   3635   3644   3646     1  0.0000000  0.6508444  3
   3639   3638   3650   7365     1  0.0000000  1.0460000  1
   3639   3638   3650   7365     1  0.0000000  0.0000000  3
   3639   3638   3650   3651     1  0.0000000  0.6508444  3
   3639   3638   3650   3652     1  0.0000000  0.6508444  3
   3640   3638   3650   7365     1  0.0000000  1.0460000  1
   3640   3638   3650   7365     1  0.0000000  0.0000000  3
   3640   3638   3650   3651     1  0.0000000  0.6508444  3
   3640   3638   3650   3652     1  0.0000000  0.6508444  3
   3642   3641   3647   7336     1  0.0000000  1.0460000  1
   3642   3641   3647   7336     1  0.0000000  0.0000000  3
   3642   3641   3647   3648     1  0.0000000  0.6508444  3
   3642   3641   3647   3649     1  0.0000000  0.6508444  3
   3643   3641   3647   7336     1  0.0000000  1.0460000  1
   3643   3641   3647   7336     1  0.0000000  0.0000000  3
   3643   3641   3647   3648     1  0.0000000  0.6508444  3
   3643   3641   3647   3649     1  0.0000000  0.6508444  3
   3647   7336   7308   7309     1  0.0000000  1.6038667  3
   3647   7336   7308   7310     1  0.0000000  1.6038667  3
   3648   3647   7336   7308     1  0.0000000  1.6038667  3
   3649   3647   7336   7308     1  0.0000000  1.6038667  3
   3650   7365   7337   7338     1  0.0000000  1.6038667  3
   3650   7365   7337   7339     1  0.0000000  1.6038667  3
   3651   3650   7365   7337     1  0.0000000  1.6038667  3
   3652   3650   7365   7337     1  0.0000000  1.6038667  3
   3654   3655   3667   3668     1  0.0000000  0.6508444  3
   3654   3655   3667   3669     1  0.0000000  0.6508444  3
   3654   3658   3670   3671     1  0.0000000  0.6508444  3
   3654   3658   3670   3672     1  0.0000000  0.6508444  3
   3654   3661   3664   3665     1  0.0000000  0.6508444  3
   3654   3661   3664   3666     1  0.0000000  0.6508444  3
   3655   3654   3658   3659     1  0.0000000  1.2552000  3
   3655   3654   3658   3660     1  0.0000000  1.2552000  3
   3655   3654   3661   3662     1  0.0000000  1.2552000  3
   3655   3654   3661   3663     1  0.0000000  1.2552000  3
   3655   3667   3679   3680     1  0.0000000  0.6508444  3
   3655   3667   3679   3681     1  0.0000000  0.6508444  3
   3656   3655   3654   3658     1  0.0000000  1.2552000  3
   3656   3655   3654   3661     1  0.0000000  1.2552000  3
   3656   3655   3667   3679     1  0.0000000  0.6508444  3
   3656   3655   3667   3668     1  0.0000000  0.6508444  3
   3656   3655   3667   3669     1  0.0000000  0.6508444  3
   3657   3655   3654   3658     1  0.0000000  1.2552000  3
   3657   3655   3654   3661     1  0.0000000  1.2552000  3
   3657   3655   3667   3679     1  0.0000000  0.6508444  3
   3657   3655   3667   3668     1  0.0000000  0.6508444  3
   3657   3655   3667   3669     1  0.0000000  0.6508444  3
   3658   3654   3661   3662     1  0.0000000  1.2552000  3
   3658   3654   3661   3663     1  0.0000000  1.2552000  3
   3658   3670   3676   3677     1  0.0000000  0.6508444  3
   3658   3670   3676   3678     1  0.0000000  0.6508444  3
   3659   3658   3654   3661     1  0.0000000  1.2552000  3
   3659   3658   3670   3676     1  0.0000000  0.6508444  3
   3659   3658   3670   3671     1  0.0000000  0.6508444  3
   3659   3658   3670   3672     1  0.0000000  0.6508444  3
   3660   3658   3654   3661     1  0.0000000  1.2552000  3
   3660   3658   3670   3676     1  0.0000000  0.6508444  3
   3660   3658   3670   3671     1  0.0000000  0.6508444  3
   3660   3658   3670   3672     1  0.0000000  0.6508444  3
   3661   3664   3673   3674     1  0.0000000  0.6508444  3
   3661   3664   3673   3675     1  0.0000000  0.6508444  3
   3662   3661   3664   3673     1  0.0000000  0.6508444  3
   3662   3661   3664   3665     1  0.0000000  0.6508444  3
   3662   3661   3664   3666     1  0.0000000  0.6508444  3
   3663   3661   3664   3673     1  0.0000000  0.6508444  3
   3663   3661   3664   3665     1  0.0000000  0.6508444  3
   3663   3661   3664   3666     1  0.0000000  0.6508444  3
   3665   3664   3673   3682     1  0.0000000  1.0460000  1
   3665   3664   3673   3682     1  0.0000000  0.0000000  3
   3665   3664   3673   3674     1  0.0000000  0.6508444  3
   3665   3664   3673   3675     1  0.0000000  0.6508444  3
   3666   3664   3673   3682     1  0.0000000  1.0460000  1
   3666   3664   3673   3682     1  0.0000000  0.0000000  3
   3666   3664   3673   3674     1  0.0000000  0.6508444  3
   3666   3664   3673   3675     1  0.0000000  0.6508444  3
   3668   3667   3679   7423     1  0.0000000  1.0460000  1
   3668   3667   3679   7423     1  0.0000000  0.0000000  3
   3668   3667   3679   3680     1  0.0000000  0.6508444  3
   3668   3667   3679   3681     1  0.0000000  0.6508444  3
   3669   3667   3679   7423     1  0.0000000  1.0460000  1
   3669   3667   3679   7423     1  0.0000000  0.0000000  3
   3669   3667   3679   3680     1  0.0000000  0.6508444  3
   3669   3667   3679   3681     1  0.0000000  0.6508444  3
   3671   3670   3676   7394     1  0.0000000  1.0460000  1
   3671   3670   3676   7394     1  0.0000000  0.0000000  3
   3671   3670   3676   3677     1  0.0000000  0.6508444  3
   3671   3670   3676   3678     1  0.0000000  0.6508444  3
   3672   3670   3676   7394     1  0.0000000  1.0460000  1
   3672   3670   3676   7394     1  0.0000000  0.0000000  3
   3672   3670   3676   3677     1  0.0000000  0.6508444  3
   3672   3670   3676   3678     1  0.0000000  0.6508444  3
   3676   7394   7366   7367     1  0.0000000  1.6038667  3
   3676   7394   7366   7368     1  0.0000000  1.6038667  3
   3677   3676   7394   7366     1  0.0000000  1.6038667  3
   3678   3676   7394   7366     1  0.0000000  1.6038667  3
   3679   7423   7395   7396     1  0.0000000  1.6038667  3
   3679   7423   7395   7397     1  0.0000000  1.6038667  3
   3680   3679   7423   7395     1  0.0000000  1.6038667  3
   3681   3679   7423   7395     1  0.0000000  1.6038667  3
   3683   3684   3696   3697     1  0.0000000  0.6508444  3
   3683   3684   3696   3698     1  0.0000000  0.6508444  3
   3683   3687   3699   3700     1  0.0000000  0.6508444  3
   3683   3687   3699   3701     1  0.0000000  0.6508444  3
   3683   3690   3693   3694     1  0.0000000  0.6508444  3
   3683   3690   3693   3695     1  0.0000000  0.6508444  3
   3684   3683   3687   3688     1  0.0000000  1.2552000  3
   3684   3683   3687   3689     1  0.0000000  1.2552000  3
   3684   3683   3690   3691     1  0.0000000  1.2552000  3
   3684   3683   3690   3692     1  0.0000000  1.2552000  3
   3684   3696   3708   3709     1  0.0000000  0.6508444  3
   3684   3696   3708   3710     1  0.0000000  0.6508444  3
   3685   3684   3683   3687     1  0.0000000  1.2552000  3
   3685   3684   3683   3690     1  0.0000000  1.2552000  3
   3685   3684   3696   3708     1  0.0000000  0.6508444  3
   3685   3684   3696   3697     1  0.0000000  0.6508444  3
   3685   3684   3696   3698     1  0.0000000  0.6508444  3
   3686   3684   3683   3687     1  0.0000000  1.2552000  3
   3686   3684   3683   3690     1  0.0000000  1.2552000  3
   3686   3684   3696   3708     1  0.0000000  0.6508444  3
   3686   3684   3696   3697     1  0.0000000  0.6508444  3
   3686   3684   3696   3698     1  0.0000000  0.6508444  3
   3687   3683   3690   3691     1  0.0000000  1.2552000  3
   3687   3683   3690   3692     1  0.0000000  1.2552000  3
   3687   3699   3705   3706     1  0.0000000  0.6508444  3
   3687   3699   3705   3707     1  0.0000000  0.6508444  3
   3688   3687   3683   3690     1  0.0000000  1.2552000  3
   3688   3687   3699   3705     1  0.0000000  0.6508444  3
   3688   3687   3699   3700     1  0.0000000  0.6508444  3
   3688   3687   3699   3701     1  0.0000000  0.6508444  3
   3689   3687   3683   3690     1  0.0000000  1.2552000  3
   3689   3687   3699   3705     1  0.0000000  0.6508444  3
   3689   3687   3699   3700     1  0.0000000  0.6508444  3
   3689   3687   3699   3701     1  0.0000000  0.6508444  3
   3690   3693   3702   3703     1  0.0000000  0.6508444  3
   3690   3693   3702   3704     1  0.0000000  0.6508444  3
   3691   3690   3693   3702     1  0.0000000  0.6508444  3
   3691   3690   3693   3694     1  0.0000000  0.6508444  3
   3691   3690   3693   3695     1  0.0000000  0.6508444  3
   3692   3690   3693   3702     1  0.0000000  0.6508444  3
   3692   3690   3693   3694     1  0.0000000  0.6508444  3
   3692   3690   3693   3695     1  0.0000000  0.6508444  3
   3694   3693   3702   3711     1  0.0000000  1.0460000  1
   3694   3693   3702   3711     1  0.0000000  0.0000000  3
   3694   3693   3702   3703     1  0.0000000  0.6508444  3
   3694   3693   3702   3704     1  0.0000000  0.6508444  3
   3695   3693   3702   3711     1  0.0000000  1.0460000  1
   3695   3693   3702   3711     1  0.0000000  0.0000000  3
   3695   3693   3702   3703     1  0.0000000  0.6508444  3
   3695   3693   3702   3704     1  0.0000000  0.6508444  3
   3697   3696   3708   7481     1  0.0000000  1.0460000  1
   3697   3696   3708   7481     1  0.0000000  0.0000000  3
   3697   3696   3708   3709     1  0.0000000  0.6508444  3
   3697   3696   3708   3710     1  0.0000000  0.6508444  3
   3698   3696   3708   7481     1  0.0000000  1.0460000  1
   3698   3696   3708   7481     1  0.0000000  0.0000000  3
   3698   3696   3708   3709     1  0.0000000  0.6508444  3
   3698   3696   3708   3710     1  0.0000000  0.6508444  3
   3700   3699   3705   7452     1  0.0000000  1.0460000  1
   3700   3699   3705   7452     1  0.0000000  0.0000000  3
   3700   3699   3705   3706     1  0.0000000  0.6508444  3
   3700   3699   3705   3707     1  0.0000000  0.6508444  3
   3701   3699   3705   7452     1  0.0000000  1.0460000  1
   3701   3699   3705   7452     1  0.0000000  0.0000000  3
   3701   3699   3705   3706     1  0.0000000  0.6508444  3
   3701   3699   3705   3707     1  0.0000000  0.6508444  3
   3705   7452   7424   7425     1  0.0000000  1.6038667  3
   3705   7452   7424   7426     1  0.0000000  1.6038667  3
   3706   3705   7452   7424     1  0.0000000  1.6038667  3
   3707   3705   7452   7424     1  0.0000000  1.6038667  3
   3708   7481   7453   7454     1  0.0000000  1.6038667  3
   3708   7481   7453   7455     1  0.0000000  1.6038667  3
   3709   3708   7481   7453     1  0.0000000  1.6038667  3
   3710   3708   7481   7453     1  0.0000000  1.6038667  3
   3712   3713   3725   3726     1  0.0000000  0.6508444  3
   3712   3713   3725   3727     1  0.0000000  0.6508444  3
   3712   3716   3728   3729     1  0.0000000  0.6508444  3
   3712   3716   3728   3730     1  0.0000000  0.6508444  3
   3712   3719   3722   3723     1  0.0000000  0.6508444  3
   3712   3719   3722   3724     1  0.0000000  0.6508444  3
   3713   3712   3716   3717     1  0.0000000  1.2552000  3
   3713   3712   3716   3718     1  0.0000000  1.2552000  3
   3713   3712   3719   3720     1  0.0000000  1.2552000  3
   3713   3712   3719   3721     1  0.0000000  1.2552000  3
   3713   3725   3737   3738     1  0.0000000  0.6508444  3
   3713   3725   3737   3739     1  0.0000000  0.6508444  3
   3714   3713   3712   3716     1  0.0000000  1.2552000  3
   3714   3713   3712   3719     1  0.0000000  1.2552000  3
   3714   3713   3725   3737     1  0.0000000  0.6508444  3
   3714   3713   3725   3726     1  0.0000000  0.6508444  3
   3714   3713   3725   3727     1  0.0000000  0.6508444  3
   3715   3713   3712   3716     1  0.0000000  1.2552000  3
   3715   3713   3712   3719     1  0.0000000  1.2552000  3
   3715   3713   3725   3737     1  0.0000000  0.6508444  3
   3715   3713   3725   3726     1  0.0000000  0.6508444  3
   3715   3713   3725   3727     1  0.0000000  0.6508444  3
   3716   3712   3719   3720     1  0.0000000  1.2552000  3
   3716   3712   3719   3721     1  0.0000000  1.2552000  3
   3716   3728   3734   3735     1  0.0000000  0.6508444  3
   3716   3728   3734   3736     1  0.0000000  0.6508444  3
   3717   3716   3712   3719     1  0.0000000  1.2552000  3
   3717   3716   3728   3734     1  0.0000000  0.6508444  3
   3717   3716   3728   3729     1  0.0000000  0.6508444  3
   3717   3716   3728   3730     1  0.0000000  0.6508444  3
   3718   3716   3712   3719     1  0.0000000  1.2552000  3
   3718   3716   3728   3734     1  0.0000000  0.6508444  3
   3718   3716   3728   3729     1  0.0000000  0.6508444  3
   3718   3716   3728   3730     1  0.0000000  0.6508444  3
   3719   3722   3731   3732     1  0.0000000  0.6508444  3
   3719   3722   3731   3733     1  0.0000000  0.6508444  3
   3720   3719   3722   3731     1  0.0000000  0.6508444  3
   3720   3719   3722   3723     1  0.0000000  0.6508444  3
   3720   3719   3722   3724     1  0.0000000  0.6508444  3
   3721   3719   3722   3731     1  0.0000000  0.6508444  3
   3721   3719   3722   3723     1  0.0000000  0.6508444  3
   3721   3719   3722   3724     1  0.0000000  0.6508444  3
   3723   3722   3731   3740     1  0.0000000  1.0460000  1
   3723   3722   3731   3740     1  0.0000000  0.0000000  3
   3723   3722   3731   3732     1  0.0000000  0.6508444  3
   3723   3722   3731   3733     1  0.0000000  0.6508444  3
   3724   3722   3731   3740     1  0.0000000  1.0460000  1
   3724   3722   3731   3740     1  0.0000000  0.0000000  3
   3724   3722   3731   3732     1  0.0000000  0.6508444  3
   3724   3722   3731   3733     1  0.0000000  0.6508444  3
   3726   3725   3737   7539     1  0.0000000  1.0460000  1
   3726   3725   3737   7539     1  0.0000000  0.0000000  3
   3726   3725   3737   3738     1  0.0000000  0.6508444  3
   3726   3725   3737   3739     1  0.0000000  0.6508444  3
   3727   3725   3737   7539     1  0.0000000  1.0460000  1
   3727   3725   3737   7539     1  0.0000000  0.0000000  3
   3727   3725   3737   3738     1  0.0000000  0.6508444  3
   3727   3725   3737   3739     1  0.0000000  0.6508444  3
   3729   3728   3734   7510     1  0.0000000  1.0460000  1
   3729   3728   3734   7510     1  0.0000000  0.0000000  3
   3729   3728   3734   3735     1  0.0000000  0.6508444  3
   3729   3728   3734   3736     1  0.0000000  0.6508444  3
   3730   3728   3734   7510     1  0.0000000  1.0460000  1
   3730   3728   3734   7510     1  0.0000000  0.0000000  3
   3730   3728   3734   3735     1  0.0000000  0.6508444  3
   3730   3728   3734   3736     1  0.0000000  0.6508444  3
   3734   7510   7482   7483     1  0.0000000  1.6038667  3
   3734   7510   7482   7484     1  0.0000000  1.6038667  3
   3735   3734   7510   7482     1  0.0000000  1.6038667  3
   3736   3734   7510   7482     1  0.0000000  1.6038667  3
   3737   7539   7511   7512     1  0.0000000  1.6038667  3
   3737   7539   7511   7513     1  0.0000000  1.6038667  3
   3738   3737   7539   7511     1  0.0000000  1.6038667  3
   3739   3737   7539   7511     1  0.0000000  1.6038667  3
   3741   3742   3754   3755     1  0.0000000  0.6508444  3
   3741   3742   3754   3756     1  0.0000000  0.6508444  3
   3741   3745   3757   3758     1  0.0000000  0.6508444  3
   3741   3745   3757   3759     1  0.0000000  0.6508444  3
   3741   3748   3751   3752     1  0.0000000  0.6508444  3
   3741   3748   3751   3753     1  0.0000000  0.6508444  3
   3742   3741   3745   3746     1  0.0000000  1.2552000  3
   3742   3741   3745   3747     1  0.0000000  1.2552000  3
   3742   3741   3748   3749     1  0.0000000  1.2552000  3
   3742   3741   3748   3750     1  0.0000000  1.2552000  3
   3742   3754   3766   3767     1  0.0000000  0.6508444  3
   3742   3754   3766   3768     1  0.0000000  0.6508444  3
   3743   3742   3741   3745     1  0.0000000  1.2552000  3
   3743   3742   3741   3748     1  0.0000000  1.2552000  3
   3743   3742   3754   3766     1  0.0000000  0.6508444  3
   3743   3742   3754   3755     1  0.0000000  0.6508444  3
   3743   3742   3754   3756     1  0.0000000  0.6508444  3
   3744   3742   3741   3745     1  0.0000000  1.2552000  3
   3744   3742   3741   3748     1  0.0000000  1.2552000  3
   3744   3742   3754   3766     1  0.0000000  0.6508444  3
   3744   3742   3754   3755     1  0.0000000  0.6508444  3
   3744   3742   3754   3756     1  0.0000000  0.6508444  3
   3745   3741   3748   3749     1  0.0000000  1.2552000  3
   3745   3741   3748   3750     1  0.0000000  1.2552000  3
   3745   3757   3763   3764     1  0.0000000  0.6508444  3
   3745   3757   3763   3765     1  0.0000000  0.6508444  3
   3746   3745   3741   3748     1  0.0000000  1.2552000  3
   3746   3745   3757   3763     1  0.0000000  0.6508444  3
   3746   3745   3757   3758     1  0.0000000  0.6508444  3
   3746   3745   3757   3759     1  0.0000000  0.6508444  3
   3747   3745   3741   3748     1  0.0000000  1.2552000  3
   3747   3745   3757   3763     1  0.0000000  0.6508444  3
   3747   3745   3757   3758     1  0.0000000  0.6508444  3
   3747   3745   3757   3759     1  0.0000000  0.6508444  3
   3748   3751   3760   3761     1  0.0000000  0.6508444  3
   3748   3751   3760   3762     1  0.0000000  0.6508444  3
   3749   3748   3751   3760     1  0.0000000  0.6508444  3
   3749   3748   3751   3752     1  0.0000000  0.6508444  3
   3749   3748   3751   3753     1  0.0000000  0.6508444  3
   3750   3748   3751   3760     1  0.0000000  0.6508444  3
   3750   3748   3751   3752     1  0.0000000  0.6508444  3
   3750   3748   3751   3753     1  0.0000000  0.6508444  3
   3752   3751   3760   3769     1  0.0000000  1.0460000  1
   3752   3751   3760   3769     1  0.0000000  0.0000000  3
   3752   3751   3760   3761     1  0.0000000  0.6508444  3
   3752   3751   3760   3762     1  0.0000000  0.6508444  3
   3753   3751   3760   3769     1  0.0000000  1.0460000  1
   3753   3751   3760   3769     1  0.0000000  0.0000000  3
   3753   3751   3760   3761     1  0.0000000  0.6508444  3
   3753   3751   3760   3762     1  0.0000000  0.6508444  3
   3755   3754   3766   7597     1  0.0000000  1.0460000  1
   3755   3754   3766   7597     1  0.0000000  0.0000000  3
   3755   3754   3766   3767     1  0.0000000  0.6508444  3
   3755   3754   3766   3768     1  0.0000000  0.6508444  3
   3756   3754   3766   7597     1  0.0000000  1.0460000  1
   3756   3754   3766   7597     1  0.0000000  0.0000000  3
   3756   3754   3766   3767     1  0.0000000  0.6508444  3
   3756   3754   3766   3768     1  0.0000000  0.6508444  3
   3758   3757   3763   7568     1  0.0000000  1.0460000  1
   3758   3757   3763   7568     1  0.0000000  0.0000000  3
   3758   3757   3763   3764     1  0.0000000  0.6508444  3
   3758   3757   3763   3765     1  0.0000000  0.6508444  3
   3759   3757   3763   7568     1  0.0000000  1.0460000  1
   3759   3757   3763   7568     1  0.0000000  0.0000000  3
   3759   3757   3763   3764     1  0.0000000  0.6508444  3
   3759   3757   3763   3765     1  0.0000000  0.6508444  3
   3763   7568   7540   7541     1  0.0000000  1.6038667  3
   3763   7568   7540   7542     1  0.0000000  1.6038667  3
   3764   3763   7568   7540     1  0.0000000  1.6038667  3
   3765   3763   7568   7540     1  0.0000000  1.6038667  3
   3766   7597   7569   7570     1  0.0000000  1.6038667  3
   3766   7597   7569   7571     1  0.0000000  1.6038667  3
   3767   3766   7597   7569     1  0.0000000  1.6038667  3
   3768   3766   7597   7569     1  0.0000000  1.6038667  3
   3770   3771   3783   3784     1  0.0000000  0.6508444  3
   3770   3771   3783   3785     1  0.0000000  0.6508444  3
   3770   3774   3786   3787     1  0.0000000  0.6508444  3
   3770   3774   3786   3788     1  0.0000000  0.6508444  3
   3770   3777   3780   3781     1  0.0000000  0.6508444  3
   3770   3777   3780   3782     1  0.0000000  0.6508444  3
   3771   3770   3774   3775     1  0.0000000  1.2552000  3
   3771   3770   3774   3776     1  0.0000000  1.2552000  3
   3771   3770   3777   3778     1  0.0000000  1.2552000  3
   3771   3770   3777   3779     1  0.0000000  1.2552000  3
   3771   3783   3795   3796     1  0.0000000  0.6508444  3
   3771   3783   3795   3797     1  0.0000000  0.6508444  3
   3772   3771   3770   3774     1  0.0000000  1.2552000  3
   3772   3771   3770   3777     1  0.0000000  1.2552000  3
   3772   3771   3783   3795     1  0.0000000  0.6508444  3
   3772   3771   3783   3784     1  0.0000000  0.6508444  3
   3772   3771   3783   3785     1  0.0000000  0.6508444  3
   3773   3771   3770   3774     1  0.0000000  1.2552000  3
   3773   3771   3770   3777     1  0.0000000  1.2552000  3
   3773   3771   3783   3795     1  0.0000000  0.6508444  3
   3773   3771   3783   3784     1  0.0000000  0.6508444  3
   3773   3771   3783   3785     1  0.0000000  0.6508444  3
   3774   3770   3777   3778     1  0.0000000  1.2552000  3
   3774   3770   3777   3779     1  0.0000000  1.2552000  3
   3774   3786   3792   3793     1  0.0000000  0.6508444  3
   3774   3786   3792   3794     1  0.0000000  0.6508444  3
   3775   3774   3770   3777     1  0.0000000  1.2552000  3
   3775   3774   3786   3792     1  0.0000000  0.6508444  3
   3775   3774   3786   3787     1  0.0000000  0.6508444  3
   3775   3774   3786   3788     1  0.0000000  0.6508444  3
   3776   3774   3770   3777     1  0.0000000  1.2552000  3
   3776   3774   3786   3792     1  0.0000000  0.6508444  3
   3776   3774   3786   3787     1  0.0000000  0.6508444  3
   3776   3774   3786   3788     1  0.0000000  0.6508444  3
   3777   3780   3789   3790     1  0.0000000  0.6508444  3
   3777   3780   3789   3791     1  0.0000000  0.6508444  3
   3778   3777   3780   3789     1  0.0000000  0.6508444  3
   3778   3777   3780   3781     1  0.0000000  0.6508444  3
   3778   3777   3780   3782     1  0.0000000  0.6508444  3
   3779   3777   3780   3789     1  0.0000000  0.6508444  3
   3779   3777   3780   3781     1  0.0000000  0.6508444  3
   3779   3777   3780   3782     1  0.0000000  0.6508444  3
   3781   3780   3789   3798     1  0.0000000  1.0460000  1
   3781   3780   3789   3798     1  0.0000000  0.0000000  3
   3781   3780   3789   3790     1  0.0000000  0.6508444  3
   3781   3780   3789   3791     1  0.0000000  0.6508444  3
   3782   3780   3789   3798     1  0.0000000  1.0460000  1
   3782   3780   3789   3798     1  0.0000000  0.0000000  3
   3782   3780   3789   3790     1  0.0000000  0.6508444  3
   3782   3780   3789   3791     1  0.0000000  0.6508444  3
   3784   3783   3795   7655     1  0.0000000  1.0460000  1
   3784   3783   3795   7655     1  0.0000000  0.0000000  3
   3784   3783   3795   3796     1  0.0000000  0.6508444  3
   3784   3783   3795   3797     1  0.0000000  0.6508444  3
   3785   3783   3795   7655     1  0.0000000  1.0460000  1
   3785   3783   3795   7655     1  0.0000000  0.0000000  3
   3785   3783   3795   3796     1  0.0000000  0.6508444  3
   3785   3783   3795   3797     1  0.0000000  0.6508444  3
   3787   3786   3792   7626     1  0.0000000  1.0460000  1
   3787   3786   3792   7626     1  0.0000000  0.0000000  3
   3787   3786   3792   3793     1  0.0000000  0.6508444  3
   3787   3786   3792   3794     1  0.0000000  0.6508444  3
   3788   3786   3792   7626     1  0.0000000  1.0460000  1
   3788   3786   3792   7626     1  0.0000000  0.0000000  3
   3788   3786   3792   3793     1  0.0000000  0.6508444  3
   3788   3786   3792   3794     1  0.0000000  0.6508444  3
   3792   7626   7598   7599     1  0.0000000  1.6038667  3
   3792   7626   7598   7600     1  0.0000000  1.6038667  3
   3793   3792   7626   7598     1  0.0000000  1.6038667  3
   3794   3792   7626   7598     1  0.0000000  1.6038667  3
   3795   7655   7627   7628     1  0.0000000  1.6038667  3
   3795   7655   7627   7629     1  0.0000000  1.6038667  3
   3796   3795   7655   7627     1  0.0000000  1.6038667  3
   3797   3795   7655   7627     1  0.0000000  1.6038667  3
   3799   3800   3812   3813     1  0.0000000  0.6508444  3
   3799   3800   3812   3814     1  0.0000000  0.6508444  3
   3799   3803   3815   3816     1  0.0000000  0.6508444  3
   3799   3803   3815   3817     1  0.0000000  0.6508444  3
   3799   3806   3809   3810     1  0.0000000  0.6508444  3
   3799   3806   3809   3811     1  0.0000000  0.6508444  3
   3800   3799   3803   3804     1  0.0000000  1.2552000  3
   3800   3799   3803   3805     1  0.0000000  1.2552000  3
   3800   3799   3806   3807     1  0.0000000  1.2552000  3
   3800   3799   3806   3808     1  0.0000000  1.2552000  3
   3800   3812   3824   3825     1  0.0000000  0.6508444  3
   3800   3812   3824   3826     1  0.0000000  0.6508444  3
   3801   3800   3799   3803     1  0.0000000  1.2552000  3
   3801   3800   3799   3806     1  0.0000000  1.2552000  3
   3801   3800   3812   3824     1  0.0000000  0.6508444  3
   3801   3800   3812   3813     1  0.0000000  0.6508444  3
   3801   3800   3812   3814     1  0.0000000  0.6508444  3
   3802   3800   3799   3803     1  0.0000000  1.2552000  3
   3802   3800   3799   3806     1  0.0000000  1.2552000  3
   3802   3800   3812   3824     1  0.0000000  0.6508444  3
   3802   3800   3812   3813     1  0.0000000  0.6508444  3
   3802   3800   3812   3814     1  0.0000000  0.6508444  3
   3803   3799   3806   3807     1  0.0000000  1.2552000  3
   3803   3799   3806   3808     1  0.0000000  1.2552000  3
   3803   3815   3821   3822     1  0.0000000  0.6508444  3
   3803   3815   3821   3823     1  0.0000000  0.6508444  3
   3804   3803   3799   3806     1  0.0000000  1.2552000  3
   3804   3803   3815   3821     1  0.0000000  0.6508444  3
   3804   3803   3815   3816     1  0.0000000  0.6508444  3
   3804   3803   3815   3817     1  0.0000000  0.6508444  3
   3805   3803   3799   3806     1  0.0000000  1.2552000  3
   3805   3803   3815   3821     1  0.0000000  0.6508444  3
   3805   3803   3815   3816     1  0.0000000  0.6508444  3
   3805   3803   3815   3817     1  0.0000000  0.6508444  3
   3806   3809   3818   3819     1  0.0000000  0.6508444  3
   3806   3809   3818   3820     1  0.0000000  0.6508444  3
   3807   3806   3809   3818     1  0.0000000  0.6508444  3
   3807   3806   3809   3810     1  0.0000000  0.6508444  3
   3807   3806   3809   3811     1  0.0000000  0.6508444  3
   3808   3806   3809   3818     1  0.0000000  0.6508444  3
   3808   3806   3809   3810     1  0.0000000  0.6508444  3
   3808   3806   3809   3811     1  0.0000000  0.6508444  3
   3810   3809   3818   3827     1  0.0000000  1.0460000  1
   3810   3809   3818   3827     1  0.0000000  0.0000000  3
   3810   3809   3818   3819     1  0.0000000  0.6508444  3
   3810   3809   3818   3820     1  0.0000000  0.6508444  3
   3811   3809   3818   3827     1  0.0000000  1.0460000  1
   3811   3809   3818   3827     1  0.0000000  0.0000000  3
   3811   3809   3818   3819     1  0.0000000  0.6508444  3
   3811   3809   3818   3820     1  0.0000000  0.6508444  3
   3813   3812   3824   7713     1  0.0000000  1.0460000  1
   3813   3812   3824   7713     1  0.0000000  0.0000000  3
   3813   3812   3824   3825     1  0.0000000  0.6508444  3
   3813   3812   3824   3826     1  0.0000000  0.6508444  3
   3814   3812   3824   7713     1  0.0000000  1.0460000  1
   3814   3812   3824   7713     1  0.0000000  0.0000000  3
   3814   3812   3824   3825     1  0.0000000  0.6508444  3
   3814   3812   3824   3826     1  0.0000000  0.6508444  3
   3816   3815   3821   7684     1  0.0000000  1.0460000  1
   3816   3815   3821   7684     1  0.0000000  0.0000000  3
   3816   3815   3821   3822     1  0.0000000  0.6508444  3
   3816   3815   3821   3823     1  0.0000000  0.6508444  3
   3817   3815   3821   7684     1  0.0000000  1.0460000  1
   3817   3815   3821   7684     1  0.0000000  0.0000000  3
   3817   3815   3821   3822     1  0.0000000  0.6508444  3
   3817   3815   3821   3823     1  0.0000000  0.6508444  3
   3821   7684   7656   7657     1  0.0000000  1.6038667  3
   3821   7684   7656   7658     1  0.0000000  1.6038667  3
   3822   3821   7684   7656     1  0.0000000  1.6038667  3
   3823   3821   7684   7656     1  0.0000000  1.6038667  3
   3824   7713   7685   7686     1  0.0000000  1.6038667  3
   3824   7713   7685   7687     1  0.0000000  1.6038667  3
   3825   3824   7713   7685     1  0.0000000  1.6038667  3
   3826   3824   7713   7685     1  0.0000000  1.6038667  3
   3828   3829   3841   3842     1  0.0000000  0.6508444  3
   3828   3829   3841   3843     1  0.0000000  0.6508444  3
   3828   3832   3844   3845     1  0.0000000  0.6508444  3
   3828   3832   3844   3846     1  0.0000000  0.6508444  3
   3828   3835   3838   3839     1  0.0000000  0.6508444  3
   3828   3835   3838   3840     1  0.0000000  0.6508444  3
   3829   3828   3832   3833     1  0.0000000  1.2552000  3
   3829   3828   3832   3834     1  0.0000000  1.2552000  3
   3829   3828   3835   3836     1  0.0000000  1.2552000  3
   3829   3828   3835   3837     1  0.0000000  1.2552000  3
   3829   3841   3853   3854     1  0.0000000  0.6508444  3
   3829   3841   3853   3855     1  0.0000000  0.6508444  3
   3830   3829   3828   3832     1  0.0000000  1.2552000  3
   3830   3829   3828   3835     1  0.0000000  1.2552000  3
   3830   3829   3841   3853     1  0.0000000  0.6508444  3
   3830   3829   3841   3842     1  0.0000000  0.6508444  3
   3830   3829   3841   3843     1  0.0000000  0.6508444  3
   3831   3829   3828   3832     1  0.0000000  1.2552000  3
   3831   3829   3828   3835     1  0.0000000  1.2552000  3
   3831   3829   3841   3853     1  0.0000000  0.6508444  3
   3831   3829   3841   3842     1  0.0000000  0.6508444  3
   3831   3829   3841   3843     1  0.0000000  0.6508444  3
   3832   3828   3835   3836     1  0.0000000  1.2552000  3
   3832   3828   3835   3837     1  0.0000000  1.2552000  3
   3832   3844   3850   3851     1  0.0000000  0.6508444  3
   3832   3844   3850   3852     1  0.0000000  0.6508444  3
   3833   3832   3828   3835     1  0.0000000  1.2552000  3
   3833   3832   3844   3850     1  0.0000000  0.6508444  3
   3833   3832   3844   3845     1  0.0000000  0.6508444  3
   3833   3832   3844   3846     1  0.0000000  0.6508444  3
   3834   3832   3828   3835     1  0.0000000  1.2552000  3
   3834   3832   3844   3850     1  0.0000000  0.6508444  3
   3834   3832   3844   3845     1  0.0000000  0.6508444  3
   3834   3832   3844   3846     1  0.0000000  0.6508444  3
   3835   3838   3847   3848     1  0.0000000  0.6508444  3
   3835   3838   3847   3849     1  0.0000000  0.6508444  3
   3836   3835   3838   3847     1  0.0000000  0.6508444  3
   3836   3835   3838   3839     1  0.0000000  0.6508444  3
   3836   3835   3838   3840     1  0.0000000  0.6508444  3
   3837   3835   3838   3847     1  0.0000000  0.6508444  3
   3837   3835   3838   3839     1  0.0000000  0.6508444  3
   3837   3835   3838   3840     1  0.0000000  0.6508444  3
   3839   3838   3847   3856     1  0.0000000  1.0460000  1
   3839   3838   3847   3856     1  0.0000000  0.0000000  3
   3839   3838   3847   3848     1  0.0000000  0.6508444  3
   3839   3838   3847   3849     1  0.0000000  0.6508444  3
   3840   3838   3847   3856     1  0.0000000  1.0460000  1
   3840   3838   3847   3856     1  0.0000000  0.0000000  3
   3840   3838   3847   3848     1  0.0000000  0.6508444  3
   3840   3838   3847   3849     1  0.0000000  0.6508444  3
   3842   3841   3853   7771     1  0.0000000  1.0460000  1
   3842   3841   3853   7771     1  0.0000000  0.0000000  3
   3842   3841   3853   3854     1  0.0000000  0.6508444  3
   3842   3841   3853   3855     1  0.0000000  0.6508444  3
   3843   3841   3853   7771     1  0.0000000  1.0460000  1
   3843   3841   3853   7771     1  0.0000000  0.0000000  3
   3843   3841   3853   3854     1  0.0000000  0.6508444  3
   3843   3841   3853   3855     1  0.0000000  0.6508444  3
   3845   3844   3850   7742     1  0.0000000  1.0460000  1
   3845   3844   3850   7742     1  0.0000000  0.0000000  3
   3845   3844   3850   3851     1  0.0000000  0.6508444  3
   3845   3844   3850   3852     1  0.0000000  0.6508444  3
   3846   3844   3850   7742     1  0.0000000  1.0460000  1
   3846   3844   3850   7742     1  0.0000000  0.0000000  3
   3846   3844   3850   3851     1  0.0000000  0.6508444  3
   3846   3844   3850   3852     1  0.0000000  0.6508444  3
   3850   7742   7714   7715     1  0.0000000  1.6038667  3
   3850   7742   7714   7716     1  0.0000000  1.6038667  3
   3851   3850   7742   7714     1  0.0000000  1.6038667  3
   3852   3850   7742   7714     1  0.0000000  1.6038667  3
   3853   7771   7743   7744     1  0.0000000  1.6038667  3
   3853   7771   7743   7745     1  0.0000000  1.6038667  3
   3854   3853   7771   7743     1  0.0000000  1.6038667  3
   3855   3853   7771   7743     1  0.0000000  1.6038667  3
   3857   3858   3870   3871     1  0.0000000  0.6508444  3
   3857   3858   3870   3872     1  0.0000000  0.6508444  3
   3857   3861   3873   3874     1  0.0000000  0.6508444  3
   3857   3861   3873   3875     1  0.0000000  0.6508444  3
   3857   3864   3867   3868     1  0.0000000  0.6508444  3
   3857   3864   3867   3869     1  0.0000000  0.6508444  3
   3858   3857   3861   3862     1  0.0000000  1.2552000  3
   3858   3857   3861   3863     1  0.0000000  1.2552000  3
   3858   3857   3864   3865     1  0.0000000  1.2552000  3
   3858   3857   3864   3866     1  0.0000000  1.2552000  3
   3858   3870   3882   3883     1  0.0000000  0.6508444  3
   3858   3870   3882   3884     1  0.0000000  0.6508444  3
   3859   3858   3857   3861     1  0.0000000  1.2552000  3
   3859   3858   3857   3864     1  0.0000000  1.2552000  3
   3859   3858   3870   3882     1  0.0000000  0.6508444  3
   3859   3858   3870   3871     1  0.0000000  0.6508444  3
   3859   3858   3870   3872     1  0.0000000  0.6508444  3
   3860   3858   3857   3861     1  0.0000000  1.2552000  3
   3860   3858   3857   3864     1  0.0000000  1.2552000  3
   3860   3858   3870   3882     1  0.0000000  0.6508444  3
   3860   3858   3870   3871     1  0.0000000  0.6508444  3
   3860   3858   3870   3872     1  0.0000000  0.6508444  3
   3861   3857   3864   3865     1  0.0000000  1.2552000  3
   3861   3857   3864   3866     1  0.0000000  1.2552000  3
   3861   3873   3879   3880     1  0.0000000  0.6508444  3
   3861   3873   3879   3881     1  0.0000000  0.6508444  3
   3862   3861   3857   3864     1  0.0000000  1.2552000  3
   3862   3861   3873   3879     1  0.0000000  0.6508444  3
   3862   3861   3873   3874     1  0.0000000  0.6508444  3
   3862   3861   3873   3875     1  0.0000000  0.6508444  3
   3863   3861   3857   3864     1  0.0000000  1.2552000  3
   3863   3861   3873   3879     1  0.0000000  0.6508444  3
   3863   3861   3873   3874     1  0.0000000  0.6508444  3
   3863   3861   3873   3875     1  0.0000000  0.6508444  3
   3864   3867   3876   3877     1  0.0000000  0.6508444  3
   3864   3867   3876   3878     1  0.0000000  0.6508444  3
   3865   3864   3867   3876     1  0.0000000  0.6508444  3
   3865   3864   3867   3868     1  0.0000000  0.6508444  3
   3865   3864   3867   3869     1  0.0000000  0.6508444  3
   3866   3864   3867   3876     1  0.0000000  0.6508444  3
   3866   3864   3867   3868     1  0.0000000  0.6508444  3
   3866   3864   3867   3869     1  0.0000000  0.6508444  3
   3868   3867   3876   3885     1  0.0000000  1.0460000  1
   3868   3867   3876   3885     1  0.0000000  0.0000000  3
   3868   3867   3876   3877     1  0.0000000  0.6508444  3
   3868   3867   3876   3878     1  0.0000000  0.6508444  3
   3869   3867   3876   3885     1  0.0000000  1.0460000  1
   3869   3867   3876   3885     1  0.0000000  0.0000000  3
   3869   3867   3876   3877     1  0.0000000  0.6508444  3
   3869   3867   3876   3878     1  0.0000000  0.6508444  3
   3871   3870   3882   7829     1  0.0000000  1.0460000  1
   3871   3870   3882   7829     1  0.0000000  0.0000000  3
   3871   3870   3882   3883     1  0.0000000  0.6508444  3
   3871   3870   3882   3884     1  0.0000000  0.6508444  3
   3872   3870   3882   7829     1  0.0000000  1.0460000  1
   3872   3870   3882   7829     1  0.0000000  0.0000000  3
   3872   3870   3882   3883     1  0.0000000  0.6508444  3
   3872   3870   3882   3884     1  0.0000000  0.6508444  3
   3874   3873   3879   7800     1  0.0000000  1.0460000  1
   3874   3873   3879   7800     1  0.0000000  0.0000000  3
   3874   3873   3879   3880     1  0.0000000  0.6508444  3
   3874   3873   3879   3881     1  0.0000000  0.6508444  3
   3875   3873   3879   7800     1  0.0000000  1.0460000  1
   3875   3873   3879   7800     1  0.0000000  0.0000000  3
   3875   3873   3879   3880     1  0.0000000  0.6508444  3
   3875   3873   3879   3881     1  0.0000000  0.6508444  3
   3879   7800   7772   7773     1  0.0000000  1.6038667  3
   3879   7800   7772   7774     1  0.0000000  1.6038667  3
   3880   3879   7800   7772     1  0.0000000  1.6038667  3
   3881   3879   7800   7772     1  0.0000000  1.6038667  3
   3882   7829   7801   7802     1  0.0000000  1.6038667  3
   3882   7829   7801   7803     1  0.0000000  1.6038667  3
   3883   3882   7829   7801     1  0.0000000  1.6038667  3
   3884   3882   7829   7801     1  0.0000000  1.6038667  3
   3886   3887   3899   3900     1  0.0000000  0.6508444  3
   3886   3887   3899   3901     1  0.0000000  0.6508444  3
   3886   3890   3902   3903     1  0.0000000  0.6508444  3
   3886   3890   3902   3904     1  0.0000000  0.6508444  3
   3886   3893   3896   3897     1  0.0000000  0.6508444  3
   3886   3893   3896   3898     1  0.0000000  0.6508444  3
   3887   3886   3890   3891     1  0.0000000  1.2552000  3
   3887   3886   3890   3892     1  0.0000000  1.2552000  3
   3887   3886   3893   3894     1  0.0000000  1.2552000  3
   3887   3886   3893   3895     1  0.0000000  1.2552000  3
   3887   3899   3911   3912     1  0.0000000  0.6508444  3
   3887   3899   3911   3913     1  0.0000000  0.6508444  3
   3888   3887   3886   3890     1  0.0000000  1.2552000  3
   3888   3887   3886   3893     1  0.0000000  1.2552000  3
   3888   3887   3899   3911     1  0.0000000  0.6508444  3
   3888   3887   3899   3900     1  0.0000000  0.6508444  3
   3888   3887   3899   3901     1  0.0000000  0.6508444  3
   3889   3887   3886   3890     1  0.0000000  1.2552000  3
   3889   3887   3886   3893     1  0.0000000  1.2552000  3
   3889   3887   3899   3911     1  0.0000000  0.6508444  3
   3889   3887   3899   3900     1  0.0000000  0.6508444  3
   3889   3887   3899   3901     1  0.0000000  0.6508444  3
   3890   3886   3893   3894     1  0.0000000  1.2552000  3
   3890   3886   3893   3895     1  0.0000000  1.2552000  3
   3890   3902   3908   3909     1  0.0000000  0.6508444  3
   3890   3902   3908   3910     1  0.0000000  0.6508444  3
   3891   3890   3886   3893     1  0.0000000  1.2552000  3
   3891   3890   3902   3908     1  0.0000000  0.6508444  3
   3891   3890   3902   3903     1  0.0000000  0.6508444  3
   3891   3890   3902   3904     1  0.0000000  0.6508444  3
   3892   3890   3886   3893     1  0.0000000  1.2552000  3
   3892   3890   3902   3908     1  0.0000000  0.6508444  3
   3892   3890   3902   3903     1  0.0000000  0.6508444  3
   3892   3890   3902   3904     1  0.0000000  0.6508444  3
   3893   3896   3905   3906     1  0.0000000  0.6508444  3
   3893   3896   3905   3907     1  0.0000000  0.6508444  3
   3894   3893   3896   3905     1  0.0000000  0.6508444  3
   3894   3893   3896   3897     1  0.0000000  0.6508444  3
   3894   3893   3896   3898     1  0.0000000  0.6508444  3
   3895   3893   3896   3905     1  0.0000000  0.6508444  3
   3895   3893   3896   3897     1  0.0000000  0.6508444  3
   3895   3893   3896   3898     1  0.0000000  0.6508444  3
   3897   3896   3905   3914     1  0.0000000  1.0460000  1
   3897   3896   3905   3914     1  0.0000000  0.0000000  3
   3897   3896   3905   3906     1  0.0000000  0.6508444  3
   3897   3896   3905   3907     1  0.0000000  0.6508444  3
   3898   3896   3905   3914     1  0.0000000  1.0460000  1
   3898   3896   3905   3914     1  0.0000000  0.0000000  3
   3898   3896   3905   3906     1  0.0000000  0.6508444  3
   3898   3896   3905   3907     1  0.0000000  0.6508444  3
   3900   3899   3911   7887     1  0.0000000  1.0460000  1
   3900   3899   3911   7887     1  0.0000000  0.0000000  3
   3900   3899   3911   3912     1  0.0000000  0.6508444  3
   3900   3899   3911   3913     1  0.0000000  0.6508444  3
   3901   3899   3911   7887     1  0.0000000  1.0460000  1
   3901   3899   3911   7887     1  0.0000000  0.0000000  3
   3901   3899   3911   3912     1  0.0000000  0.6508444  3
   3901   3899   3911   3913     1  0.0000000  0.6508444  3
   3903   3902   3908   7858     1  0.0000000  1.0460000  1
   3903   3902   3908   7858     1  0.0000000  0.0000000  3
   3903   3902   3908   3909     1  0.0000000  0.6508444  3
   3903   3902   3908   3910     1  0.0000000  0.6508444  3
   3904   3902   3908   7858     1  0.0000000  1.0460000  1
   3904   3902   3908   7858     1  0.0000000  0.0000000  3
   3904   3902   3908   3909     1  0.0000000  0.6508444  3
   3904   3902   3908   3910     1  0.0000000  0.6508444  3
   3908   7858   7830   7831     1  0.0000000  1.6038667  3
   3908   7858   7830   7832     1  0.0000000  1.6038667  3
   3909   3908   7858   7830     1  0.0000000  1.6038667  3
   3910   3908   7858   7830     1  0.0000000  1.6038667  3
   3911   7887   7859   7860     1  0.0000000  1.6038667  3
   3911   7887   7859   7861     1  0.0000000  1.6038667  3
   3912   3911   7887   7859     1  0.0000000  1.6038667  3
   3913   3911   7887   7859     1  0.0000000  1.6038667  3
   3915   3916   3928   3929     1  0.0000000  0.6508444  3
   3915   3916   3928   3930     1  0.0000000  0.6508444  3
   3915   3919   3931   3932     1  0.0000000  0.6508444  3
   3915   3919   3931   3933     1  0.0000000  0.6508444  3
   3915   3922   3925   3926     1  0.0000000  0.6508444  3
   3915   3922   3925   3927     1  0.0000000  0.6508444  3
   3916   3915   3919   3920     1  0.0000000  1.2552000  3
   3916   3915   3919   3921     1  0.0000000  1.2552000  3
   3916   3915   3922   3923     1  0.0000000  1.2552000  3
   3916   3915   3922   3924     1  0.0000000  1.2552000  3
   3916   3928   3940   3941     1  0.0000000  0.6508444  3
   3916   3928   3940   3942     1  0.0000000  0.6508444  3
   3917   3916   3915   3919     1  0.0000000  1.2552000  3
   3917   3916   3915   3922     1  0.0000000  1.2552000  3
   3917   3916   3928   3940     1  0.0000000  0.6508444  3
   3917   3916   3928   3929     1  0.0000000  0.6508444  3
   3917   3916   3928   3930     1  0.0000000  0.6508444  3
   3918   3916   3915   3919     1  0.0000000  1.2552000  3
   3918   3916   3915   3922     1  0.0000000  1.2552000  3
   3918   3916   3928   3940     1  0.0000000  0.6508444  3
   3918   3916   3928   3929     1  0.0000000  0.6508444  3
   3918   3916   3928   3930     1  0.0000000  0.6508444  3
   3919   3915   3922   3923     1  0.0000000  1.2552000  3
   3919   3915   3922   3924     1  0.0000000  1.2552000  3
   3919   3931   3937   3938     1  0.0000000  0.6508444  3
   3919   3931   3937   3939     1  0.0000000  0.6508444  3
   3920   3919   3915   3922     1  0.0000000  1.2552000  3
   3920   3919   3931   3937     1  0.0000000  0.6508444  3
   3920   3919   3931   3932     1  0.0000000  0.6508444  3
   3920   3919   3931   3933     1  0.0000000  0.6508444  3
   3921   3919   3915   3922     1  0.0000000  1.2552000  3
   3921   3919   3931   3937     1  0.0000000  0.6508444  3
   3921   3919   3931   3932     1  0.0000000  0.6508444  3
   3921   3919   3931   3933     1  0.0000000  0.6508444  3
   3922   3925   3934   3935     1  0.0000000  0.6508444  3
   3922   3925   3934   3936     1  0.0000000  0.6508444  3
   3923   3922   3925   3934     1  0.0000000  0.6508444  3
   3923   3922   3925   3926     1  0.0000000  0.6508444  3
   3923   3922   3925   3927     1  0.0000000  0.6508444  3
   3924   3922   3925   3934     1  0.0000000  0.6508444  3
   3924   3922   3925   3926     1  0.0000000  0.6508444  3
   3924   3922   3925   3927     1  0.0000000  0.6508444  3
   3926   3925   3934   3943     1  0.0000000  1.0460000  1
   3926   3925   3934   3943     1  0.0000000  0.0000000  3
   3926   3925   3934   3935     1  0.0000000  0.6508444  3
   3926   3925   3934   3936     1  0.0000000  0.6508444  3
   3927   3925   3934   3943     1  0.0000000  1.0460000  1
   3927   3925   3934   3943     1  0.0000000  0.0000000  3
   3927   3925   3934   3935     1  0.0000000  0.6508444  3
   3927   3925   3934   3936     1  0.0000000  0.6508444  3
   3929   3928   3940   7945     1  0.0000000  1.0460000  1
   3929   3928   3940   7945     1  0.0000000  0.0000000  3
   3929   3928   3940   3941     1  0.0000000  0.6508444  3
   3929   3928   3940   3942     1  0.0000000  0.6508444  3
   3930   3928   3940   7945     1  0.0000000  1.0460000  1
   3930   3928   3940   7945     1  0.0000000  0.0000000  3
   3930   3928   3940   3941     1  0.0000000  0.6508444  3
   3930   3928   3940   3942     1  0.0000000  0.6508444  3
   3932   3931   3937   7916     1  0.0000000  1.0460000  1
   3932   3931   3937   7916     1  0.0000000  0.0000000  3
   3932   3931   3937   3938     1  0.0000000  0.6508444  3
   3932   3931   3937   3939     1  0.0000000  0.6508444  3
   3933   3931   3937   7916     1  0.0000000  1.0460000  1
   3933   3931   3937   7916     1  0.0000000  0.0000000  3
   3933   3931   3937   3938     1  0.0000000  0.6508444  3
   3933   3931   3937   3939     1  0.0000000  0.6508444  3
   3937   7916   7888   7889     1  0.0000000  1.6038667  3
   3937   7916   7888   7890     1  0.0000000  1.6038667  3
   3938   3937   7916   7888     1  0.0000000  1.6038667  3
   3939   3937   7916   7888     1  0.0000000  1.6038667  3
   3940   7945   7917   7918     1  0.0000000  1.6038667  3
   3940   7945   7917   7919     1  0.0000000  1.6038667  3
   3941   3940   7945   7917     1  0.0000000  1.6038667  3
   3942   3940   7945   7917     1  0.0000000  1.6038667  3
   3944   3945   3957   3958     1  0.0000000  0.6508444  3
   3944   3945   3957   3959     1  0.0000000  0.6508444  3
   3944   3948   3960   3961     1  0.0000000  0.6508444  3
   3944   3948   3960   3962     1  0.0000000  0.6508444  3
   3944   3951   3954   3955     1  0.0000000  0.6508444  3
   3944   3951   3954   3956     1  0.0000000  0.6508444  3
   3945   3944   3948   3949     1  0.0000000  1.2552000  3
   3945   3944   3948   3950     1  0.0000000  1.2552000  3
   3945   3944   3951   3952     1  0.0000000  1.2552000  3
   3945   3944   3951   3953     1  0.0000000  1.2552000  3
   3945   3957   3969   3970     1  0.0000000  0.6508444  3
   3945   3957   3969   3971     1  0.0000000  0.6508444  3
   3946   3945   3944   3948     1  0.0000000  1.2552000  3
   3946   3945   3944   3951     1  0.0000000  1.2552000  3
   3946   3945   3957   3969     1  0.0000000  0.6508444  3
   3946   3945   3957   3958     1  0.0000000  0.6508444  3
   3946   3945   3957   3959     1  0.0000000  0.6508444  3
   3947   3945   3944   3948     1  0.0000000  1.2552000  3
   3947   3945   3944   3951     1  0.0000000  1.2552000  3
   3947   3945   3957   3969     1  0.0000000  0.6508444  3
   3947   3945   3957   3958     1  0.0000000  0.6508444  3
   3947   3945   3957   3959     1  0.0000000  0.6508444  3
   3948   3944   3951   3952     1  0.0000000  1.2552000  3
   3948   3944   3951   3953     1  0.0000000  1.2552000  3
   3948   3960   3966   3967     1  0.0000000  0.6508444  3
   3948   3960   3966   3968     1  0.0000000  0.6508444  3
   3949   3948   3944   3951     1  0.0000000  1.2552000  3
   3949   3948   3960   3966     1  0.0000000  0.6508444  3
   3949   3948   3960   3961     1  0.0000000  0.6508444  3
   3949   3948   3960   3962     1  0.0000000  0.6508444  3
   3950   3948   3944   3951     1  0.0000000  1.2552000  3
   3950   3948   3960   3966     1  0.0000000  0.6508444  3
   3950   3948   3960   3961     1  0.0000000  0.6508444  3
   3950   3948   3960   3962     1  0.0000000  0.6508444  3
   3951   3954   3963   3964     1  0.0000000  0.6508444  3
   3951   3954   3963   3965     1  0.0000000  0.6508444  3
   3952   3951   3954   3963     1  0.0000000  0.6508444  3
   3952   3951   3954   3955     1  0.0000000  0.6508444  3
   3952   3951   3954   3956     1  0.0000000  0.6508444  3
   3953   3951   3954   3963     1  0.0000000  0.6508444  3
   3953   3951   3954   3955     1  0.0000000  0.6508444  3
   3953   3951   3954   3956     1  0.0000000  0.6508444  3
   3955   3954   3963   3972     1  0.0000000  1.0460000  1
   3955   3954   3963   3972     1  0.0000000  0.0000000  3
   3955   3954   3963   3964     1  0.0000000  0.6508444  3
   3955   3954   3963   3965     1  0.0000000  0.6508444  3
   3956   3954   3963   3972     1  0.0000000  1.0460000  1
   3956   3954   3963   3972     1  0.0000000  0.0000000  3
   3956   3954   3963   3964     1  0.0000000  0.6508444  3
   3956   3954   3963   3965     1  0.0000000  0.6508444  3
   3958   3957   3969   8003     1  0.0000000  1.0460000  1
   3958   3957   3969   8003     1  0.0000000  0.0000000  3
   3958   3957   3969   3970     1  0.0000000  0.6508444  3
   3958   3957   3969   3971     1  0.0000000  0.6508444  3
   3959   3957   3969   8003     1  0.0000000  1.0460000  1
   3959   3957   3969   8003     1  0.0000000  0.0000000  3
   3959   3957   3969   3970     1  0.0000000  0.6508444  3
   3959   3957   3969   3971     1  0.0000000  0.6508444  3
   3961   3960   3966   7974     1  0.0000000  1.0460000  1
   3961   3960   3966   7974     1  0.0000000  0.0000000  3
   3961   3960   3966   3967     1  0.0000000  0.6508444  3
   3961   3960   3966   3968     1  0.0000000  0.6508444  3
   3962   3960   3966   7974     1  0.0000000  1.0460000  1
   3962   3960   3966   7974     1  0.0000000  0.0000000  3
   3962   3960   3966   3967     1  0.0000000  0.6508444  3
   3962   3960   3966   3968     1  0.0000000  0.6508444  3
   3966   7974   7946   7947     1  0.0000000  1.6038667  3
   3966   7974   7946   7948     1  0.0000000  1.6038667  3
   3967   3966   7974   7946     1  0.0000000  1.6038667  3
   3968   3966   7974   7946     1  0.0000000  1.6038667  3
   3969   8003   7975   7976     1  0.0000000  1.6038667  3
   3969   8003   7975   7977     1  0.0000000  1.6038667  3
   3970   3969   8003   7975     1  0.0000000  1.6038667  3
   3971   3969   8003   7975     1  0.0000000  1.6038667  3
   3973   3974   3986   3987     1  0.0000000  0.6508444  3
   3973   3974   3986   3988     1  0.0000000  0.6508444  3
   3973   3977   3989   3990     1  0.0000000  0.6508444  3
   3973   3977   3989   3991     1  0.0000000  0.6508444  3
   3973   3980   3983   3984     1  0.0000000  0.6508444  3
   3973   3980   3983   3985     1  0.0000000  0.6508444  3
   3974   3973   3977   3978     1  0.0000000  1.2552000  3
   3974   3973   3977   3979     1  0.0000000  1.2552000  3
   3974   3973   3980   3981     1  0.0000000  1.2552000  3
   3974   3973   3980   3982     1  0.0000000  1.2552000  3
   3974   3986   3998   3999     1  0.0000000  0.6508444  3
   3974   3986   3998   4000     1  0.0000000  0.6508444  3
   3975   3974   3973   3977     1  0.0000000  1.2552000  3
   3975   3974   3973   3980     1  0.0000000  1.2552000  3
   3975   3974   3986   3998     1  0.0000000  0.6508444  3
   3975   3974   3986   3987     1  0.0000000  0.6508444  3
   3975   3974   3986   3988     1  0.0000000  0.6508444  3
   3976   3974   3973   3977     1  0.0000000  1.2552000  3
   3976   3974   3973   3980     1  0.0000000  1.2552000  3
   3976   3974   3986   3998     1  0.0000000  0.6508444  3
   3976   3974   3986   3987     1  0.0000000  0.6508444  3
   3976   3974   3986   3988     1  0.0000000  0.6508444  3
   3977   3973   3980   3981     1  0.0000000  1.2552000  3
   3977   3973   3980   3982     1  0.0000000  1.2552000  3
   3977   3989   3995   3996     1  0.0000000  0.6508444  3
   3977   3989   3995   3997     1  0.0000000  0.6508444  3
   3978   3977   3973   3980     1  0.0000000  1.2552000  3
   3978   3977   3989   3995     1  0.0000000  0.6508444  3
   3978   3977   3989   3990     1  0.0000000  0.6508444  3
   3978   3977   3989   3991     1  0.0000000  0.6508444  3
   3979   3977   3973   3980     1  0.0000000  1.2552000  3
   3979   3977   3989   3995     1  0.0000000  0.6508444  3
   3979   3977   3989   3990     1  0.0000000  0.6508444  3
   3979   3977   3989   3991     1  0.0000000  0.6508444  3
   3980   3983   3992   3993     1  0.0000000  0.6508444  3
   3980   3983   3992   3994     1  0.0000000  0.6508444  3
   3981   3980   3983   3992     1  0.0000000  0.6508444  3
   3981   3980   3983   3984     1  0.0000000  0.6508444  3
   3981   3980   3983   3985     1  0.0000000  0.6508444  3
   3982   3980   3983   3992     1  0.0000000  0.6508444  3
   3982   3980   3983   3984     1  0.0000000  0.6508444  3
   3982   3980   3983   3985     1  0.0000000  0.6508444  3
   3984   3983   3992   4001     1  0.0000000  1.0460000  1
   3984   3983   3992   4001     1  0.0000000  0.0000000  3
   3984   3983   3992   3993     1  0.0000000  0.6508444  3
   3984   3983   3992   3994     1  0.0000000  0.6508444  3
   3985   3983   3992   4001     1  0.0000000  1.0460000  1
   3985   3983   3992   4001     1  0.0000000  0.0000000  3
   3985   3983   3992   3993     1  0.0000000  0.6508444  3
   3985   3983   3992   3994     1  0.0000000  0.6508444  3
   3987   3986   3998   8061     1  0.0000000  1.0460000  1
   3987   3986   3998   8061     1  0.0000000  0.0000000  3
   3987   3986   3998   3999     1  0.0000000  0.6508444  3
   3987   3986   3998   4000     1  0.0000000  0.6508444  3
   3988   3986   3998   8061     1  0.0000000  1.0460000  1
   3988   3986   3998   8061     1  0.0000000  0.0000000  3
   3988   3986   3998   3999     1  0.0000000  0.6508444  3
   3988   3986   3998   4000     1  0.0000000  0.6508444  3
   3990   3989   3995   8032     1  0.0000000  1.0460000  1
   3990   3989   3995   8032     1  0.0000000  0.0000000  3
   3990   3989   3995   3996     1  0.0000000  0.6508444  3
   3990   3989   3995   3997     1  0.0000000  0.6508444  3
   3991   3989   3995   8032     1  0.0000000  1.0460000  1
   3991   3989   3995   8032     1  0.0000000  0.0000000  3
   3991   3989   3995   3996     1  0.0000000  0.6508444  3
   3991   3989   3995   3997     1  0.0000000  0.6508444  3
   3995   8032   8004   8005     1  0.0000000  1.6038667  3
   3995   8032   8004   8006     1  0.0000000  1.6038667  3
   3996   3995   8032   8004     1  0.0000000  1.6038667  3
   3997   3995   8032   8004     1  0.0000000  1.6038667  3
   3998   8061   8033   8034     1  0.0000000  1.6038667  3
   3998   8061   8033   8035     1  0.0000000  1.6038667  3
   3999   3998   8061   8033     1  0.0000000  1.6038667  3
   4000   3998   8061   8033     1  0.0000000  1.6038667  3
   4002   4003   4015   4016     1  0.0000000  0.6508444  3
   4002   4003   4015   4017     1  0.0000000  0.6508444  3
   4002   4006   4018   4019     1  0.0000000  0.6508444  3
   4002   4006   4018   4020     1  0.0000000  0.6508444  3
   4002   4009   4012   4013     1  0.0000000  0.6508444  3
   4002   4009   4012   4014     1  0.0000000  0.6508444  3
   4003   4002   4006   4007     1  0.0000000  1.2552000  3
   4003   4002   4006   4008     1  0.0000000  1.2552000  3
   4003   4002   4009   4010     1  0.0000000  1.2552000  3
   4003   4002   4009   4011     1  0.0000000  1.2552000  3
   4003   4015   4027   4028     1  0.0000000  0.6508444  3
   4003   4015   4027   4029     1  0.0000000  0.6508444  3
   4004   4003   4002   4006     1  0.0000000  1.2552000  3
   4004   4003   4002   4009     1  0.0000000  1.2552000  3
   4004   4003   4015   4027     1  0.0000000  0.6508444  3
   4004   4003   4015   4016     1  0.0000000  0.6508444  3
   4004   4003   4015   4017     1  0.0000000  0.6508444  3
   4005   4003   4002   4006     1  0.0000000  1.2552000  3
   4005   4003   4002   4009     1  0.0000000  1.2552000  3
   4005   4003   4015   4027     1  0.0000000  0.6508444  3
   4005   4003   4015   4016     1  0.0000000  0.6508444  3
   4005   4003   4015   4017     1  0.0000000  0.6508444  3
   4006   4002   4009   4010     1  0.0000000  1.2552000  3
   4006   4002   4009   4011     1  0.0000000  1.2552000  3
   4006   4018   4024   4025     1  0.0000000  0.6508444  3
   4006   4018   4024   4026     1  0.0000000  0.6508444  3
   4007   4006   4002   4009     1  0.0000000  1.2552000  3
   4007   4006   4018   4024     1  0.0000000  0.6508444  3
   4007   4006   4018   4019     1  0.0000000  0.6508444  3
   4007   4006   4018   4020     1  0.0000000  0.6508444  3
   4008   4006   4002   4009     1  0.0000000  1.2552000  3
   4008   4006   4018   4024     1  0.0000000  0.6508444  3
   4008   4006   4018   4019     1  0.0000000  0.6508444  3
   4008   4006   4018   4020     1  0.0000000  0.6508444  3
   4009   4012   4021   4022     1  0.0000000  0.6508444  3
   4009   4012   4021   4023     1  0.0000000  0.6508444  3
   4010   4009   4012   4021     1  0.0000000  0.6508444  3
   4010   4009   4012   4013     1  0.0000000  0.6508444  3
   4010   4009   4012   4014     1  0.0000000  0.6508444  3
   4011   4009   4012   4021     1  0.0000000  0.6508444  3
   4011   4009   4012   4013     1  0.0000000  0.6508444  3
   4011   4009   4012   4014     1  0.0000000  0.6508444  3
   4013   4012   4021   4030     1  0.0000000  1.0460000  1
   4013   4012   4021   4030     1  0.0000000  0.0000000  3
   4013   4012   4021   4022     1  0.0000000  0.6508444  3
   4013   4012   4021   4023     1  0.0000000  0.6508444  3
   4014   4012   4021   4030     1  0.0000000  1.0460000  1
   4014   4012   4021   4030     1  0.0000000  0.0000000  3
   4014   4012   4021   4022     1  0.0000000  0.6508444  3
   4014   4012   4021   4023     1  0.0000000  0.6508444  3
   4016   4015   4027   8119     1  0.0000000  1.0460000  1
   4016   4015   4027   8119     1  0.0000000  0.0000000  3
   4016   4015   4027   4028     1  0.0000000  0.6508444  3
   4016   4015   4027   4029     1  0.0000000  0.6508444  3
   4017   4015   4027   8119     1  0.0000000  1.0460000  1
   4017   4015   4027   8119     1  0.0000000  0.0000000  3
   4017   4015   4027   4028     1  0.0000000  0.6508444  3
   4017   4015   4027   4029     1  0.0000000  0.6508444  3
   4019   4018   4024   8090     1  0.0000000  1.0460000  1
   4019   4018   4024   8090     1  0.0000000  0.0000000  3
   4019   4018   4024   4025     1  0.0000000  0.6508444  3
   4019   4018   4024   4026     1  0.0000000  0.6508444  3
   4020   4018   4024   8090     1  0.0000000  1.0460000  1
   4020   4018   4024   8090     1  0.0000000  0.0000000  3
   4020   4018   4024   4025     1  0.0000000  0.6508444  3
   4020   4018   4024   4026     1  0.0000000  0.6508444  3
   4024   8090   8062   8063     1  0.0000000  1.6038667  3
   4024   8090   8062   8064     1  0.0000000  1.6038667  3
   4025   4024   8090   8062     1  0.0000000  1.6038667  3
   4026   4024   8090   8062     1  0.0000000  1.6038667  3
   4027   8119   8091   8092     1  0.0000000  1.6038667  3
   4027   8119   8091   8093     1  0.0000000  1.6038667  3
   4028   4027   8119   8091     1  0.0000000  1.6038667  3
   4029   4027   8119   8091     1  0.0000000  1.6038667  3
   4031   4032   4044   4045     1  0.0000000  0.6508444  3
   4031   4032   4044   4046     1  0.0000000  0.6508444  3
   4031   4035   4047   4048     1  0.0000000  0.6508444  3
   4031   4035   4047   4049     1  0.0000000  0.6508444  3
   4031   4038   4041   4042     1  0.0000000  0.6508444  3
   4031   4038   4041   4043     1  0.0000000  0.6508444  3
   4032   4031   4035   4036     1  0.0000000  1.2552000  3
   4032   4031   4035   4037     1  0.0000000  1.2552000  3
   4032   4031   4038   4039     1  0.0000000  1.2552000  3
   4032   4031   4038   4040     1  0.0000000  1.2552000  3
   4032   4044   4056   4057     1  0.0000000  0.6508444  3
   4032   4044   4056   4058     1  0.0000000  0.6508444  3
   4033   4032   4031   4035     1  0.0000000  1.2552000  3
   4033   4032   4031   4038     1  0.0000000  1.2552000  3
   4033   4032   4044   4056     1  0.0000000  0.6508444  3
   4033   4032   4044   4045     1  0.0000000  0.6508444  3
   4033   4032   4044   4046     1  0.0000000  0.6508444  3
   4034   4032   4031   4035     1  0.0000000  1.2552000  3
   4034   4032   4031   4038     1  0.0000000  1.2552000  3
   4034   4032   4044   4056     1  0.0000000  0.6508444  3
   4034   4032   4044   4045     1  0.0000000  0.6508444  3
   4034   4032   4044   4046     1  0.0000000  0.6508444  3
   4035   4031   4038   4039     1  0.0000000  1.2552000  3
   4035   4031   4038   4040     1  0.0000000  1.2552000  3
   4035   4047   4053   4054     1  0.0000000  0.6508444  3
   4035   4047   4053   4055     1  0.0000000  0.6508444  3
   4036   4035   4031   4038     1  0.0000000  1.2552000  3
   4036   4035   4047   4053     1  0.0000000  0.6508444  3
   4036   4035   4047   4048     1  0.0000000  0.6508444  3
   4036   4035   4047   4049     1  0.0000000  0.6508444  3
   4037   4035   4031   4038     1  0.0000000  1.2552000  3
   4037   4035   4047   4053     1  0.0000000  0.6508444  3
   4037   4035   4047   4048     1  0.0000000  0.6508444  3
   4037   4035   4047   4049     1  0.0000000  0.6508444  3
   4038   4041   4050   4051     1  0.0000000  0.6508444  3
   4038   4041   4050   4052     1  0.0000000  0.6508444  3
   4039   4038   4041   4050     1  0.0000000  0.6508444  3
   4039   4038   4041   4042     1  0.0000000  0.6508444  3
   4039   4038   4041   4043     1  0.0000000  0.6508444  3
   4040   4038   4041   4050     1  0.0000000  0.6508444  3
   4040   4038   4041   4042     1  0.0000000  0.6508444  3
   4040   4038   4041   4043     1  0.0000000  0.6508444  3
   4042   4041   4050   4059     1  0.0000000  1.0460000  1
   4042   4041   4050   4059     1  0.0000000  0.0000000  3
   4042   4041   4050   4051     1  0.0000000  0.6508444  3
   4042   4041   4050   4052     1  0.0000000  0.6508444  3
   4043   4041   4050   4059     1  0.0000000  1.0460000  1
   4043   4041   4050   4059     1  0.0000000  0.0000000  3
   4043   4041   4050   4051     1  0.0000000  0.6508444  3
   4043   4041   4050   4052     1  0.0000000  0.6508444  3
   4045   4044   4056   8177     1  0.0000000  1.0460000  1
   4045   4044   4056   8177     1  0.0000000  0.0000000  3
   4045   4044   4056   4057     1  0.0000000  0.6508444  3
   4045   4044   4056   4058     1  0.0000000  0.6508444  3
   4046   4044   4056   8177     1  0.0000000  1.0460000  1
   4046   4044   4056   8177     1  0.0000000  0.0000000  3
   4046   4044   4056   4057     1  0.0000000  0.6508444  3
   4046   4044   4056   4058     1  0.0000000  0.6508444  3
   4048   4047   4053   8148     1  0.0000000  1.0460000  1
   4048   4047   4053   8148     1  0.0000000  0.0000000  3
   4048   4047   4053   4054     1  0.0000000  0.6508444  3
   4048   4047   4053   4055     1  0.0000000  0.6508444  3
   4049   4047   4053   8148     1  0.0000000  1.0460000  1
   4049   4047   4053   8148     1  0.0000000  0.0000000  3
   4049   4047   4053   4054     1  0.0000000  0.6508444  3
   4049   4047   4053   4055     1  0.0000000  0.6508444  3
   4053   8148   8120   8121     1  0.0000000  1.6038667  3
   4053   8148   8120   8122     1  0.0000000  1.6038667  3
   4054   4053   8148   8120     1  0.0000000  1.6038667  3
   4055   4053   8148   8120     1  0.0000000  1.6038667  3
   4056   8177   8149   8150     1  0.0000000  1.6038667  3
   4056   8177   8149   8151     1  0.0000000  1.6038667  3
   4057   4056   8177   8149     1  0.0000000  1.6038667  3
   4058   4056   8177   8149     1  0.0000000  1.6038667  3
   4060   4061   4073   4074     1  0.0000000  0.6508444  3
   4060   4061   4073   4075     1  0.0000000  0.6508444  3
   4060   4064   4076   4077     1  0.0000000  0.6508444  3
   4060   4064   4076   4078     1  0.0000000  0.6508444  3
   4060   4067   4070   4071     1  0.0000000  0.6508444  3
   4060   4067   4070   4072     1  0.0000000  0.6508444  3
   4061   4060   4064   4065     1  0.0000000  1.2552000  3
   4061   4060   4064   4066     1  0.0000000  1.2552000  3
   4061   4060   4067   4068     1  0.0000000  1.2552000  3
   4061   4060   4067   4069     1  0.0000000  1.2552000  3
   4061   4073   4085   4086     1  0.0000000  0.6508444  3
   4061   4073   4085   4087     1  0.0000000  0.6508444  3
   4062   4061   4060   4064     1  0.0000000  1.2552000  3
   4062   4061   4060   4067     1  0.0000000  1.2552000  3
   4062   4061   4073   4085     1  0.0000000  0.6508444  3
   4062   4061   4073   4074     1  0.0000000  0.6508444  3
   4062   4061   4073   4075     1  0.0000000  0.6508444  3
   4063   4061   4060   4064     1  0.0000000  1.2552000  3
   4063   4061   4060   4067     1  0.0000000  1.2552000  3
   4063   4061   4073   4085     1  0.0000000  0.6508444  3
   4063   4061   4073   4074     1  0.0000000  0.6508444  3
   4063   4061   4073   4075     1  0.0000000  0.6508444  3
   4064   4060   4067   4068     1  0.0000000  1.2552000  3
   4064   4060   4067   4069     1  0.0000000  1.2552000  3
   4064   4076   4082   4083     1  0.0000000  0.6508444  3
   4064   4076   4082   4084     1  0.0000000  0.6508444  3
   4065   4064   4060   4067     1  0.0000000  1.2552000  3
   4065   4064   4076   4082     1  0.0000000  0.6508444  3
   4065   4064   4076   4077     1  0.0000000  0.6508444  3
   4065   4064   4076   4078     1  0.0000000  0.6508444  3
   4066   4064   4060   4067     1  0.0000000  1.2552000  3
   4066   4064   4076   4082     1  0.0000000  0.6508444  3
   4066   4064   4076   4077     1  0.0000000  0.6508444  3
   4066   4064   4076   4078     1  0.0000000  0.6508444  3
   4067   4070   4079   4080     1  0.0000000  0.6508444  3
   4067   4070   4079   4081     1  0.0000000  0.6508444  3
   4068   4067   4070   4079     1  0.0000000  0.6508444  3
   4068   4067   4070   4071     1  0.0000000  0.6508444  3
   4068   4067   4070   4072     1  0.0000000  0.6508444  3
   4069   4067   4070   4079     1  0.0000000  0.6508444  3
   4069   4067   4070   4071     1  0.0000000  0.6508444  3
   4069   4067   4070   4072     1  0.0000000  0.6508444  3
   4071   4070   4079   4088     1  0.0000000  1.0460000  1
   4071   4070   4079   4088     1  0.0000000  0.0000000  3
   4071   4070   4079   4080     1  0.0000000  0.6508444  3
   4071   4070   4079   4081     1  0.0000000  0.6508444  3
   4072   4070   4079   4088     1  0.0000000  1.0460000  1
   4072   4070   4079   4088     1  0.0000000  0.0000000  3
   4072   4070   4079   4080     1  0.0000000  0.6508444  3
   4072   4070   4079   4081     1  0.0000000  0.6508444  3
   4074   4073   4085   8235     1  0.0000000  1.0460000  1
   4074   4073   4085   8235     1  0.0000000  0.0000000  3
   4074   4073   4085   4086     1  0.0000000  0.6508444  3
   4074   4073   4085   4087     1  0.0000000  0.6508444  3
   4075   4073   4085   8235     1  0.0000000  1.0460000  1
   4075   4073   4085   8235     1  0.0000000  0.0000000  3
   4075   4073   4085   4086     1  0.0000000  0.6508444  3
   4075   4073   4085   4087     1  0.0000000  0.6508444  3
   4077   4076   4082   8206     1  0.0000000  1.0460000  1
   4077   4076   4082   8206     1  0.0000000  0.0000000  3
   4077   4076   4082   4083     1  0.0000000  0.6508444  3
   4077   4076   4082   4084     1  0.0000000  0.6508444  3
   4078   4076   4082   8206     1  0.0000000  1.0460000  1
   4078   4076   4082   8206     1  0.0000000  0.0000000  3
   4078   4076   4082   4083     1  0.0000000  0.6508444  3
   4078   4076   4082   4084     1  0.0000000  0.6508444  3
   4082   8206   8178   8179     1  0.0000000  1.6038667  3
   4082   8206   8178   8180     1  0.0000000  1.6038667  3
   4083   4082   8206   8178     1  0.0000000  1.6038667  3
   4084   4082   8206   8178     1  0.0000000  1.6038667  3
   4085   8235   8207   8208     1  0.0000000  1.6038667  3
   4085   8235   8207   8209     1  0.0000000  1.6038667  3
   4086   4085   8235   8207     1  0.0000000  1.6038667  3
   4087   4085   8235   8207     1  0.0000000  1.6038667  3
   4089   4090   4102   4103     1  0.0000000  0.6508444  3
   4089   4090   4102   4104     1  0.0000000  0.6508444  3
   4089   4093   4105   4106     1  0.0000000  0.6508444  3
   4089   4093   4105   4107     1  0.0000000  0.6508444  3
   4089   4096   4099   4100     1  0.0000000  0.6508444  3
   4089   4096   4099   4101     1  0.0000000  0.6508444  3
   4090   4089   4093   4094     1  0.0000000  1.2552000  3
   4090   4089   4093   4095     1  0.0000000  1.2552000  3
   4090   4089   4096   4097     1  0.0000000  1.2552000  3
   4090   4089   4096   4098     1  0.0000000  1.2552000  3
   4090   4102   4114   4115     1  0.0000000  0.6508444  3
   4090   4102   4114   4116     1  0.0000000  0.6508444  3
   4091   4090   4089   4093     1  0.0000000  1.2552000  3
   4091   4090   4089   4096     1  0.0000000  1.2552000  3
   4091   4090   4102   4114     1  0.0000000  0.6508444  3
   4091   4090   4102   4103     1  0.0000000  0.6508444  3
   4091   4090   4102   4104     1  0.0000000  0.6508444  3
   4092   4090   4089   4093     1  0.0000000  1.2552000  3
   4092   4090   4089   4096     1  0.0000000  1.2552000  3
   4092   4090   4102   4114     1  0.0000000  0.6508444  3
   4092   4090   4102   4103     1  0.0000000  0.6508444  3
   4092   4090   4102   4104     1  0.0000000  0.6508444  3
   4093   4089   4096   4097     1  0.0000000  1.2552000  3
   4093   4089   4096   4098     1  0.0000000  1.2552000  3
   4093   4105   4111   4112     1  0.0000000  0.6508444  3
   4093   4105   4111   4113     1  0.0000000  0.6508444  3
   4094   4093   4089   4096     1  0.0000000  1.2552000  3
   4094   4093   4105   4111     1  0.0000000  0.6508444  3
   4094   4093   4105   4106     1  0.0000000  0.6508444  3
   4094   4093   4105   4107     1  0.0000000  0.6508444  3
   4095   4093   4089   4096     1  0.0000000  1.2552000  3
   4095   4093   4105   4111     1  0.0000000  0.6508444  3
   4095   4093   4105   4106     1  0.0000000  0.6508444  3
   4095   4093   4105   4107     1  0.0000000  0.6508444  3
   4096   4099   4108   4109     1  0.0000000  0.6508444  3
   4096   4099   4108   4110     1  0.0000000  0.6508444  3
   4097   4096   4099   4108     1  0.0000000  0.6508444  3
   4097   4096   4099   4100     1  0.0000000  0.6508444  3
   4097   4096   4099   4101     1  0.0000000  0.6508444  3
   4098   4096   4099   4108     1  0.0000000  0.6508444  3
   4098   4096   4099   4100     1  0.0000000  0.6508444  3
   4098   4096   4099   4101     1  0.0000000  0.6508444  3
   4100   4099   4108   4117     1  0.0000000  1.0460000  1
   4100   4099   4108   4117     1  0.0000000  0.0000000  3
   4100   4099   4108   4109     1  0.0000000  0.6508444  3
   4100   4099   4108   4110     1  0.0000000  0.6508444  3
   4101   4099   4108   4117     1  0.0000000  1.0460000  1
   4101   4099   4108   4117     1  0.0000000  0.0000000  3
   4101   4099   4108   4109     1  0.0000000  0.6508444  3
   4101   4099   4108   4110     1  0.0000000  0.6508444  3
   4103   4102   4114   8293     1  0.0000000  1.0460000  1
   4103   4102   4114   8293     1  0.0000000  0.0000000  3
   4103   4102   4114   4115     1  0.0000000  0.6508444  3
   4103   4102   4114   4116     1  0.0000000  0.6508444  3
   4104   4102   4114   8293     1  0.0000000  1.0460000  1
   4104   4102   4114   8293     1  0.0000000  0.0000000  3
   4104   4102   4114   4115     1  0.0000000  0.6508444  3
   4104   4102   4114   4116     1  0.0000000  0.6508444  3
   4106   4105   4111   8264     1  0.0000000  1.0460000  1
   4106   4105   4111   8264     1  0.0000000  0.0000000  3
   4106   4105   4111   4112     1  0.0000000  0.6508444  3
   4106   4105   4111   4113     1  0.0000000  0.6508444  3
   4107   4105   4111   8264     1  0.0000000  1.0460000  1
   4107   4105   4111   8264     1  0.0000000  0.0000000  3
   4107   4105   4111   4112     1  0.0000000  0.6508444  3
   4107   4105   4111   4113     1  0.0000000  0.6508444  3
   4111   8264   8236   8237     1  0.0000000  1.6038667  3
   4111   8264   8236   8238     1  0.0000000  1.6038667  3
   4112   4111   8264   8236     1  0.0000000  1.6038667  3
   4113   4111   8264   8236     1  0.0000000  1.6038667  3
   4114   8293   8265   8266     1  0.0000000  1.6038667  3
   4114   8293   8265   8267     1  0.0000000  1.6038667  3
   4115   4114   8293   8265     1  0.0000000  1.6038667  3
   4116   4114   8293   8265     1  0.0000000  1.6038667  3
   4118   4119   4131   4132     1  0.0000000  0.6508444  3
   4118   4119   4131   4133     1  0.0000000  0.6508444  3
   4118   4122   4134   4135     1  0.0000000  0.6508444  3
   4118   4122   4134   4136     1  0.0000000  0.6508444  3
   4118   4125   4128   4129     1  0.0000000  0.6508444  3
   4118   4125   4128   4130     1  0.0000000  0.6508444  3
   4119   4118   4122   4123     1  0.0000000  1.2552000  3
   4119   4118   4122   4124     1  0.0000000  1.2552000  3
   4119   4118   4125   4126     1  0.0000000  1.2552000  3
   4119   4118   4125   4127     1  0.0000000  1.2552000  3
   4119   4131   4143   4144     1  0.0000000  0.6508444  3
   4119   4131   4143   4145     1  0.0000000  0.6508444  3
   4120   4119   4118   4122     1  0.0000000  1.2552000  3
   4120   4119   4118   4125     1  0.0000000  1.2552000  3
   4120   4119   4131   4143     1  0.0000000  0.6508444  3
   4120   4119   4131   4132     1  0.0000000  0.6508444  3
   4120   4119   4131   4133     1  0.0000000  0.6508444  3
   4121   4119   4118   4122     1  0.0000000  1.2552000  3
   4121   4119   4118   4125     1  0.0000000  1.2552000  3
   4121   4119   4131   4143     1  0.0000000  0.6508444  3
   4121   4119   4131   4132     1  0.0000000  0.6508444  3
   4121   4119   4131   4133     1  0.0000000  0.6508444  3
   4122   4118   4125   4126     1  0.0000000  1.2552000  3
   4122   4118   4125   4127     1  0.0000000  1.2552000  3
   4122   4134   4140   4141     1  0.0000000  0.6508444  3
   4122   4134   4140   4142     1  0.0000000  0.6508444  3
   4123   4122   4118   4125     1  0.0000000  1.2552000  3
   4123   4122   4134   4140     1  0.0000000  0.6508444  3
   4123   4122   4134   4135     1  0.0000000  0.6508444  3
   4123   4122   4134   4136     1  0.0000000  0.6508444  3
   4124   4122   4118   4125     1  0.0000000  1.2552000  3
   4124   4122   4134   4140     1  0.0000000  0.6508444  3
   4124   4122   4134   4135     1  0.0000000  0.6508444  3
   4124   4122   4134   4136     1  0.0000000  0.6508444  3
   4125   4128   4137   4138     1  0.0000000  0.6508444  3
   4125   4128   4137   4139     1  0.0000000  0.6508444  3
   4126   4125   4128   4137     1  0.0000000  0.6508444  3
   4126   4125   4128   4129     1  0.0000000  0.6508444  3
   4126   4125   4128   4130     1  0.0000000  0.6508444  3
   4127   4125   4128   4137     1  0.0000000  0.6508444  3
   4127   4125   4128   4129     1  0.0000000  0.6508444  3
   4127   4125   4128   4130     1  0.0000000  0.6508444  3
   4129   4128   4137   4146     1  0.0000000  1.0460000  1
   4129   4128   4137   4146     1  0.0000000  0.0000000  3
   4129   4128   4137   4138     1  0.0000000  0.6508444  3
   4129   4128   4137   4139     1  0.0000000  0.6508444  3
   4130   4128   4137   4146     1  0.0000000  1.0460000  1
   4130   4128   4137   4146     1  0.0000000  0.0000000  3
   4130   4128   4137   4138     1  0.0000000  0.6508444  3
   4130   4128   4137   4139     1  0.0000000  0.6508444  3
   4132   4131   4143   8351     1  0.0000000  1.0460000  1
   4132   4131   4143   8351     1  0.0000000  0.0000000  3
   4132   4131   4143   4144     1  0.0000000  0.6508444  3
   4132   4131   4143   4145     1  0.0000000  0.6508444  3
   4133   4131   4143   8351     1  0.0000000  1.0460000  1
   4133   4131   4143   8351     1  0.0000000  0.0000000  3
   4133   4131   4143   4144     1  0.0000000  0.6508444  3
   4133   4131   4143   4145     1  0.0000000  0.6508444  3
   4135   4134   4140   8322     1  0.0000000  1.0460000  1
   4135   4134   4140   8322     1  0.0000000  0.0000000  3
   4135   4134   4140   4141     1  0.0000000  0.6508444  3
   4135   4134   4140   4142     1  0.0000000  0.6508444  3
   4136   4134   4140   8322     1  0.0000000  1.0460000  1
   4136   4134   4140   8322     1  0.0000000  0.0000000  3
   4136   4134   4140   4141     1  0.0000000  0.6508444  3
   4136   4134   4140   4142     1  0.0000000  0.6508444  3
   4140   8322   8294   8295     1  0.0000000  1.6038667  3
   4140   8322   8294   8296     1  0.0000000  1.6038667  3
   4141   4140   8322   8294     1  0.0000000  1.6038667  3
   4142   4140   8322   8294     1  0.0000000  1.6038667  3
   4143   8351   8323   8324     1  0.0000000  1.6038667  3
   4143   8351   8323   8325     1  0.0000000  1.6038667  3
   4144   4143   8351   8323     1  0.0000000  1.6038667  3
   4145   4143   8351   8323     1  0.0000000  1.6038667  3
   4147   4148   4160   4161     1  0.0000000  0.6508444  3
   4147   4148   4160   4162     1  0.0000000  0.6508444  3
   4147   4151   4163   4164     1  0.0000000  0.6508444  3
   4147   4151   4163   4165     1  0.0000000  0.6508444  3
   4147   4154   4157   4158     1  0.0000000  0.6508444  3
   4147   4154   4157   4159     1  0.0000000  0.6508444  3
   4148   4147   4151   4152     1  0.0000000  1.2552000  3
   4148   4147   4151   4153     1  0.0000000  1.2552000  3
   4148   4147   4154   4155     1  0.0000000  1.2552000  3
   4148   4147   4154   4156     1  0.0000000  1.2552000  3
   4148   4160   4172   4173     1  0.0000000  0.6508444  3
   4148   4160   4172   4174     1  0.0000000  0.6508444  3
   4149   4148   4147   4151     1  0.0000000  1.2552000  3
   4149   4148   4147   4154     1  0.0000000  1.2552000  3
   4149   4148   4160   4172     1  0.0000000  0.6508444  3
   4149   4148   4160   4161     1  0.0000000  0.6508444  3
   4149   4148   4160   4162     1  0.0000000  0.6508444  3
   4150   4148   4147   4151     1  0.0000000  1.2552000  3
   4150   4148   4147   4154     1  0.0000000  1.2552000  3
   4150   4148   4160   4172     1  0.0000000  0.6508444  3
   4150   4148   4160   4161     1  0.0000000  0.6508444  3
   4150   4148   4160   4162     1  0.0000000  0.6508444  3
   4151   4147   4154   4155     1  0.0000000  1.2552000  3
   4151   4147   4154   4156     1  0.0000000  1.2552000  3
   4151   4163   4169   4170     1  0.0000000  0.6508444  3
   4151   4163   4169   4171     1  0.0000000  0.6508444  3
   4152   4151   4147   4154     1  0.0000000  1.2552000  3
   4152   4151   4163   4169     1  0.0000000  0.6508444  3
   4152   4151   4163   4164     1  0.0000000  0.6508444  3
   4152   4151   4163   4165     1  0.0000000  0.6508444  3
   4153   4151   4147   4154     1  0.0000000  1.2552000  3
   4153   4151   4163   4169     1  0.0000000  0.6508444  3
   4153   4151   4163   4164     1  0.0000000  0.6508444  3
   4153   4151   4163   4165     1  0.0000000  0.6508444  3
   4154   4157   4166   4167     1  0.0000000  0.6508444  3
   4154   4157   4166   4168     1  0.0000000  0.6508444  3
   4155   4154   4157   4166     1  0.0000000  0.6508444  3
   4155   4154   4157   4158     1  0.0000000  0.6508444  3
   4155   4154   4157   4159     1  0.0000000  0.6508444  3
   4156   4154   4157   4166     1  0.0000000  0.6508444  3
   4156   4154   4157   4158     1  0.0000000  0.6508444  3
   4156   4154   4157   4159     1  0.0000000  0.6508444  3
   4158   4157   4166   4175     1  0.0000000  1.0460000  1
   4158   4157   4166   4175     1  0.0000000  0.0000000  3
   4158   4157   4166   4167     1  0.0000000  0.6508444  3
   4158   4157   4166   4168     1  0.0000000  0.6508444  3
   4159   4157   4166   4175     1  0.0000000  1.0460000  1
   4159   4157   4166   4175     1  0.0000000  0.0000000  3
   4159   4157   4166   4167     1  0.0000000  0.6508444  3
   4159   4157   4166   4168     1  0.0000000  0.6508444  3
   4161   4160   4172   8409     1  0.0000000  1.0460000  1
   4161   4160   4172   8409     1  0.0000000  0.0000000  3
   4161   4160   4172   4173     1  0.0000000  0.6508444  3
   4161   4160   4172   4174     1  0.0000000  0.6508444  3
   4162   4160   4172   8409     1  0.0000000  1.0460000  1
   4162   4160   4172   8409     1  0.0000000  0.0000000  3
   4162   4160   4172   4173     1  0.0000000  0.6508444  3
   4162   4160   4172   4174     1  0.0000000  0.6508444  3
   4164   4163   4169   8380     1  0.0000000  1.0460000  1
   4164   4163   4169   8380     1  0.0000000  0.0000000  3
   4164   4163   4169   4170     1  0.0000000  0.6508444  3
   4164   4163   4169   4171     1  0.0000000  0.6508444  3
   4165   4163   4169   8380     1  0.0000000  1.0460000  1
   4165   4163   4169   8380     1  0.0000000  0.0000000  3
   4165   4163   4169   4170     1  0.0000000  0.6508444  3
   4165   4163   4169   4171     1  0.0000000  0.6508444  3
   4169   8380   8352   8353     1  0.0000000  1.6038667  3
   4169   8380   8352   8354     1  0.0000000  1.6038667  3
   4170   4169   8380   8352     1  0.0000000  1.6038667  3
   4171   4169   8380   8352     1  0.0000000  1.6038667  3
   4172   8409   8381   8382     1  0.0000000  1.6038667  3
   4172   8409   8381   8383     1  0.0000000  1.6038667  3
   4173   4172   8409   8381     1  0.0000000  1.6038667  3
   4174   4172   8409   8381     1  0.0000000  1.6038667  3
   4176   4177   4189   4190     1  0.0000000  0.6508444  3
   4176   4177   4189   4191     1  0.0000000  0.6508444  3
   4176   4180   4192   4193     1  0.0000000  0.6508444  3
   4176   4180   4192   4194     1  0.0000000  0.6508444  3
   4176   4183   4186   4187     1  0.0000000  0.6508444  3
   4176   4183   4186   4188     1  0.0000000  0.6508444  3
   4177   4176   4180   4181     1  0.0000000  1.2552000  3
   4177   4176   4180   4182     1  0.0000000  1.2552000  3
   4177   4176   4183   4184     1  0.0000000  1.2552000  3
   4177   4176   4183   4185     1  0.0000000  1.2552000  3
   4177   4189   4201   4202     1  0.0000000  0.6508444  3
   4177   4189   4201   4203     1  0.0000000  0.6508444  3
   4178   4177   4176   4180     1  0.0000000  1.2552000  3
   4178   4177   4176   4183     1  0.0000000  1.2552000  3
   4178   4177   4189   4201     1  0.0000000  0.6508444  3
   4178   4177   4189   4190     1  0.0000000  0.6508444  3
   4178   4177   4189   4191     1  0.0000000  0.6508444  3
   4179   4177   4176   4180     1  0.0000000  1.2552000  3
   4179   4177   4176   4183     1  0.0000000  1.2552000  3
   4179   4177   4189   4201     1  0.0000000  0.6508444  3
   4179   4177   4189   4190     1  0.0000000  0.6508444  3
   4179   4177   4189   4191     1  0.0000000  0.6508444  3
   4180   4176   4183   4184     1  0.0000000  1.2552000  3
   4180   4176   4183   4185     1  0.0000000  1.2552000  3
   4180   4192   4198   4199     1  0.0000000  0.6508444  3
   4180   4192   4198   4200     1  0.0000000  0.6508444  3
   4181   4180   4176   4183     1  0.0000000  1.2552000  3
   4181   4180   4192   4198     1  0.0000000  0.6508444  3
   4181   4180   4192   4193     1  0.0000000  0.6508444  3
   4181   4180   4192   4194     1  0.0000000  0.6508444  3
   4182   4180   4176   4183     1  0.0000000  1.2552000  3
   4182   4180   4192   4198     1  0.0000000  0.6508444  3
   4182   4180   4192   4193     1  0.0000000  0.6508444  3
   4182   4180   4192   4194     1  0.0000000  0.6508444  3
   4183   4186   4195   4196     1  0.0000000  0.6508444  3
   4183   4186   4195   4197     1  0.0000000  0.6508444  3
   4184   4183   4186   4195     1  0.0000000  0.6508444  3
   4184   4183   4186   4187     1  0.0000000  0.6508444  3
   4184   4183   4186   4188     1  0.0000000  0.6508444  3
   4185   4183   4186   4195     1  0.0000000  0.6508444  3
   4185   4183   4186   4187     1  0.0000000  0.6508444  3
   4185   4183   4186   4188     1  0.0000000  0.6508444  3
   4187   4186   4195   4204     1  0.0000000  1.0460000  1
   4187   4186   4195   4204     1  0.0000000  0.0000000  3
   4187   4186   4195   4196     1  0.0000000  0.6508444  3
   4187   4186   4195   4197     1  0.0000000  0.6508444  3
   4188   4186   4195   4204     1  0.0000000  1.0460000  1
   4188   4186   4195   4204     1  0.0000000  0.0000000  3
   4188   4186   4195   4196     1  0.0000000  0.6508444  3
   4188   4186   4195   4197     1  0.0000000  0.6508444  3
   4190   4189   4201   8467     1  0.0000000  1.0460000  1
   4190   4189   4201   8467     1  0.0000000  0.0000000  3
   4190   4189   4201   4202     1  0.0000000  0.6508444  3
   4190   4189   4201   4203     1  0.0000000  0.6508444  3
   4191   4189   4201   8467     1  0.0000000  1.0460000  1
   4191   4189   4201   8467     1  0.0000000  0.0000000  3
   4191   4189   4201   4202     1  0.0000000  0.6508444  3
   4191   4189   4201   4203     1  0.0000000  0.6508444  3
   4193   4192   4198   8438     1  0.0000000  1.0460000  1
   4193   4192   4198   8438     1  0.0000000  0.0000000  3
   4193   4192   4198   4199     1  0.0000000  0.6508444  3
   4193   4192   4198   4200     1  0.0000000  0.6508444  3
   4194   4192   4198   8438     1  0.0000000  1.0460000  1
   4194   4192   4198   8438     1  0.0000000  0.0000000  3
   4194   4192   4198   4199     1  0.0000000  0.6508444  3
   4194   4192   4198   4200     1  0.0000000  0.6508444  3
   4198   8438   8410   8411     1  0.0000000  1.6038667  3
   4198   8438   8410   8412     1  0.0000000  1.6038667  3
   4199   4198   8438   8410     1  0.0000000  1.6038667  3
   4200   4198   8438   8410     1  0.0000000  1.6038667  3
   4201   8467   8439   8440     1  0.0000000  1.6038667  3
   4201   8467   8439   8441     1  0.0000000  1.6038667  3
   4202   4201   8467   8439     1  0.0000000  1.6038667  3
   4203   4201   8467   8439     1  0.0000000  1.6038667  3
   4205   4206   4218   4219     1  0.0000000  0.6508444  3
   4205   4206   4218   4220     1  0.0000000  0.6508444  3
   4205   4209   4221   4222     1  0.0000000  0.6508444  3
   4205   4209   4221   4223     1  0.0000000  0.6508444  3
   4205   4212   4215   4216     1  0.0000000  0.6508444  3
   4205   4212   4215   4217     1  0.0000000  0.6508444  3
   4206   4205   4209   4210     1  0.0000000  1.2552000  3
   4206   4205   4209   4211     1  0.0000000  1.2552000  3
   4206   4205   4212   4213     1  0.0000000  1.2552000  3
   4206   4205   4212   4214     1  0.0000000  1.2552000  3
   4206   4218   4230   4231     1  0.0000000  0.6508444  3
   4206   4218   4230   4232     1  0.0000000  0.6508444  3
   4207   4206   4205   4209     1  0.0000000  1.2552000  3
   4207   4206   4205   4212     1  0.0000000  1.2552000  3
   4207   4206   4218   4230     1  0.0000000  0.6508444  3
   4207   4206   4218   4219     1  0.0000000  0.6508444  3
   4207   4206   4218   4220     1  0.0000000  0.6508444  3
   4208   4206   4205   4209     1  0.0000000  1.2552000  3
   4208   4206   4205   4212     1  0.0000000  1.2552000  3
   4208   4206   4218   4230     1  0.0000000  0.6508444  3
   4208   4206   4218   4219     1  0.0000000  0.6508444  3
   4208   4206   4218   4220     1  0.0000000  0.6508444  3
   4209   4205   4212   4213     1  0.0000000  1.2552000  3
   4209   4205   4212   4214     1  0.0000000  1.2552000  3
   4209   4221   4227   4228     1  0.0000000  0.6508444  3
   4209   4221   4227   4229     1  0.0000000  0.6508444  3
   4210   4209   4205   4212     1  0.0000000  1.2552000  3
   4210   4209   4221   4227     1  0.0000000  0.6508444  3
   4210   4209   4221   4222     1  0.0000000  0.6508444  3
   4210   4209   4221   4223     1  0.0000000  0.6508444  3
   4211   4209   4205   4212     1  0.0000000  1.2552000  3
   4211   4209   4221   4227     1  0.0000000  0.6508444  3
   4211   4209   4221   4222     1  0.0000000  0.6508444  3
   4211   4209   4221   4223     1  0.0000000  0.6508444  3
   4212   4215   4224   4225     1  0.0000000  0.6508444  3
   4212   4215   4224   4226     1  0.0000000  0.6508444  3
   4213   4212   4215   4224     1  0.0000000  0.6508444  3
   4213   4212   4215   4216     1  0.0000000  0.6508444  3
   4213   4212   4215   4217     1  0.0000000  0.6508444  3
   4214   4212   4215   4224     1  0.0000000  0.6508444  3
   4214   4212   4215   4216     1  0.0000000  0.6508444  3
   4214   4212   4215   4217     1  0.0000000  0.6508444  3
   4216   4215   4224   4233     1  0.0000000  1.0460000  1
   4216   4215   4224   4233     1  0.0000000  0.0000000  3
   4216   4215   4224   4225     1  0.0000000  0.6508444  3
   4216   4215   4224   4226     1  0.0000000  0.6508444  3
   4217   4215   4224   4233     1  0.0000000  1.0460000  1
   4217   4215   4224   4233     1  0.0000000  0.0000000  3
   4217   4215   4224   4225     1  0.0000000  0.6508444  3
   4217   4215   4224   4226     1  0.0000000  0.6508444  3
   4219   4218   4230   8525     1  0.0000000  1.0460000  1
   4219   4218   4230   8525     1  0.0000000  0.0000000  3
   4219   4218   4230   4231     1  0.0000000  0.6508444  3
   4219   4218   4230   4232     1  0.0000000  0.6508444  3
   4220   4218   4230   8525     1  0.0000000  1.0460000  1
   4220   4218   4230   8525     1  0.0000000  0.0000000  3
   4220   4218   4230   4231     1  0.0000000  0.6508444  3
   4220   4218   4230   4232     1  0.0000000  0.6508444  3
   4222   4221   4227   8496     1  0.0000000  1.0460000  1
   4222   4221   4227   8496     1  0.0000000  0.0000000  3
   4222   4221   4227   4228     1  0.0000000  0.6508444  3
   4222   4221   4227   4229     1  0.0000000  0.6508444  3
   4223   4221   4227   8496     1  0.0000000  1.0460000  1
   4223   4221   4227   8496     1  0.0000000  0.0000000  3
   4223   4221   4227   4228     1  0.0000000  0.6508444  3
   4223   4221   4227   4229     1  0.0000000  0.6508444  3
   4227   8496   8468   8469     1  0.0000000  1.6038667  3
   4227   8496   8468   8470     1  0.0000000  1.6038667  3
   4228   4227   8496   8468     1  0.0000000  1.6038667  3
   4229   4227   8496   8468     1  0.0000000  1.6038667  3
   4230   8525   8497   8498     1  0.0000000  1.6038667  3
   4230   8525   8497   8499     1  0.0000000  1.6038667  3
   4231   4230   8525   8497     1  0.0000000  1.6038667  3
   4232   4230   8525   8497     1  0.0000000  1.6038667  3
   4234   4235   4247   4248     1  0.0000000  0.6508444  3
   4234   4235   4247   4249     1  0.0000000  0.6508444  3
   4234   4238   4250   4251     1  0.0000000  0.6508444  3
   4234   4238   4250   4252     1  0.0000000  0.6508444  3
   4234   4241   4244   4245     1  0.0000000  0.6508444  3
   4234   4241   4244   4246     1  0.0000000  0.6508444  3
   4235   4234   4238   4239     1  0.0000000  1.2552000  3
   4235   4234   4238   4240     1  0.0000000  1.2552000  3
   4235   4234   4241   4242     1  0.0000000  1.2552000  3
   4235   4234   4241   4243     1  0.0000000  1.2552000  3
   4235   4247   4259   4260     1  0.0000000  0.6508444  3
   4235   4247   4259   4261     1  0.0000000  0.6508444  3
   4236   4235   4234   4238     1  0.0000000  1.2552000  3
   4236   4235   4234   4241     1  0.0000000  1.2552000  3
   4236   4235   4247   4259     1  0.0000000  0.6508444  3
   4236   4235   4247   4248     1  0.0000000  0.6508444  3
   4236   4235   4247   4249     1  0.0000000  0.6508444  3
   4237   4235   4234   4238     1  0.0000000  1.2552000  3
   4237   4235   4234   4241     1  0.0000000  1.2552000  3
   4237   4235   4247   4259     1  0.0000000  0.6508444  3
   4237   4235   4247   4248     1  0.0000000  0.6508444  3
   4237   4235   4247   4249     1  0.0000000  0.6508444  3
   4238   4234   4241   4242     1  0.0000000  1.2552000  3
   4238   4234   4241   4243     1  0.0000000  1.2552000  3
   4238   4250   4256   4257     1  0.0000000  0.6508444  3
   4238   4250   4256   4258     1  0.0000000  0.6508444  3
   4239   4238   4234   4241     1  0.0000000  1.2552000  3
   4239   4238   4250   4256     1  0.0000000  0.6508444  3
   4239   4238   4250   4251     1  0.0000000  0.6508444  3
   4239   4238   4250   4252     1  0.0000000  0.6508444  3
   4240   4238   4234   4241     1  0.0000000  1.2552000  3
   4240   4238   4250   4256     1  0.0000000  0.6508444  3
   4240   4238   4250   4251     1  0.0000000  0.6508444  3
   4240   4238   4250   4252     1  0.0000000  0.6508444  3
   4241   4244   4253   4254     1  0.0000000  0.6508444  3
   4241   4244   4253   4255     1  0.0000000  0.6508444  3
   4242   4241   4244   4253     1  0.0000000  0.6508444  3
   4242   4241   4244   4245     1  0.0000000  0.6508444  3
   4242   4241   4244   4246     1  0.0000000  0.6508444  3
   4243   4241   4244   4253     1  0.0000000  0.6508444  3
   4243   4241   4244   4245     1  0.0000000  0.6508444  3
   4243   4241   4244   4246     1  0.0000000  0.6508444  3
   4245   4244   4253   4262     1  0.0000000  1.0460000  1
   4245   4244   4253   4262     1  0.0000000  0.0000000  3
   4245   4244   4253   4254     1  0.0000000  0.6508444  3
   4245   4244   4253   4255     1  0.0000000  0.6508444  3
   4246   4244   4253   4262     1  0.0000000  1.0460000  1
   4246   4244   4253   4262     1  0.0000000  0.0000000  3
   4246   4244   4253   4254     1  0.0000000  0.6508444  3
   4246   4244   4253   4255     1  0.0000000  0.6508444  3
   4248   4247   4259   8583     1  0.0000000  1.0460000  1
   4248   4247   4259   8583     1  0.0000000  0.0000000  3
   4248   4247   4259   4260     1  0.0000000  0.6508444  3
   4248   4247   4259   4261     1  0.0000000  0.6508444  3
   4249   4247   4259   8583     1  0.0000000  1.0460000  1
   4249   4247   4259   8583     1  0.0000000  0.0000000  3
   4249   4247   4259   4260     1  0.0000000  0.6508444  3
   4249   4247   4259   4261     1  0.0000000  0.6508444  3
   4251   4250   4256   8554     1  0.0000000  1.0460000  1
   4251   4250   4256   8554     1  0.0000000  0.0000000  3
   4251   4250   4256   4257     1  0.0000000  0.6508444  3
   4251   4250   4256   4258     1  0.0000000  0.6508444  3
   4252   4250   4256   8554     1  0.0000000  1.0460000  1
   4252   4250   4256   8554     1  0.0000000  0.0000000  3
   4252   4250   4256   4257     1  0.0000000  0.6508444  3
   4252   4250   4256   4258     1  0.0000000  0.6508444  3
   4256   8554   8526   8527     1  0.0000000  1.6038667  3
   4256   8554   8526   8528     1  0.0000000  1.6038667  3
   4257   4256   8554   8526     1  0.0000000  1.6038667  3
   4258   4256   8554   8526     1  0.0000000  1.6038667  3
   4259   8583   8555   8556     1  0.0000000  1.6038667  3
   4259   8583   8555   8557     1  0.0000000  1.6038667  3
   4260   4259   8583   8555     1  0.0000000  1.6038667  3
   4261   4259   8583   8555     1  0.0000000  1.6038667  3
   4263   4264   4276   4277     1  0.0000000  0.6508444  3
   4263   4264   4276   4278     1  0.0000000  0.6508444  3
   4263   4267   4279   4280     1  0.0000000  0.6508444  3
   4263   4267   4279   4281     1  0.0000000  0.6508444  3
   4263   4270   4273   4274     1  0.0000000  0.6508444  3
   4263   4270   4273   4275     1  0.0000000  0.6508444  3
   4264   4263   4267   4268     1  0.0000000  1.2552000  3
   4264   4263   4267   4269     1  0.0000000  1.2552000  3
   4264   4263   4270   4271     1  0.0000000  1.2552000  3
   4264   4263   4270   4272     1  0.0000000  1.2552000  3
   4264   4276   4288   4289     1  0.0000000  0.6508444  3
   4264   4276   4288   4290     1  0.0000000  0.6508444  3
   4265   4264   4263   4267     1  0.0000000  1.2552000  3
   4265   4264   4263   4270     1  0.0000000  1.2552000  3
   4265   4264   4276   4288     1  0.0000000  0.6508444  3
   4265   4264   4276   4277     1  0.0000000  0.6508444  3
   4265   4264   4276   4278     1  0.0000000  0.6508444  3
   4266   4264   4263   4267     1  0.0000000  1.2552000  3
   4266   4264   4263   4270     1  0.0000000  1.2552000  3
   4266   4264   4276   4288     1  0.0000000  0.6508444  3
   4266   4264   4276   4277     1  0.0000000  0.6508444  3
   4266   4264   4276   4278     1  0.0000000  0.6508444  3
   4267   4263   4270   4271     1  0.0000000  1.2552000  3
   4267   4263   4270   4272     1  0.0000000  1.2552000  3
   4267   4279   4285   4286     1  0.0000000  0.6508444  3
   4267   4279   4285   4287     1  0.0000000  0.6508444  3
   4268   4267   4263   4270     1  0.0000000  1.2552000  3
   4268   4267   4279   4285     1  0.0000000  0.6508444  3
   4268   4267   4279   4280     1  0.0000000  0.6508444  3
   4268   4267   4279   4281     1  0.0000000  0.6508444  3
   4269   4267   4263   4270     1  0.0000000  1.2552000  3
   4269   4267   4279   4285     1  0.0000000  0.6508444  3
   4269   4267   4279   4280     1  0.0000000  0.6508444  3
   4269   4267   4279   4281     1  0.0000000  0.6508444  3
   4270   4273   4282   4283     1  0.0000000  0.6508444  3
   4270   4273   4282   4284     1  0.0000000  0.6508444  3
   4271   4270   4273   4282     1  0.0000000  0.6508444  3
   4271   4270   4273   4274     1  0.0000000  0.6508444  3
   4271   4270   4273   4275     1  0.0000000  0.6508444  3
   4272   4270   4273   4282     1  0.0000000  0.6508444  3
   4272   4270   4273   4274     1  0.0000000  0.6508444  3
   4272   4270   4273   4275     1  0.0000000  0.6508444  3
   4274   4273   4282   4291     1  0.0000000  1.0460000  1
   4274   4273   4282   4291     1  0.0000000  0.0000000  3
   4274   4273   4282   4283     1  0.0000000  0.6508444  3
   4274   4273   4282   4284     1  0.0000000  0.6508444  3
   4275   4273   4282   4291     1  0.0000000  1.0460000  1
   4275   4273   4282   4291     1  0.0000000  0.0000000  3
   4275   4273   4282   4283     1  0.0000000  0.6508444  3
   4275   4273   4282   4284     1  0.0000000  0.6508444  3
   4277   4276   4288   8641     1  0.0000000  1.0460000  1
   4277   4276   4288   8641     1  0.0000000  0.0000000  3
   4277   4276   4288   4289     1  0.0000000  0.6508444  3
   4277   4276   4288   4290     1  0.0000000  0.6508444  3
   4278   4276   4288   8641     1  0.0000000  1.0460000  1
   4278   4276   4288   8641     1  0.0000000  0.0000000  3
   4278   4276   4288   4289     1  0.0000000  0.6508444  3
   4278   4276   4288   4290     1  0.0000000  0.6508444  3
   4280   4279   4285   8612     1  0.0000000  1.0460000  1
   4280   4279   4285   8612     1  0.0000000  0.0000000  3
   4280   4279   4285   4286     1  0.0000000  0.6508444  3
   4280   4279   4285   4287     1  0.0000000  0.6508444  3
   4281   4279   4285   8612     1  0.0000000  1.0460000  1
   4281   4279   4285   8612     1  0.0000000  0.0000000  3
   4281   4279   4285   4286     1  0.0000000  0.6508444  3
   4281   4279   4285   4287     1  0.0000000  0.6508444  3
   4285   8612   8584   8585     1  0.0000000  1.6038667  3
   4285   8612   8584   8586     1  0.0000000  1.6038667  3
   4286   4285   8612   8584     1  0.0000000  1.6038667  3
   4287   4285   8612   8584     1  0.0000000  1.6038667  3
   4288   8641   8613   8614     1  0.0000000  1.6038667  3
   4288   8641   8613   8615     1  0.0000000  1.6038667  3
   4289   4288   8641   8613     1  0.0000000  1.6038667  3
   4290   4288   8641   8613     1  0.0000000  1.6038667  3
   4292   4293   4305   4306     1  0.0000000  0.6508444  3
   4292   4293   4305   4307     1  0.0000000  0.6508444  3
   4292   4296   4308   4309     1  0.0000000  0.6508444  3
   4292   4296   4308   4310     1  0.0000000  0.6508444  3
   4292   4299   4302   4303     1  0.0000000  0.6508444  3
   4292   4299   4302   4304     1  0.0000000  0.6508444  3
   4293   4292   4296   4297     1  0.0000000  1.2552000  3
   4293   4292   4296   4298     1  0.0000000  1.2552000  3
   4293   4292   4299   4300     1  0.0000000  1.2552000  3
   4293   4292   4299   4301     1  0.0000000  1.2552000  3
   4293   4305   4317   4318     1  0.0000000  0.6508444  3
   4293   4305   4317   4319     1  0.0000000  0.6508444  3
   4294   4293   4292   4296     1  0.0000000  1.2552000  3
   4294   4293   4292   4299     1  0.0000000  1.2552000  3
   4294   4293   4305   4317     1  0.0000000  0.6508444  3
   4294   4293   4305   4306     1  0.0000000  0.6508444  3
   4294   4293   4305   4307     1  0.0000000  0.6508444  3
   4295   4293   4292   4296     1  0.0000000  1.2552000  3
   4295   4293   4292   4299     1  0.0000000  1.2552000  3
   4295   4293   4305   4317     1  0.0000000  0.6508444  3
   4295   4293   4305   4306     1  0.0000000  0.6508444  3
   4295   4293   4305   4307     1  0.0000000  0.6508444  3
   4296   4292   4299   4300     1  0.0000000  1.2552000  3
   4296   4292   4299   4301     1  0.0000000  1.2552000  3
   4296   4308   4314   4315     1  0.0000000  0.6508444  3
   4296   4308   4314   4316     1  0.0000000  0.6508444  3
   4297   4296   4292   4299     1  0.0000000  1.2552000  3
   4297   4296   4308   4314     1  0.0000000  0.6508444  3
   4297   4296   4308   4309     1  0.0000000  0.6508444  3
   4297   4296   4308   4310     1  0.0000000  0.6508444  3
   4298   4296   4292   4299     1  0.0000000  1.2552000  3
   4298   4296   4308   4314     1  0.0000000  0.6508444  3
   4298   4296   4308   4309     1  0.0000000  0.6508444  3
   4298   4296   4308   4310     1  0.0000000  0.6508444  3
   4299   4302   4311   4312     1  0.0000000  0.6508444  3
   4299   4302   4311   4313     1  0.0000000  0.6508444  3
   4300   4299   4302   4311     1  0.0000000  0.6508444  3
   4300   4299   4302   4303     1  0.0000000  0.6508444  3
   4300   4299   4302   4304     1  0.0000000  0.6508444  3
   4301   4299   4302   4311     1  0.0000000  0.6508444  3
   4301   4299   4302   4303     1  0.0000000  0.6508444  3
   4301   4299   4302   4304     1  0.0000000  0.6508444  3
   4303   4302   4311   4320     1  0.0000000  1.0460000  1
   4303   4302   4311   4320     1  0.0000000  0.0000000  3
   4303   4302   4311   4312     1  0.0000000  0.6508444  3
   4303   4302   4311   4313     1  0.0000000  0.6508444  3
   4304   4302   4311   4320     1  0.0000000  1.0460000  1
   4304   4302   4311   4320     1  0.0000000  0.0000000  3
   4304   4302   4311   4312     1  0.0000000  0.6508444  3
   4304   4302   4311   4313     1  0.0000000  0.6508444  3
   4306   4305   4317   8699     1  0.0000000  1.0460000  1
   4306   4305   4317   8699     1  0.0000000  0.0000000  3
   4306   4305   4317   4318     1  0.0000000  0.6508444  3
   4306   4305   4317   4319     1  0.0000000  0.6508444  3
   4307   4305   4317   8699     1  0.0000000  1.0460000  1
   4307   4305   4317   8699     1  0.0000000  0.0000000  3
   4307   4305   4317   4318     1  0.0000000  0.6508444  3
   4307   4305   4317   4319     1  0.0000000  0.6508444  3
   4309   4308   4314   8670     1  0.0000000  1.0460000  1
   4309   4308   4314   8670     1  0.0000000  0.0000000  3
   4309   4308   4314   4315     1  0.0000000  0.6508444  3
   4309   4308   4314   4316     1  0.0000000  0.6508444  3
   4310   4308   4314   8670     1  0.0000000  1.0460000  1
   4310   4308   4314   8670     1  0.0000000  0.0000000  3
   4310   4308   4314   4315     1  0.0000000  0.6508444  3
   4310   4308   4314   4316     1  0.0000000  0.6508444  3
   4314   8670   8642   8643     1  0.0000000  1.6038667  3
   4314   8670   8642   8644     1  0.0000000  1.6038667  3
   4315   4314   8670   8642     1  0.0000000  1.6038667  3
   4316   4314   8670   8642     1  0.0000000  1.6038667  3
   4317   8699   8671   8672     1  0.0000000  1.6038667  3
   4317   8699   8671   8673     1  0.0000000  1.6038667  3
   4318   4317   8699   8671     1  0.0000000  1.6038667  3
   4319   4317   8699   8671     1  0.0000000  1.6038667  3
   4321   4322   4334   4335     1  0.0000000  0.6508444  3
   4321   4322   4334   4336     1  0.0000000  0.6508444  3
   4321   4325   4337   4338     1  0.0000000  0.6508444  3
   4321   4325   4337   4339     1  0.0000000  0.6508444  3
   4321   4328   4331   4332     1  0.0000000  0.6508444  3
   4321   4328   4331   4333     1  0.0000000  0.6508444  3
   4322   4321   4325   4326     1  0.0000000  1.2552000  3
   4322   4321   4325   4327     1  0.0000000  1.2552000  3
   4322   4321   4328   4329     1  0.0000000  1.2552000  3
   4322   4321   4328   4330     1  0.0000000  1.2552000  3
   4322   4334   4346   4347     1  0.0000000  0.6508444  3
   4322   4334   4346   4348     1  0.0000000  0.6508444  3
   4323   4322   4321   4325     1  0.0000000  1.2552000  3
   4323   4322   4321   4328     1  0.0000000  1.2552000  3
   4323   4322   4334   4346     1  0.0000000  0.6508444  3
   4323   4322   4334   4335     1  0.0000000  0.6508444  3
   4323   4322   4334   4336     1  0.0000000  0.6508444  3
   4324   4322   4321   4325     1  0.0000000  1.2552000  3
   4324   4322   4321   4328     1  0.0000000  1.2552000  3
   4324   4322   4334   4346     1  0.0000000  0.6508444  3
   4324   4322   4334   4335     1  0.0000000  0.6508444  3
   4324   4322   4334   4336     1  0.0000000  0.6508444  3
   4325   4321   4328   4329     1  0.0000000  1.2552000  3
   4325   4321   4328   4330     1  0.0000000  1.2552000  3
   4325   4337   4343   4344     1  0.0000000  0.6508444  3
   4325   4337   4343   4345     1  0.0000000  0.6508444  3
   4326   4325   4321   4328     1  0.0000000  1.2552000  3
   4326   4325   4337   4343     1  0.0000000  0.6508444  3
   4326   4325   4337   4338     1  0.0000000  0.6508444  3
   4326   4325   4337   4339     1  0.0000000  0.6508444  3
   4327   4325   4321   4328     1  0.0000000  1.2552000  3
   4327   4325   4337   4343     1  0.0000000  0.6508444  3
   4327   4325   4337   4338     1  0.0000000  0.6508444  3
   4327   4325   4337   4339     1  0.0000000  0.6508444  3
   4328   4331   4340   4341     1  0.0000000  0.6508444  3
   4328   4331   4340   4342     1  0.0000000  0.6508444  3
   4329   4328   4331   4340     1  0.0000000  0.6508444  3
   4329   4328   4331   4332     1  0.0000000  0.6508444  3
   4329   4328   4331   4333     1  0.0000000  0.6508444  3
   4330   4328   4331   4340     1  0.0000000  0.6508444  3
   4330   4328   4331   4332     1  0.0000000  0.6508444  3
   4330   4328   4331   4333     1  0.0000000  0.6508444  3
   4332   4331   4340   4349     1  0.0000000  1.0460000  1
   4332   4331   4340   4349     1  0.0000000  0.0000000  3
   4332   4331   4340   4341     1  0.0000000  0.6508444  3
   4332   4331   4340   4342     1  0.0000000  0.6508444  3
   4333   4331   4340   4349     1  0.0000000  1.0460000  1
   4333   4331   4340   4349     1  0.0000000  0.0000000  3
   4333   4331   4340   4341     1  0.0000000  0.6508444  3
   4333   4331   4340   4342     1  0.0000000  0.6508444  3
   4335   4334   4346   8757     1  0.0000000  1.0460000  1
   4335   4334   4346   8757     1  0.0000000  0.0000000  3
   4335   4334   4346   4347     1  0.0000000  0.6508444  3
   4335   4334   4346   4348     1  0.0000000  0.6508444  3
   4336   4334   4346   8757     1  0.0000000  1.0460000  1
   4336   4334   4346   8757     1  0.0000000  0.0000000  3
   4336   4334   4346   4347     1  0.0000000  0.6508444  3
   4336   4334   4346   4348     1  0.0000000  0.6508444  3
   4338   4337   4343   8728     1  0.0000000  1.0460000  1
   4338   4337   4343   8728     1  0.0000000  0.0000000  3
   4338   4337   4343   4344     1  0.0000000  0.6508444  3
   4338   4337   4343   4345     1  0.0000000  0.6508444  3
   4339   4337   4343   8728     1  0.0000000  1.0460000  1
   4339   4337   4343   8728     1  0.0000000  0.0000000  3
   4339   4337   4343   4344     1  0.0000000  0.6508444  3
   4339   4337   4343   4345     1  0.0000000  0.6508444  3
   4343   8728   8700   8701     1  0.0000000  1.6038667  3
   4343   8728   8700   8702     1  0.0000000  1.6038667  3
   4344   4343   8728   8700     1  0.0000000  1.6038667  3
   4345   4343   8728   8700     1  0.0000000  1.6038667  3
   4346   8757   8729   8730     1  0.0000000  1.6038667  3
   4346   8757   8729   8731     1  0.0000000  1.6038667  3
   4347   4346   8757   8729     1  0.0000000  1.6038667  3
   4348   4346   8757   8729     1  0.0000000  1.6038667  3
   4350   4351   4363   4364     1  0.0000000  0.6508444  3
   4350   4351   4363   4365     1  0.0000000  0.6508444  3
   4350   4354   4366   4367     1  0.0000000  0.6508444  3
   4350   4354   4366   4368     1  0.0000000  0.6508444  3
   4350   4357   4360   4361     1  0.0000000  0.6508444  3
   4350   4357   4360   4362     1  0.0000000  0.6508444  3
   4351   4350   4354   4355     1  0.0000000  1.2552000  3
   4351   4350   4354   4356     1  0.0000000  1.2552000  3
   4351   4350   4357   4358     1  0.0000000  1.2552000  3
   4351   4350   4357   4359     1  0.0000000  1.2552000  3
   4351   4363   4375   4376     1  0.0000000  0.6508444  3
   4351   4363   4375   4377     1  0.0000000  0.6508444  3
   4352   4351   4350   4354     1  0.0000000  1.2552000  3
   4352   4351   4350   4357     1  0.0000000  1.2552000  3
   4352   4351   4363   4375     1  0.0000000  0.6508444  3
   4352   4351   4363   4364     1  0.0000000  0.6508444  3
   4352   4351   4363   4365     1  0.0000000  0.6508444  3
   4353   4351   4350   4354     1  0.0000000  1.2552000  3
   4353   4351   4350   4357     1  0.0000000  1.2552000  3
   4353   4351   4363   4375     1  0.0000000  0.6508444  3
   4353   4351   4363   4364     1  0.0000000  0.6508444  3
   4353   4351   4363   4365     1  0.0000000  0.6508444  3
   4354   4350   4357   4358     1  0.0000000  1.2552000  3
   4354   4350   4357   4359     1  0.0000000  1.2552000  3
   4354   4366   4372   4373     1  0.0000000  0.6508444  3
   4354   4366   4372   4374     1  0.0000000  0.6508444  3
   4355   4354   4350   4357     1  0.0000000  1.2552000  3
   4355   4354   4366   4372     1  0.0000000  0.6508444  3
   4355   4354   4366   4367     1  0.0000000  0.6508444  3
   4355   4354   4366   4368     1  0.0000000  0.6508444  3
   4356   4354   4350   4357     1  0.0000000  1.2552000  3
   4356   4354   4366   4372     1  0.0000000  0.6508444  3
   4356   4354   4366   4367     1  0.0000000  0.6508444  3
   4356   4354   4366   4368     1  0.0000000  0.6508444  3
   4357   4360   4369   4370     1  0.0000000  0.6508444  3
   4357   4360   4369   4371     1  0.0000000  0.6508444  3
   4358   4357   4360   4369     1  0.0000000  0.6508444  3
   4358   4357   4360   4361     1  0.0000000  0.6508444  3
   4358   4357   4360   4362     1  0.0000000  0.6508444  3
   4359   4357   4360   4369     1  0.0000000  0.6508444  3
   4359   4357   4360   4361     1  0.0000000  0.6508444  3
   4359   4357   4360   4362     1  0.0000000  0.6508444  3
   4361   4360   4369   4378     1  0.0000000  1.0460000  1
   4361   4360   4369   4378     1  0.0000000  0.0000000  3
   4361   4360   4369   4370     1  0.0000000  0.6508444  3
   4361   4360   4369   4371     1  0.0000000  0.6508444  3
   4362   4360   4369   4378     1  0.0000000  1.0460000  1
   4362   4360   4369   4378     1  0.0000000  0.0000000  3
   4362   4360   4369   4370     1  0.0000000  0.6508444  3
   4362   4360   4369   4371     1  0.0000000  0.6508444  3
   4364   4363   4375   8815     1  0.0000000  1.0460000  1
   4364   4363   4375   8815     1  0.0000000  0.0000000  3
   4364   4363   4375   4376     1  0.0000000  0.6508444  3
   4364   4363   4375   4377     1  0.0000000  0.6508444  3
   4365   4363   4375   8815     1  0.0000000  1.0460000  1
   4365   4363   4375   8815     1  0.0000000  0.0000000  3
   4365   4363   4375   4376     1  0.0000000  0.6508444  3
   4365   4363   4375   4377     1  0.0000000  0.6508444  3
   4367   4366   4372   8786     1  0.0000000  1.0460000  1
   4367   4366   4372   8786     1  0.0000000  0.0000000  3
   4367   4366   4372   4373     1  0.0000000  0.6508444  3
   4367   4366   4372   4374     1  0.0000000  0.6508444  3
   4368   4366   4372   8786     1  0.0000000  1.0460000  1
   4368   4366   4372   8786     1  0.0000000  0.0000000  3
   4368   4366   4372   4373     1  0.0000000  0.6508444  3
   4368   4366   4372   4374     1  0.0000000  0.6508444  3
   4372   8786   8758   8759     1  0.0000000  1.6038667  3
   4372   8786   8758   8760     1  0.0000000  1.6038667  3
   4373   4372   8786   8758     1  0.0000000  1.6038667  3
   4374   4372   8786   8758     1  0.0000000  1.6038667  3
   4375   8815   8787   8788     1  0.0000000  1.6038667  3
   4375   8815   8787   8789     1  0.0000000  1.6038667  3
   4376   4375   8815   8787     1  0.0000000  1.6038667  3
   4377   4375   8815   8787     1  0.0000000  1.6038667  3
   4379   4380   4392   4393     1  0.0000000  0.6508444  3
   4379   4380   4392   4394     1  0.0000000  0.6508444  3
   4379   4383   4395   4396     1  0.0000000  0.6508444  3
   4379   4383   4395   4397     1  0.0000000  0.6508444  3
   4379   4386   4389   4390     1  0.0000000  0.6508444  3
   4379   4386   4389   4391     1  0.0000000  0.6508444  3
   4380   4379   4383   4384     1  0.0000000  1.2552000  3
   4380   4379   4383   4385     1  0.0000000  1.2552000  3
   4380   4379   4386   4387     1  0.0000000  1.2552000  3
   4380   4379   4386   4388     1  0.0000000  1.2552000  3
   4380   4392   4404   4405     1  0.0000000  0.6508444  3
   4380   4392   4404   4406     1  0.0000000  0.6508444  3
   4381   4380   4379   4383     1  0.0000000  1.2552000  3
   4381   4380   4379   4386     1  0.0000000  1.2552000  3
   4381   4380   4392   4404     1  0.0000000  0.6508444  3
   4381   4380   4392   4393     1  0.0000000  0.6508444  3
   4381   4380   4392   4394     1  0.0000000  0.6508444  3
   4382   4380   4379   4383     1  0.0000000  1.2552000  3
   4382   4380   4379   4386     1  0.0000000  1.2552000  3
   4382   4380   4392   4404     1  0.0000000  0.6508444  3
   4382   4380   4392   4393     1  0.0000000  0.6508444  3
   4382   4380   4392   4394     1  0.0000000  0.6508444  3
   4383   4379   4386   4387     1  0.0000000  1.2552000  3
   4383   4379   4386   4388     1  0.0000000  1.2552000  3
   4383   4395   4401   4402     1  0.0000000  0.6508444  3
   4383   4395   4401   4403     1  0.0000000  0.6508444  3
   4384   4383   4379   4386     1  0.0000000  1.2552000  3
   4384   4383   4395   4401     1  0.0000000  0.6508444  3
   4384   4383   4395   4396     1  0.0000000  0.6508444  3
   4384   4383   4395   4397     1  0.0000000  0.6508444  3
   4385   4383   4379   4386     1  0.0000000  1.2552000  3
   4385   4383   4395   4401     1  0.0000000  0.6508444  3
   4385   4383   4395   4396     1  0.0000000  0.6508444  3
   4385   4383   4395   4397     1  0.0000000  0.6508444  3
   4386   4389   4398   4399     1  0.0000000  0.6508444  3
   4386   4389   4398   4400     1  0.0000000  0.6508444  3
   4387   4386   4389   4398     1  0.0000000  0.6508444  3
   4387   4386   4389   4390     1  0.0000000  0.6508444  3
   4387   4386   4389   4391     1  0.0000000  0.6508444  3
   4388   4386   4389   4398     1  0.0000000  0.6508444  3
   4388   4386   4389   4390     1  0.0000000  0.6508444  3
   4388   4386   4389   4391     1  0.0000000  0.6508444  3
   4390   4389   4398   4407     1  0.0000000  1.0460000  1
   4390   4389   4398   4407     1  0.0000000  0.0000000  3
   4390   4389   4398   4399     1  0.0000000  0.6508444  3
   4390   4389   4398   4400     1  0.0000000  0.6508444  3
   4391   4389   4398   4407     1  0.0000000  1.0460000  1
   4391   4389   4398   4407     1  0.0000000  0.0000000  3
   4391   4389   4398   4399     1  0.0000000  0.6508444  3
   4391   4389   4398   4400     1  0.0000000  0.6508444  3
   4393   4392   4404   8873     1  0.0000000  1.0460000  1
   4393   4392   4404   8873     1  0.0000000  0.0000000  3
   4393   4392   4404   4405     1  0.0000000  0.6508444  3
   4393   4392   4404   4406     1  0.0000000  0.6508444  3
   4394   4392   4404   8873     1  0.0000000  1.0460000  1
   4394   4392   4404   8873     1  0.0000000  0.0000000  3
   4394   4392   4404   4405     1  0.0000000  0.6508444  3
   4394   4392   4404   4406     1  0.0000000  0.6508444  3
   4396   4395   4401   8844     1  0.0000000  1.0460000  1
   4396   4395   4401   8844     1  0.0000000  0.0000000  3
   4396   4395   4401   4402     1  0.0000000  0.6508444  3
   4396   4395   4401   4403     1  0.0000000  0.6508444  3
   4397   4395   4401   8844     1  0.0000000  1.0460000  1
   4397   4395   4401   8844     1  0.0000000  0.0000000  3
   4397   4395   4401   4402     1  0.0000000  0.6508444  3
   4397   4395   4401   4403     1  0.0000000  0.6508444  3
   4401   8844   8816   8817     1  0.0000000  1.6038667  3
   4401   8844   8816   8818     1  0.0000000  1.6038667  3
   4402   4401   8844   8816     1  0.0000000  1.6038667  3
   4403   4401   8844   8816     1  0.0000000  1.6038667  3
   4404   8873   8845   8846     1  0.0000000  1.6038667  3
   4404   8873   8845   8847     1  0.0000000  1.6038667  3
   4405   4404   8873   8845     1  0.0000000  1.6038667  3
   4406   4404   8873   8845     1  0.0000000  1.6038667  3
   4408   4409   4421   4422     1  0.0000000  0.6508444  3
   4408   4409   4421   4423     1  0.0000000  0.6508444  3
   4408   4412   4424   4425     1  0.0000000  0.6508444  3
   4408   4412   4424   4426     1  0.0000000  0.6508444  3
   4408   4415   4418   4419     1  0.0000000  0.6508444  3
   4408   4415   4418   4420     1  0.0000000  0.6508444  3
   4409   4408   4412   4413     1  0.0000000  1.2552000  3
   4409   4408   4412   4414     1  0.0000000  1.2552000  3
   4409   4408   4415   4416     1  0.0000000  1.2552000  3
   4409   4408   4415   4417     1  0.0000000  1.2552000  3
   4409   4421   4433   4434     1  0.0000000  0.6508444  3
   4409   4421   4433   4435     1  0.0000000  0.6508444  3
   4410   4409   4408   4412     1  0.0000000  1.2552000  3
   4410   4409   4408   4415     1  0.0000000  1.2552000  3
   4410   4409   4421   4433     1  0.0000000  0.6508444  3
   4410   4409   4421   4422     1  0.0000000  0.6508444  3
   4410   4409   4421   4423     1  0.0000000  0.6508444  3
   4411   4409   4408   4412     1  0.0000000  1.2552000  3
   4411   4409   4408   4415     1  0.0000000  1.2552000  3
   4411   4409   4421   4433     1  0.0000000  0.6508444  3
   4411   4409   4421   4422     1  0.0000000  0.6508444  3
   4411   4409   4421   4423     1  0.0000000  0.6508444  3
   4412   4408   4415   4416     1  0.0000000  1.2552000  3
   4412   4408   4415   4417     1  0.0000000  1.2552000  3
   4412   4424   4430   4431     1  0.0000000  0.6508444  3
   4412   4424   4430   4432     1  0.0000000  0.6508444  3
   4413   4412   4408   4415     1  0.0000000  1.2552000  3
   4413   4412   4424   4430     1  0.0000000  0.6508444  3
   4413   4412   4424   4425     1  0.0000000  0.6508444  3
   4413   4412   4424   4426     1  0.0000000  0.6508444  3
   4414   4412   4408   4415     1  0.0000000  1.2552000  3
   4414   4412   4424   4430     1  0.0000000  0.6508444  3
   4414   4412   4424   4425     1  0.0000000  0.6508444  3
   4414   4412   4424   4426     1  0.0000000  0.6508444  3
   4415   4418   4427   4428     1  0.0000000  0.6508444  3
   4415   4418   4427   4429     1  0.0000000  0.6508444  3
   4416   4415   4418   4427     1  0.0000000  0.6508444  3
   4416   4415   4418   4419     1  0.0000000  0.6508444  3
   4416   4415   4418   4420     1  0.0000000  0.6508444  3
   4417   4415   4418   4427     1  0.0000000  0.6508444  3
   4417   4415   4418   4419     1  0.0000000  0.6508444  3
   4417   4415   4418   4420     1  0.0000000  0.6508444  3
   4419   4418   4427   4436     1  0.0000000  1.0460000  1
   4419   4418   4427   4436     1  0.0000000  0.0000000  3
   4419   4418   4427   4428     1  0.0000000  0.6508444  3
   4419   4418   4427   4429     1  0.0000000  0.6508444  3
   4420   4418   4427   4436     1  0.0000000  1.0460000  1
   4420   4418   4427   4436     1  0.0000000  0.0000000  3
   4420   4418   4427   4428     1  0.0000000  0.6508444  3
   4420   4418   4427   4429     1  0.0000000  0.6508444  3
   4422   4421   4433   8931     1  0.0000000  1.0460000  1
   4422   4421   4433   8931     1  0.0000000  0.0000000  3
   4422   4421   4433   4434     1  0.0000000  0.6508444  3
   4422   4421   4433   4435     1  0.0000000  0.6508444  3
   4423   4421   4433   8931     1  0.0000000  1.0460000  1
   4423   4421   4433   8931     1  0.0000000  0.0000000  3
   4423   4421   4433   4434     1  0.0000000  0.6508444  3
   4423   4421   4433   4435     1  0.0000000  0.6508444  3
   4425   4424   4430   8902     1  0.0000000  1.0460000  1
   4425   4424   4430   8902     1  0.0000000  0.0000000  3
   4425   4424   4430   4431     1  0.0000000  0.6508444  3
   4425   4424   4430   4432     1  0.0000000  0.6508444  3
   4426   4424   4430   8902     1  0.0000000  1.0460000  1
   4426   4424   4430   8902     1  0.0000000  0.0000000  3
   4426   4424   4430   4431     1  0.0000000  0.6508444  3
   4426   4424   4430   4432     1  0.0000000  0.6508444  3
   4430   8902   8874   8875     1  0.0000000  1.6038667  3
   4430   8902   8874   8876     1  0.0000000  1.6038667  3
   4431   4430   8902   8874     1  0.0000000  1.6038667  3
   4432   4430   8902   8874     1  0.0000000  1.6038667  3
   4433   8931   8903   8904     1  0.0000000  1.6038667  3
   4433   8931   8903   8905     1  0.0000000  1.6038667  3
   4434   4433   8931   8903     1  0.0000000  1.6038667  3
   4435   4433   8931   8903     1  0.0000000  1.6038667  3
   4437   4438   4450   4451     1  0.0000000  0.6508444  3
   4437   4438   4450   4452     1  0.0000000  0.6508444  3
   4437   4441   4453   4454     1  0.0000000  0.6508444  3
   4437   4441   4453   4455     1  0.0000000  0.6508444  3
   4437   4444   4447   4448     1  0.0000000  0.6508444  3
   4437   4444   4447   4449     1  0.0000000  0.6508444  3
   4438   4437   4441   4442     1  0.0000000  1.2552000  3
   4438   4437   4441   4443     1  0.0000000  1.2552000  3
   4438   4437   4444   4445     1  0.0000000  1.2552000  3
   4438   4437   4444   4446     1  0.0000000  1.2552000  3
   4438   4450   4462   4463     1  0.0000000  0.6508444  3
   4438   4450   4462   4464     1  0.0000000  0.6508444  3
   4439   4438   4437   4441     1  0.0000000  1.2552000  3
   4439   4438   4437   4444     1  0.0000000  1.2552000  3
   4439   4438   4450   4462     1  0.0000000  0.6508444  3
   4439   4438   4450   4451     1  0.0000000  0.6508444  3
   4439   4438   4450   4452     1  0.0000000  0.6508444  3
   4440   4438   4437   4441     1  0.0000000  1.2552000  3
   4440   4438   4437   4444     1  0.0000000  1.2552000  3
   4440   4438   4450   4462     1  0.0000000  0.6508444  3
   4440   4438   4450   4451     1  0.0000000  0.6508444  3
   4440   4438   4450   4452     1  0.0000000  0.6508444  3
   4441   4437   4444   4445     1  0.0000000  1.2552000  3
   4441   4437   4444   4446     1  0.0000000  1.2552000  3
   4441   4453   4459   4460     1  0.0000000  0.6508444  3
   4441   4453   4459   4461     1  0.0000000  0.6508444  3
   4442   4441   4437   4444     1  0.0000000  1.2552000  3
   4442   4441   4453   4459     1  0.0000000  0.6508444  3
   4442   4441   4453   4454     1  0.0000000  0.6508444  3
   4442   4441   4453   4455     1  0.0000000  0.6508444  3
   4443   4441   4437   4444     1  0.0000000  1.2552000  3
   4443   4441   4453   4459     1  0.0000000  0.6508444  3
   4443   4441   4453   4454     1  0.0000000  0.6508444  3
   4443   4441   4453   4455     1  0.0000000  0.6508444  3
   4444   4447   4456   4457     1  0.0000000  0.6508444  3
   4444   4447   4456   4458     1  0.0000000  0.6508444  3
   4445   4444   4447   4456     1  0.0000000  0.6508444  3
   4445   4444   4447   4448     1  0.0000000  0.6508444  3
   4445   4444   4447   4449     1  0.0000000  0.6508444  3
   4446   4444   4447   4456     1  0.0000000  0.6508444  3
   4446   4444   4447   4448     1  0.0000000  0.6508444  3
   4446   4444   4447   4449     1  0.0000000  0.6508444  3
   4448   4447   4456   4465     1  0.0000000  1.0460000  1
   4448   4447   4456   4465     1  0.0000000  0.0000000  3
   4448   4447   4456   4457     1  0.0000000  0.6508444  3
   4448   4447   4456   4458     1  0.0000000  0.6508444  3
   4449   4447   4456   4465     1  0.0000000  1.0460000  1
   4449   4447   4456   4465     1  0.0000000  0.0000000  3
   4449   4447   4456   4457     1  0.0000000  0.6508444  3
   4449   4447   4456   4458     1  0.0000000  0.6508444  3
   4451   4450   4462   8989     1  0.0000000  1.0460000  1
   4451   4450   4462   8989     1  0.0000000  0.0000000  3
   4451   4450   4462   4463     1  0.0000000  0.6508444  3
   4451   4450   4462   4464     1  0.0000000  0.6508444  3
   4452   4450   4462   8989     1  0.0000000  1.0460000  1
   4452   4450   4462   8989     1  0.0000000  0.0000000  3
   4452   4450   4462   4463     1  0.0000000  0.6508444  3
   4452   4450   4462   4464     1  0.0000000  0.6508444  3
   4454   4453   4459   8960     1  0.0000000  1.0460000  1
   4454   4453   4459   8960     1  0.0000000  0.0000000  3
   4454   4453   4459   4460     1  0.0000000  0.6508444  3
   4454   4453   4459   4461     1  0.0000000  0.6508444  3
   4455   4453   4459   8960     1  0.0000000  1.0460000  1
   4455   4453   4459   8960     1  0.0000000  0.0000000  3
   4455   4453   4459   4460     1  0.0000000  0.6508444  3
   4455   4453   4459   4461     1  0.0000000  0.6508444  3
   4459   8960   8932   8933     1  0.0000000  1.6038667  3
   4459   8960   8932   8934     1  0.0000000  1.6038667  3
   4460   4459   8960   8932     1  0.0000000  1.6038667  3
   4461   4459   8960   8932     1  0.0000000  1.6038667  3
   4462   8989   8961   8962     1  0.0000000  1.6038667  3
   4462   8989   8961   8963     1  0.0000000  1.6038667  3
   4463   4462   8989   8961     1  0.0000000  1.6038667  3
   4464   4462   8989   8961     1  0.0000000  1.6038667  3
   4466   4467   4479   4480     1  0.0000000  0.6508444  3
   4466   4467   4479   4481     1  0.0000000  0.6508444  3
   4466   4470   4482   4483     1  0.0000000  0.6508444  3
   4466   4470   4482   4484     1  0.0000000  0.6508444  3
   4466   4473   4476   4477     1  0.0000000  0.6508444  3
   4466   4473   4476   4478     1  0.0000000  0.6508444  3
   4467   4466   4470   4471     1  0.0000000  1.2552000  3
   4467   4466   4470   4472     1  0.0000000  1.2552000  3
   4467   4466   4473   4474     1  0.0000000  1.2552000  3
   4467   4466   4473   4475     1  0.0000000  1.2552000  3
   4467   4479   4491   4492     1  0.0000000  0.6508444  3
   4467   4479   4491   4493     1  0.0000000  0.6508444  3
   4468   4467   4466   4470     1  0.0000000  1.2552000  3
   4468   4467   4466   4473     1  0.0000000  1.2552000  3
   4468   4467   4479   4491     1  0.0000000  0.6508444  3
   4468   4467   4479   4480     1  0.0000000  0.6508444  3
   4468   4467   4479   4481     1  0.0000000  0.6508444  3
   4469   4467   4466   4470     1  0.0000000  1.2552000  3
   4469   4467   4466   4473     1  0.0000000  1.2552000  3
   4469   4467   4479   4491     1  0.0000000  0.6508444  3
   4469   4467   4479   4480     1  0.0000000  0.6508444  3
   4469   4467   4479   4481     1  0.0000000  0.6508444  3
   4470   4466   4473   4474     1  0.0000000  1.2552000  3
   4470   4466   4473   4475     1  0.0000000  1.2552000  3
   4470   4482   4488   4489     1  0.0000000  0.6508444  3
   4470   4482   4488   4490     1  0.0000000  0.6508444  3
   4471   4470   4466   4473     1  0.0000000  1.2552000  3
   4471   4470   4482   4488     1  0.0000000  0.6508444  3
   4471   4470   4482   4483     1  0.0000000  0.6508444  3
   4471   4470   4482   4484     1  0.0000000  0.6508444  3
   4472   4470   4466   4473     1  0.0000000  1.2552000  3
   4472   4470   4482   4488     1  0.0000000  0.6508444  3
   4472   4470   4482   4483     1  0.0000000  0.6508444  3
   4472   4470   4482   4484     1  0.0000000  0.6508444  3
   4473   4476   4485   4486     1  0.0000000  0.6508444  3
   4473   4476   4485   4487     1  0.0000000  0.6508444  3
   4474   4473   4476   4485     1  0.0000000  0.6508444  3
   4474   4473   4476   4477     1  0.0000000  0.6508444  3
   4474   4473   4476   4478     1  0.0000000  0.6508444  3
   4475   4473   4476   4485     1  0.0000000  0.6508444  3
   4475   4473   4476   4477     1  0.0000000  0.6508444  3
   4475   4473   4476   4478     1  0.0000000  0.6508444  3
   4477   4476   4485   4494     1  0.0000000  1.0460000  1
   4477   4476   4485   4494     1  0.0000000  0.0000000  3
   4477   4476   4485   4486     1  0.0000000  0.6508444  3
   4477   4476   4485   4487     1  0.0000000  0.6508444  3
   4478   4476   4485   4494     1  0.0000000  1.0460000  1
   4478   4476   4485   4494     1  0.0000000  0.0000000  3
   4478   4476   4485   4486     1  0.0000000  0.6508444  3
   4478   4476   4485   4487     1  0.0000000  0.6508444  3
   4480   4479   4491   9047     1  0.0000000  1.0460000  1
   4480   4479   4491   9047     1  0.0000000  0.0000000  3
   4480   4479   4491   4492     1  0.0000000  0.6508444  3
   4480   4479   4491   4493     1  0.0000000  0.6508444  3
   4481   4479   4491   9047     1  0.0000000  1.0460000  1
   4481   4479   4491   9047     1  0.0000000  0.0000000  3
   4481   4479   4491   4492     1  0.0000000  0.6508444  3
   4481   4479   4491   4493     1  0.0000000  0.6508444  3
   4483   4482   4488   9018     1  0.0000000  1.0460000  1
   4483   4482   4488   9018     1  0.0000000  0.0000000  3
   4483   4482   4488   4489     1  0.0000000  0.6508444  3
   4483   4482   4488   4490     1  0.0000000  0.6508444  3
   4484   4482   4488   9018     1  0.0000000  1.0460000  1
   4484   4482   4488   9018     1  0.0000000  0.0000000  3
   4484   4482   4488   4489     1  0.0000000  0.6508444  3
   4484   4482   4488   4490     1  0.0000000  0.6508444  3
   4488   9018   8990   8991     1  0.0000000  1.6038667  3
   4488   9018   8990   8992     1  0.0000000  1.6038667  3
   4489   4488   9018   8990     1  0.0000000  1.6038667  3
   4490   4488   9018   8990     1  0.0000000  1.6038667  3
   4491   9047   9019   9020     1  0.0000000  1.6038667  3
   4491   9047   9019   9021     1  0.0000000  1.6038667  3
   4492   4491   9047   9019     1  0.0000000  1.6038667  3
   4493   4491   9047   9019     1  0.0000000  1.6038667  3
   4495   4496   4508   4509     1  0.0000000  0.6508444  3
   4495   4496   4508   4510     1  0.0000000  0.6508444  3
   4495   4499   4511   4512     1  0.0000000  0.6508444  3
   4495   4499   4511   4513     1  0.0000000  0.6508444  3
   4495   4502   4505   4506     1  0.0000000  0.6508444  3
   4495   4502   4505   4507     1  0.0000000  0.6508444  3
   4496   4495   4499   4500     1  0.0000000  1.2552000  3
   4496   4495   4499   4501     1  0.0000000  1.2552000  3
   4496   4495   4502   4503     1  0.0000000  1.2552000  3
   4496   4495   4502   4504     1  0.0000000  1.2552000  3
   4496   4508   4520   4521     1  0.0000000  0.6508444  3
   4496   4508   4520   4522     1  0.0000000  0.6508444  3
   4497   4496   4495   4499     1  0.0000000  1.2552000  3
   4497   4496   4495   4502     1  0.0000000  1.2552000  3
   4497   4496   4508   4520     1  0.0000000  0.6508444  3
   4497   4496   4508   4509     1  0.0000000  0.6508444  3
   4497   4496   4508   4510     1  0.0000000  0.6508444  3
   4498   4496   4495   4499     1  0.0000000  1.2552000  3
   4498   4496   4495   4502     1  0.0000000  1.2552000  3
   4498   4496   4508   4520     1  0.0000000  0.6508444  3
   4498   4496   4508   4509     1  0.0000000  0.6508444  3
   4498   4496   4508   4510     1  0.0000000  0.6508444  3
   4499   4495   4502   4503     1  0.0000000  1.2552000  3
   4499   4495   4502   4504     1  0.0000000  1.2552000  3
   4499   4511   4517   4518     1  0.0000000  0.6508444  3
   4499   4511   4517   4519     1  0.0000000  0.6508444  3
   4500   4499   4495   4502     1  0.0000000  1.2552000  3
   4500   4499   4511   4517     1  0.0000000  0.6508444  3
   4500   4499   4511   4512     1  0.0000000  0.6508444  3
   4500   4499   4511   4513     1  0.0000000  0.6508444  3
   4501   4499   4495   4502     1  0.0000000  1.2552000  3
   4501   4499   4511   4517     1  0.0000000  0.6508444  3
   4501   4499   4511   4512     1  0.0000000  0.6508444  3
   4501   4499   4511   4513     1  0.0000000  0.6508444  3
   4502   4505   4514   4515     1  0.0000000  0.6508444  3
   4502   4505   4514   4516     1  0.0000000  0.6508444  3
   4503   4502   4505   4514     1  0.0000000  0.6508444  3
   4503   4502   4505   4506     1  0.0000000  0.6508444  3
   4503   4502   4505   4507     1  0.0000000  0.6508444  3
   4504   4502   4505   4514     1  0.0000000  0.6508444  3
   4504   4502   4505   4506     1  0.0000000  0.6508444  3
   4504   4502   4505   4507     1  0.0000000  0.6508444  3
   4506   4505   4514   4523     1  0.0000000  1.0460000  1
   4506   4505   4514   4523     1  0.0000000  0.0000000  3
   4506   4505   4514   4515     1  0.0000000  0.6508444  3
   4506   4505   4514   4516     1  0.0000000  0.6508444  3
   4507   4505   4514   4523     1  0.0000000  1.0460000  1
   4507   4505   4514   4523     1  0.0000000  0.0000000  3
   4507   4505   4514   4515     1  0.0000000  0.6508444  3
   4507   4505   4514   4516     1  0.0000000  0.6508444  3
   4509   4508   4520   9105     1  0.0000000  1.0460000  1
   4509   4508   4520   9105     1  0.0000000  0.0000000  3
   4509   4508   4520   4521     1  0.0000000  0.6508444  3
   4509   4508   4520   4522     1  0.0000000  0.6508444  3
   4510   4508   4520   9105     1  0.0000000  1.0460000  1
   4510   4508   4520   9105     1  0.0000000  0.0000000  3
   4510   4508   4520   4521     1  0.0000000  0.6508444  3
   4510   4508   4520   4522     1  0.0000000  0.6508444  3
   4512   4511   4517   9076     1  0.0000000  1.0460000  1
   4512   4511   4517   9076     1  0.0000000  0.0000000  3
   4512   4511   4517   4518     1  0.0000000  0.6508444  3
   4512   4511   4517   4519     1  0.0000000  0.6508444  3
   4513   4511   4517   9076     1  0.0000000  1.0460000  1
   4513   4511   4517   9076     1  0.0000000  0.0000000  3
   4513   4511   4517   4518     1  0.0000000  0.6508444  3
   4513   4511   4517   4519     1  0.0000000  0.6508444  3
   4517   9076   9048   9049     1  0.0000000  1.6038667  3
   4517   9076   9048   9050     1  0.0000000  1.6038667  3
   4518   4517   9076   9048     1  0.0000000  1.6038667  3
   4519   4517   9076   9048     1  0.0000000  1.6038667  3
   4520   9105   9077   9078     1  0.0000000  1.6038667  3
   4520   9105   9077   9079     1  0.0000000  1.6038667  3
   4521   4520   9105   9077     1  0.0000000  1.6038667  3
   4522   4520   9105   9077     1  0.0000000  1.6038667  3
   4524   4525   4537   4538     1  0.0000000  0.6508444  3
   4524   4525   4537   4539     1  0.0000000  0.6508444  3
   4524   4528   4540   4541     1  0.0000000  0.6508444  3
   4524   4528   4540   4542     1  0.0000000  0.6508444  3
   4524   4531   4534   4535     1  0.0000000  0.6508444  3
   4524   4531   4534   4536     1  0.0000000  0.6508444  3
   4525   4524   4528   4529     1  0.0000000  1.2552000  3
   4525   4524   4528   4530     1  0.0000000  1.2552000  3
   4525   4524   4531   4532     1  0.0000000  1.2552000  3
   4525   4524   4531   4533     1  0.0000000  1.2552000  3
   4525   4537   4549   4550     1  0.0000000  0.6508444  3
   4525   4537   4549   4551     1  0.0000000  0.6508444  3
   4526   4525   4524   4528     1  0.0000000  1.2552000  3
   4526   4525   4524   4531     1  0.0000000  1.2552000  3
   4526   4525   4537   4549     1  0.0000000  0.6508444  3
   4526   4525   4537   4538     1  0.0000000  0.6508444  3
   4526   4525   4537   4539     1  0.0000000  0.6508444  3
   4527   4525   4524   4528     1  0.0000000  1.2552000  3
   4527   4525   4524   4531     1  0.0000000  1.2552000  3
   4527   4525   4537   4549     1  0.0000000  0.6508444  3
   4527   4525   4537   4538     1  0.0000000  0.6508444  3
   4527   4525   4537   4539     1  0.0000000  0.6508444  3
   4528   4524   4531   4532     1  0.0000000  1.2552000  3
   4528   4524   4531   4533     1  0.0000000  1.2552000  3
   4528   4540   4546   4547     1  0.0000000  0.6508444  3
   4528   4540   4546   4548     1  0.0000000  0.6508444  3
   4529   4528   4524   4531     1  0.0000000  1.2552000  3
   4529   4528   4540   4546     1  0.0000000  0.6508444  3
   4529   4528   4540   4541     1  0.0000000  0.6508444  3
   4529   4528   4540   4542     1  0.0000000  0.6508444  3
   4530   4528   4524   4531     1  0.0000000  1.2552000  3
   4530   4528   4540   4546     1  0.0000000  0.6508444  3
   4530   4528   4540   4541     1  0.0000000  0.6508444  3
   4530   4528   4540   4542     1  0.0000000  0.6508444  3
   4531   4534   4543   4544     1  0.0000000  0.6508444  3
   4531   4534   4543   4545     1  0.0000000  0.6508444  3
   4532   4531   4534   4543     1  0.0000000  0.6508444  3
   4532   4531   4534   4535     1  0.0000000  0.6508444  3
   4532   4531   4534   4536     1  0.0000000  0.6508444  3
   4533   4531   4534   4543     1  0.0000000  0.6508444  3
   4533   4531   4534   4535     1  0.0000000  0.6508444  3
   4533   4531   4534   4536     1  0.0000000  0.6508444  3
   4535   4534   4543   4552     1  0.0000000  1.0460000  1
   4535   4534   4543   4552     1  0.0000000  0.0000000  3
   4535   4534   4543   4544     1  0.0000000  0.6508444  3
   4535   4534   4543   4545     1  0.0000000  0.6508444  3
   4536   4534   4543   4552     1  0.0000000  1.0460000  1
   4536   4534   4543   4552     1  0.0000000  0.0000000  3
   4536   4534   4543   4544     1  0.0000000  0.6508444  3
   4536   4534   4543   4545     1  0.0000000  0.6508444  3
   4538   4537   4549   9163     1  0.0000000  1.0460000  1
   4538   4537   4549   9163     1  0.0000000  0.0000000  3
   4538   4537   4549   4550     1  0.0000000  0.6508444  3
   4538   4537   4549   4551     1  0.0000000  0.6508444  3
   4539   4537   4549   9163     1  0.0000000  1.0460000  1
   4539   4537   4549   9163     1  0.0000000  0.0000000  3
   4539   4537   4549   4550     1  0.0000000  0.6508444  3
   4539   4537   4549   4551     1  0.0000000  0.6508444  3
   4541   4540   4546   9134     1  0.0000000  1.0460000  1
   4541   4540   4546   9134     1  0.0000000  0.0000000  3
   4541   4540   4546   4547     1  0.0000000  0.6508444  3
   4541   4540   4546   4548     1  0.0000000  0.6508444  3
   4542   4540   4546   9134     1  0.0000000  1.0460000  1
   4542   4540   4546   9134     1  0.0000000  0.0000000  3
   4542   4540   4546   4547     1  0.0000000  0.6508444  3
   4542   4540   4546   4548     1  0.0000000  0.6508444  3
   4546   9134   9106   9107     1  0.0000000  1.6038667  3
   4546   9134   9106   9108     1  0.0000000  1.6038667  3
   4547   4546   9134   9106     1  0.0000000  1.6038667  3
   4548   4546   9134   9106     1  0.0000000  1.6038667  3
   4549   9163   9135   9136     1  0.0000000  1.6038667  3
   4549   9163   9135   9137     1  0.0000000  1.6038667  3
   4550   4549   9163   9135     1  0.0000000  1.6038667  3
   4551   4549   9163   9135     1  0.0000000  1.6038667  3
   4553   4554   4566   4567     1  0.0000000  0.6508444  3
   4553   4554   4566   4568     1  0.0000000  0.6508444  3
   4553   4557   4569   4570     1  0.0000000  0.6508444  3
   4553   4557   4569   4571     1  0.0000000  0.6508444  3
   4553   4560   4563   4564     1  0.0000000  0.6508444  3
   4553   4560   4563   4565     1  0.0000000  0.6508444  3
   4554   4553   4557   4558     1  0.0000000  1.2552000  3
   4554   4553   4557   4559     1  0.0000000  1.2552000  3
   4554   4553   4560   4561     1  0.0000000  1.2552000  3
   4554   4553   4560   4562     1  0.0000000  1.2552000  3
   4554   4566   4578   4579     1  0.0000000  0.6508444  3
   4554   4566   4578   4580     1  0.0000000  0.6508444  3
   4555   4554   4553   4557     1  0.0000000  1.2552000  3
   4555   4554   4553   4560     1  0.0000000  1.2552000  3
   4555   4554   4566   4578     1  0.0000000  0.6508444  3
   4555   4554   4566   4567     1  0.0000000  0.6508444  3
   4555   4554   4566   4568     1  0.0000000  0.6508444  3
   4556   4554   4553   4557     1  0.0000000  1.2552000  3
   4556   4554   4553   4560     1  0.0000000  1.2552000  3
   4556   4554   4566   4578     1  0.0000000  0.6508444  3
   4556   4554   4566   4567     1  0.0000000  0.6508444  3
   4556   4554   4566   4568     1  0.0000000  0.6508444  3
   4557   4553   4560   4561     1  0.0000000  1.2552000  3
   4557   4553   4560   4562     1  0.0000000  1.2552000  3
   4557   4569   4575   4576     1  0.0000000  0.6508444  3
   4557   4569   4575   4577     1  0.0000000  0.6508444  3
   4558   4557   4553   4560     1  0.0000000  1.2552000  3
   4558   4557   4569   4575     1  0.0000000  0.6508444  3
   4558   4557   4569   4570     1  0.0000000  0.6508444  3
   4558   4557   4569   4571     1  0.0000000  0.6508444  3
   4559   4557   4553   4560     1  0.0000000  1.2552000  3
   4559   4557   4569   4575     1  0.0000000  0.6508444  3
   4559   4557   4569   4570     1  0.0000000  0.6508444  3
   4559   4557   4569   4571     1  0.0000000  0.6508444  3
   4560   4563   4572   4573     1  0.0000000  0.6508444  3
   4560   4563   4572   4574     1  0.0000000  0.6508444  3
   4561   4560   4563   4572     1  0.0000000  0.6508444  3
   4561   4560   4563   4564     1  0.0000000  0.6508444  3
   4561   4560   4563   4565     1  0.0000000  0.6508444  3
   4562   4560   4563   4572     1  0.0000000  0.6508444  3
   4562   4560   4563   4564     1  0.0000000  0.6508444  3
   4562   4560   4563   4565     1  0.0000000  0.6508444  3
   4564   4563   4572   4581     1  0.0000000  1.0460000  1
   4564   4563   4572   4581     1  0.0000000  0.0000000  3
   4564   4563   4572   4573     1  0.0000000  0.6508444  3
   4564   4563   4572   4574     1  0.0000000  0.6508444  3
   4565   4563   4572   4581     1  0.0000000  1.0460000  1
   4565   4563   4572   4581     1  0.0000000  0.0000000  3
   4565   4563   4572   4573     1  0.0000000  0.6508444  3
   4565   4563   4572   4574     1  0.0000000  0.6508444  3
   4567   4566   4578   9221     1  0.0000000  1.0460000  1
   4567   4566   4578   9221     1  0.0000000  0.0000000  3
   4567   4566   4578   4579     1  0.0000000  0.6508444  3
   4567   4566   4578   4580     1  0.0000000  0.6508444  3
   4568   4566   4578   9221     1  0.0000000  1.0460000  1
   4568   4566   4578   9221     1  0.0000000  0.0000000  3
   4568   4566   4578   4579     1  0.0000000  0.6508444  3
   4568   4566   4578   4580     1  0.0000000  0.6508444  3
   4570   4569   4575   9192     1  0.0000000  1.0460000  1
   4570   4569   4575   9192     1  0.0000000  0.0000000  3
   4570   4569   4575   4576     1  0.0000000  0.6508444  3
   4570   4569   4575   4577     1  0.0000000  0.6508444  3
   4571   4569   4575   9192     1  0.0000000  1.0460000  1
   4571   4569   4575   9192     1  0.0000000  0.0000000  3
   4571   4569   4575   4576     1  0.0000000  0.6508444  3
   4571   4569   4575   4577     1  0.0000000  0.6508444  3
   4575   9192   9164   9165     1  0.0000000  1.6038667  3
   4575   9192   9164   9166     1  0.0000000  1.6038667  3
   4576   4575   9192   9164     1  0.0000000  1.6038667  3
   4577   4575   9192   9164     1  0.0000000  1.6038667  3
   4578   9221   9193   9194     1  0.0000000  1.6038667  3
   4578   9221   9193   9195     1  0.0000000  1.6038667  3
   4579   4578   9221   9193     1  0.0000000  1.6038667  3
   4580   4578   9221   9193     1  0.0000000  1.6038667  3
   4582   4583   4595   4596     1  0.0000000  0.6508444  3
   4582   4583   4595   4597     1  0.0000000  0.6508444  3
   4582   4586   4598   4599     1  0.0000000  0.6508444  3
   4582   4586   4598   4600     1  0.0000000  0.6508444  3
   4582   4589   4592   4593     1  0.0000000  0.6508444  3
   4582   4589   4592   4594     1  0.0000000  0.6508444  3
   4583   4582   4586   4587     1  0.0000000  1.2552000  3
   4583   4582   4586   4588     1  0.0000000  1.2552000  3
   4583   4582   4589   4590     1  0.0000000  1.2552000  3
   4583   4582   4589   4591     1  0.0000000  1.2552000  3
   4583   4595   4607   4608     1  0.0000000  0.6508444  3
   4583   4595   4607   4609     1  0.0000000  0.6508444  3
   4584   4583   4582   4586     1  0.0000000  1.2552000  3
   4584   4583   4582   4589     1  0.0000000  1.2552000  3
   4584   4583   4595   4607     1  0.0000000  0.6508444  3
   4584   4583   4595   4596     1  0.0000000  0.6508444  3
   4584   4583   4595   4597     1  0.0000000  0.6508444  3
   4585   4583   4582   4586     1  0.0000000  1.2552000  3
   4585   4583   4582   4589     1  0.0000000  1.2552000  3
   4585   4583   4595   4607     1  0.0000000  0.6508444  3
   4585   4583   4595   4596     1  0.0000000  0.6508444  3
   4585   4583   4595   4597     1  0.0000000  0.6508444  3
   4586   4582   4589   4590     1  0.0000000  1.2552000  3
   4586   4582   4589   4591     1  0.0000000  1.2552000  3
   4586   4598   4604   4605     1  0.0000000  0.6508444  3
   4586   4598   4604   4606     1  0.0000000  0.6508444  3
   4587   4586   4582   4589     1  0.0000000  1.2552000  3
   4587   4586   4598   4604     1  0.0000000  0.6508444  3
   4587   4586   4598   4599     1  0.0000000  0.6508444  3
   4587   4586   4598   4600     1  0.0000000  0.6508444  3
   4588   4586   4582   4589     1  0.0000000  1.2552000  3
   4588   4586   4598   4604     1  0.0000000  0.6508444  3
   4588   4586   4598   4599     1  0.0000000  0.6508444  3
   4588   4586   4598   4600     1  0.0000000  0.6508444  3
   4589   4592   4601   4602     1  0.0000000  0.6508444  3
   4589   4592   4601   4603     1  0.0000000  0.6508444  3
   4590   4589   4592   4601     1  0.0000000  0.6508444  3
   4590   4589   4592   4593     1  0.0000000  0.6508444  3
   4590   4589   4592   4594     1  0.0000000  0.6508444  3
   4591   4589   4592   4601     1  0.0000000  0.6508444  3
   4591   4589   4592   4593     1  0.0000000  0.6508444  3
   4591   4589   4592   4594     1  0.0000000  0.6508444  3
   4593   4592   4601   4610     1  0.0000000  1.0460000  1
   4593   4592   4601   4610     1  0.0000000  0.0000000  3
   4593   4592   4601   4602     1  0.0000000  0.6508444  3
   4593   4592   4601   4603     1  0.0000000  0.6508444  3
   4594   4592   4601   4610     1  0.0000000  1.0460000  1
   4594   4592   4601   4610     1  0.0000000  0.0000000  3
   4594   4592   4601   4602     1  0.0000000  0.6508444  3
   4594   4592   4601   4603     1  0.0000000  0.6508444  3
   4596   4595   4607   9279     1  0.0000000  1.0460000  1
   4596   4595   4607   9279     1  0.0000000  0.0000000  3
   4596   4595   4607   4608     1  0.0000000  0.6508444  3
   4596   4595   4607   4609     1  0.0000000  0.6508444  3
   4597   4595   4607   9279     1  0.0000000  1.0460000  1
   4597   4595   4607   9279     1  0.0000000  0.0000000  3
   4597   4595   4607   4608     1  0.0000000  0.6508444  3
   4597   4595   4607   4609     1  0.0000000  0.6508444  3
   4599   4598   4604   9250     1  0.0000000  1.0460000  1
   4599   4598   4604   9250     1  0.0000000  0.0000000  3
   4599   4598   4604   4605     1  0.0000000  0.6508444  3
   4599   4598   4604   4606     1  0.0000000  0.6508444  3
   4600   4598   4604   9250     1  0.0000000  1.0460000  1
   4600   4598   4604   9250     1  0.0000000  0.0000000  3
   4600   4598   4604   4605     1  0.0000000  0.6508444  3
   4600   4598   4604   4606     1  0.0000000  0.6508444  3
   4604   9250   9222   9223     1  0.0000000  1.6038667  3
   4604   9250   9222   9224     1  0.0000000  1.6038667  3
   4605   4604   9250   9222     1  0.0000000  1.6038667  3
   4606   4604   9250   9222     1  0.0000000  1.6038667  3
   4607   9279   9251   9252     1  0.0000000  1.6038667  3
   4607   9279   9251   9253     1  0.0000000  1.6038667  3
   4608   4607   9279   9251     1  0.0000000  1.6038667  3
   4609   4607   9279   9251     1  0.0000000  1.6038667  3
   4611   4612   4624   4625     1  0.0000000  0.6508444  3
   4611   4612   4624   4626     1  0.0000000  0.6508444  3
   4611   4615   4627   4628     1  0.0000000  0.6508444  3
   4611   4615   4627   4629     1  0.0000000  0.6508444  3
   4611   4618   4621   4622     1  0.0000000  0.6508444  3
   4611   4618   4621   4623     1  0.0000000  0.6508444  3
   4612   4611   4615   4616     1  0.0000000  1.2552000  3
   4612   4611   4615   4617     1  0.0000000  1.2552000  3
   4612   4611   4618   4619     1  0.0000000  1.2552000  3
   4612   4611   4618   4620     1  0.0000000  1.2552000  3
   4612   4624   4636   4637     1  0.0000000  0.6508444  3
   4612   4624   4636   4638     1  0.0000000  0.6508444  3
   4613   4612   4611   4615     1  0.0000000  1.2552000  3
   4613   4612   4611   4618     1  0.0000000  1.2552000  3
   4613   4612   4624   4636     1  0.0000000  0.6508444  3
   4613   4612   4624   4625     1  0.0000000  0.6508444  3
   4613   4612   4624   4626     1  0.0000000  0.6508444  3
   4614   4612   4611   4615     1  0.0000000  1.2552000  3
   4614   4612   4611   4618     1  0.0000000  1.2552000  3
   4614   4612   4624   4636     1  0.0000000  0.6508444  3
   4614   4612   4624   4625     1  0.0000000  0.6508444  3
   4614   4612   4624   4626     1  0.0000000  0.6508444  3
   4615   4611   4618   4619     1  0.0000000  1.2552000  3
   4615   4611   4618   4620     1  0.0000000  1.2552000  3
   4615   4627   4633   4634     1  0.0000000  0.6508444  3
   4615   4627   4633   4635     1  0.0000000  0.6508444  3
   4616   4615   4611   4618     1  0.0000000  1.2552000  3
   4616   4615   4627   4633     1  0.0000000  0.6508444  3
   4616   4615   4627   4628     1  0.0000000  0.6508444  3
   4616   4615   4627   4629     1  0.0000000  0.6508444  3
   4617   4615   4611   4618     1  0.0000000  1.2552000  3
   4617   4615   4627   4633     1  0.0000000  0.6508444  3
   4617   4615   4627   4628     1  0.0000000  0.6508444  3
   4617   4615   4627   4629     1  0.0000000  0.6508444  3
   4618   4621   4630   4631     1  0.0000000  0.6508444  3
   4618   4621   4630   4632     1  0.0000000  0.6508444  3
   4619   4618   4621   4630     1  0.0000000  0.6508444  3
   4619   4618   4621   4622     1  0.0000000  0.6508444  3
   4619   4618   4621   4623     1  0.0000000  0.6508444  3
   4620   4618   4621   4630     1  0.0000000  0.6508444  3
   4620   4618   4621   4622     1  0.0000000  0.6508444  3
   4620   4618   4621   4623     1  0.0000000  0.6508444  3
   4622   4621   4630   4639     1  0.0000000  1.0460000  1
   4622   4621   4630   4639     1  0.0000000  0.0000000  3
   4622   4621   4630   4631     1  0.0000000  0.6508444  3
   4622   4621   4630   4632     1  0.0000000  0.6508444  3
   4623   4621   4630   4639     1  0.0000000  1.0460000  1
   4623   4621   4630   4639     1  0.0000000  0.0000000  3
   4623   4621   4630   4631     1  0.0000000  0.6508444  3
   4623   4621   4630   4632     1  0.0000000  0.6508444  3
   4625   4624   4636   9337     1  0.0000000  1.0460000  1
   4625   4624   4636   9337     1  0.0000000  0.0000000  3
   4625   4624   4636   4637     1  0.0000000  0.6508444  3
   4625   4624   4636   4638     1  0.0000000  0.6508444  3
   4626   4624   4636   9337     1  0.0000000  1.0460000  1
   4626   4624   4636   9337     1  0.0000000  0.0000000  3
   4626   4624   4636   4637     1  0.0000000  0.6508444  3
   4626   4624   4636   4638     1  0.0000000  0.6508444  3
   4628   4627   4633   9308     1  0.0000000  1.0460000  1
   4628   4627   4633   9308     1  0.0000000  0.0000000  3
   4628   4627   4633   4634     1  0.0000000  0.6508444  3
   4628   4627   4633   4635     1  0.0000000  0.6508444  3
   4629   4627   4633   9308     1  0.0000000  1.0460000  1
   4629   4627   4633   9308     1  0.0000000  0.0000000  3
   4629   4627   4633   4634     1  0.0000000  0.6508444  3
   4629   4627   4633   4635     1  0.0000000  0.6508444  3
   4633   9308   9280   9281     1  0.0000000  1.6038667  3
   4633   9308   9280   9282     1  0.0000000  1.6038667  3
   4634   4633   9308   9280     1  0.0000000  1.6038667  3
   4635   4633   9308   9280     1  0.0000000  1.6038667  3
   4636   9337   9309   9310     1  0.0000000  1.6038667  3
   4636   9337   9309   9311     1  0.0000000  1.6038667  3
   4637   4636   9337   9309     1  0.0000000  1.6038667  3
   4638   4636   9337   9309     1  0.0000000  1.6038667  3
   4640   4641   4653   4654     1  0.0000000  0.6508444  3
   4640   4641   4653   4655     1  0.0000000  0.6508444  3
   4640   4644   4656   4657     1  0.0000000  0.6508444  3
   4640   4644   4656   4658     1  0.0000000  0.6508444  3
   4640   4647   4650   4651     1  0.0000000  0.6508444  3
   4640   4647   4650   4652     1  0.0000000  0.6508444  3
   4641   4640   4644   4645     1  0.0000000  1.2552000  3
   4641   4640   4644   4646     1  0.0000000  1.2552000  3
   4641   4640   4647   4648     1  0.0000000  1.2552000  3
   4641   4640   4647   4649     1  0.0000000  1.2552000  3
   4641   4653   4665   4666     1  0.0000000  0.6508444  3
   4641   4653   4665   4667     1  0.0000000  0.6508444  3
   4642   4641   4640   4644     1  0.0000000  1.2552000  3
   4642   4641   4640   4647     1  0.0000000  1.2552000  3
   4642   4641   4653   4665     1  0.0000000  0.6508444  3
   4642   4641   4653   4654     1  0.0000000  0.6508444  3
   4642   4641   4653   4655     1  0.0000000  0.6508444  3
   4643   4641   4640   4644     1  0.0000000  1.2552000  3
   4643   4641   4640   4647     1  0.0000000  1.2552000  3
   4643   4641   4653   4665     1  0.0000000  0.6508444  3
   4643   4641   4653   4654     1  0.0000000  0.6508444  3
   4643   4641   4653   4655     1  0.0000000  0.6508444  3
   4644   4640   4647   4648     1  0.0000000  1.2552000  3
   4644   4640   4647   4649     1  0.0000000  1.2552000  3
   4644   4656   4662   4663     1  0.0000000  0.6508444  3
   4644   4656   4662   4664     1  0.0000000  0.6508444  3
   4645   4644   4640   4647     1  0.0000000  1.2552000  3
   4645   4644   4656   4662     1  0.0000000  0.6508444  3
   4645   4644   4656   4657     1  0.0000000  0.6508444  3
   4645   4644   4656   4658     1  0.0000000  0.6508444  3
   4646   4644   4640   4647     1  0.0000000  1.2552000  3
   4646   4644   4656   4662     1  0.0000000  0.6508444  3
   4646   4644   4656   4657     1  0.0000000  0.6508444  3
   4646   4644   4656   4658     1  0.0000000  0.6508444  3
   4647   4650   4659   4660     1  0.0000000  0.6508444  3
   4647   4650   4659   4661     1  0.0000000  0.6508444  3
   4648   4647   4650   4659     1  0.0000000  0.6508444  3
   4648   4647   4650   4651     1  0.0000000  0.6508444  3
   4648   4647   4650   4652     1  0.0000000  0.6508444  3
   4649   4647   4650   4659     1  0.0000000  0.6508444  3
   4649   4647   4650   4651     1  0.0000000  0.6508444  3
   4649   4647   4650   4652     1  0.0000000  0.6508444  3
   4651   4650   4659   4668     1  0.0000000  1.0460000  1
   4651   4650   4659   4668     1  0.0000000  0.0000000  3
   4651   4650   4659   4660     1  0.0000000  0.6508444  3
   4651   4650   4659   4661     1  0.0000000  0.6508444  3
   4652   4650   4659   4668     1  0.0000000  1.0460000  1
   4652   4650   4659   4668     1  0.0000000  0.0000000  3
   4652   4650   4659   4660     1  0.0000000  0.6508444  3
   4652   4650   4659   4661     1  0.0000000  0.6508444  3
   4654   4653   4665   9395     1  0.0000000  1.0460000  1
   4654   4653   4665   9395     1  0.0000000  0.0000000  3
   4654   4653   4665   4666     1  0.0000000  0.6508444  3
   4654   4653   4665   4667     1  0.0000000  0.6508444  3
   4655   4653   4665   9395     1  0.0000000  1.0460000  1
   4655   4653   4665   9395     1  0.0000000  0.0000000  3
   4655   4653   4665   4666     1  0.0000000  0.6508444  3
   4655   4653   4665   4667     1  0.0000000  0.6508444  3
   4657   4656   4662   9366     1  0.0000000  1.0460000  1
   4657   4656   4662   9366     1  0.0000000  0.0000000  3
   4657   4656   4662   4663     1  0.0000000  0.6508444  3
   4657   4656   4662   4664     1  0.0000000  0.6508444  3
   4658   4656   4662   9366     1  0.0000000  1.0460000  1
   4658   4656   4662   9366     1  0.0000000  0.0000000  3
   4658   4656   4662   4663     1  0.0000000  0.6508444  3
   4658   4656   4662   4664     1  0.0000000  0.6508444  3
   4662   9366   9338   9339     1  0.0000000  1.6038667  3
   4662   9366   9338   9340     1  0.0000000  1.6038667  3
   4663   4662   9366   9338     1  0.0000000  1.6038667  3
   4664   4662   9366   9338     1  0.0000000  1.6038667  3
   4665   9395   9367   9368     1  0.0000000  1.6038667  3
   4665   9395   9367   9369     1  0.0000000  1.6038667  3
   4666   4665   9395   9367     1  0.0000000  1.6038667  3
   4667   4665   9395   9367     1  0.0000000  1.6038667  3
   4669   4670   4682   4683     1  0.0000000  0.6508444  3
   4669   4670   4682   4684     1  0.0000000  0.6508444  3
   4669   4673   4685   4686     1  0.0000000  0.6508444  3
   4669   4673   4685   4687     1  0.0000000  0.6508444  3
   4669   4676   4679   4680     1  0.0000000  0.6508444  3
   4669   4676   4679   4681     1  0.0000000  0.6508444  3
   4670   4669   4673   4674     1  0.0000000  1.2552000  3
   4670   4669   4673   4675     1  0.0000000  1.2552000  3
   4670   4669   4676   4677     1  0.0000000  1.2552000  3
   4670   4669   4676   4678     1  0.0000000  1.2552000  3
   4670   4682   4694   4695     1  0.0000000  0.6508444  3
   4670   4682   4694   4696     1  0.0000000  0.6508444  3
   4671   4670   4669   4673     1  0.0000000  1.2552000  3
   4671   4670   4669   4676     1  0.0000000  1.2552000  3
   4671   4670   4682   4694     1  0.0000000  0.6508444  3
   4671   4670   4682   4683     1  0.0000000  0.6508444  3
   4671   4670   4682   4684     1  0.0000000  0.6508444  3
   4672   4670   4669   4673     1  0.0000000  1.2552000  3
   4672   4670   4669   4676     1  0.0000000  1.2552000  3
   4672   4670   4682   4694     1  0.0000000  0.6508444  3
   4672   4670   4682   4683     1  0.0000000  0.6508444  3
   4672   4670   4682   4684     1  0.0000000  0.6508444  3
   4673   4669   4676   4677     1  0.0000000  1.2552000  3
   4673   4669   4676   4678     1  0.0000000  1.2552000  3
   4673   4685   4691   4692     1  0.0000000  0.6508444  3
   4673   4685   4691   4693     1  0.0000000  0.6508444  3
   4674   4673   4669   4676     1  0.0000000  1.2552000  3
   4674   4673   4685   4691     1  0.0000000  0.6508444  3
   4674   4673   4685   4686     1  0.0000000  0.6508444  3
   4674   4673   4685   4687     1  0.0000000  0.6508444  3
   4675   4673   4669   4676     1  0.0000000  1.2552000  3
   4675   4673   4685   4691     1  0.0000000  0.6508444  3
   4675   4673   4685   4686     1  0.0000000  0.6508444  3
   4675   4673   4685   4687     1  0.0000000  0.6508444  3
   4676   4679   4688   4689     1  0.0000000  0.6508444  3
   4676   4679   4688   4690     1  0.0000000  0.6508444  3
   4677   4676   4679   4688     1  0.0000000  0.6508444  3
   4677   4676   4679   4680     1  0.0000000  0.6508444  3
   4677   4676   4679   4681     1  0.0000000  0.6508444  3
   4678   4676   4679   4688     1  0.0000000  0.6508444  3
   4678   4676   4679   4680     1  0.0000000  0.6508444  3
   4678   4676   4679   4681     1  0.0000000  0.6508444  3
   4680   4679   4688   4697     1  0.0000000  1.0460000  1
   4680   4679   4688   4697     1  0.0000000  0.0000000  3
   4680   4679   4688   4689     1  0.0000000  0.6508444  3
   4680   4679   4688   4690     1  0.0000000  0.6508444  3
   4681   4679   4688   4697     1  0.0000000  1.0460000  1
   4681   4679   4688   4697     1  0.0000000  0.0000000  3
   4681   4679   4688   4689     1  0.0000000  0.6508444  3
   4681   4679   4688   4690     1  0.0000000  0.6508444  3
   4683   4682   4694   9453     1  0.0000000  1.0460000  1
   4683   4682   4694   9453     1  0.0000000  0.0000000  3
   4683   4682   4694   4695     1  0.0000000  0.6508444  3
   4683   4682   4694   4696     1  0.0000000  0.6508444  3
   4684   4682   4694   9453     1  0.0000000  1.0460000  1
   4684   4682   4694   9453     1  0.0000000  0.0000000  3
   4684   4682   4694   4695     1  0.0000000  0.6508444  3
   4684   4682   4694   4696     1  0.0000000  0.6508444  3
   4686   4685   4691   9424     1  0.0000000  1.0460000  1
   4686   4685   4691   9424     1  0.0000000  0.0000000  3
   4686   4685   4691   4692     1  0.0000000  0.6508444  3
   4686   4685   4691   4693     1  0.0000000  0.6508444  3
   4687   4685   4691   9424     1  0.0000000  1.0460000  1
   4687   4685   4691   9424     1  0.0000000  0.0000000  3
   4687   4685   4691   4692     1  0.0000000  0.6508444  3
   4687   4685   4691   4693     1  0.0000000  0.6508444  3
   4691   9424   9396   9397     1  0.0000000  1.6038667  3
   4691   9424   9396   9398     1  0.0000000  1.6038667  3
   4692   4691   9424   9396     1  0.0000000  1.6038667  3
   4693   4691   9424   9396     1  0.0000000  1.6038667  3
   4694   9453   9425   9426     1  0.0000000  1.6038667  3
   4694   9453   9425   9427     1  0.0000000  1.6038667  3
   4695   4694   9453   9425     1  0.0000000  1.6038667  3
   4696   4694   9453   9425     1  0.0000000  1.6038667  3
   4698   4699   4711   4712     1  0.0000000  0.6508444  3
   4698   4699   4711   4713     1  0.0000000  0.6508444  3
   4698   4702   4714   4715     1  0.0000000  0.6508444  3
   4698   4702   4714   4716     1  0.0000000  0.6508444  3
   4698   4705   4708   4709     1  0.0000000  0.6508444  3
   4698   4705   4708   4710     1  0.0000000  0.6508444  3
   4699   4698   4702   4703     1  0.0000000  1.2552000  3
   4699   4698   4702   4704     1  0.0000000  1.2552000  3
   4699   4698   4705   4706     1  0.0000000  1.2552000  3
   4699   4698   4705   4707     1  0.0000000  1.2552000  3
   4699   4711   4723   4724     1  0.0000000  0.6508444  3
   4699   4711   4723   4725     1  0.0000000  0.6508444  3
   4700   4699   4698   4702     1  0.0000000  1.2552000  3
   4700   4699   4698   4705     1  0.0000000  1.2552000  3
   4700   4699   4711   4723     1  0.0000000  0.6508444  3
   4700   4699   4711   4712     1  0.0000000  0.6508444  3
   4700   4699   4711   4713     1  0.0000000  0.6508444  3
   4701   4699   4698   4702     1  0.0000000  1.2552000  3
   4701   4699   4698   4705     1  0.0000000  1.2552000  3
   4701   4699   4711   4723     1  0.0000000  0.6508444  3
   4701   4699   4711   4712     1  0.0000000  0.6508444  3
   4701   4699   4711   4713     1  0.0000000  0.6508444  3
   4702   4698   4705   4706     1  0.0000000  1.2552000  3
   4702   4698   4705   4707     1  0.0000000  1.2552000  3
   4702   4714   4720   4721     1  0.0000000  0.6508444  3
   4702   4714   4720   4722     1  0.0000000  0.6508444  3
   4703   4702   4698   4705     1  0.0000000  1.2552000  3
   4703   4702   4714   4720     1  0.0000000  0.6508444  3
   4703   4702   4714   4715     1  0.0000000  0.6508444  3
   4703   4702   4714   4716     1  0.0000000  0.6508444  3
   4704   4702   4698   4705     1  0.0000000  1.2552000  3
   4704   4702   4714   4720     1  0.0000000  0.6508444  3
   4704   4702   4714   4715     1  0.0000000  0.6508444  3
   4704   4702   4714   4716     1  0.0000000  0.6508444  3
   4705   4708   4717   4718     1  0.0000000  0.6508444  3
   4705   4708   4717   4719     1  0.0000000  0.6508444  3
   4706   4705   4708   4717     1  0.0000000  0.6508444  3
   4706   4705   4708   4709     1  0.0000000  0.6508444  3
   4706   4705   4708   4710     1  0.0000000  0.6508444  3
   4707   4705   4708   4717     1  0.0000000  0.6508444  3
   4707   4705   4708   4709     1  0.0000000  0.6508444  3
   4707   4705   4708   4710     1  0.0000000  0.6508444  3
   4709   4708   4717   4726     1  0.0000000  1.0460000  1
   4709   4708   4717   4726     1  0.0000000  0.0000000  3
   4709   4708   4717   4718     1  0.0000000  0.6508444  3
   4709   4708   4717   4719     1  0.0000000  0.6508444  3
   4710   4708   4717   4726     1  0.0000000  1.0460000  1
   4710   4708   4717   4726     1  0.0000000  0.0000000  3
   4710   4708   4717   4718     1  0.0000000  0.6508444  3
   4710   4708   4717   4719     1  0.0000000  0.6508444  3
   4712   4711   4723   9511     1  0.0000000  1.0460000  1
   4712   4711   4723   9511     1  0.0000000  0.0000000  3
   4712   4711   4723   4724     1  0.0000000  0.6508444  3
   4712   4711   4723   4725     1  0.0000000  0.6508444  3
   4713   4711   4723   9511     1  0.0000000  1.0460000  1
   4713   4711   4723   9511     1  0.0000000  0.0000000  3
   4713   4711   4723   4724     1  0.0000000  0.6508444  3
   4713   4711   4723   4725     1  0.0000000  0.6508444  3
   4715   4714   4720   9482     1  0.0000000  1.0460000  1
   4715   4714   4720   9482     1  0.0000000  0.0000000  3
   4715   4714   4720   4721     1  0.0000000  0.6508444  3
   4715   4714   4720   4722     1  0.0000000  0.6508444  3
   4716   4714   4720   9482     1  0.0000000  1.0460000  1
   4716   4714   4720   9482     1  0.0000000  0.0000000  3
   4716   4714   4720   4721     1  0.0000000  0.6508444  3
   4716   4714   4720   4722     1  0.0000000  0.6508444  3
   4720   9482   9454   9455     1  0.0000000  1.6038667  3
   4720   9482   9454   9456     1  0.0000000  1.6038667  3
   4721   4720   9482   9454     1  0.0000000  1.6038667  3
   4722   4720   9482   9454     1  0.0000000  1.6038667  3
   4723   9511   9483   9484     1  0.0000000  1.6038667  3
   4723   9511   9483   9485     1  0.0000000  1.6038667  3
   4724   4723   9511   9483     1  0.0000000  1.6038667  3
   4725   4723   9511   9483     1  0.0000000  1.6038667  3
   4727   4728   4740   4741     1  0.0000000  0.6508444  3
   4727   4728   4740   4742     1  0.0000000  0.6508444  3
   4727   4731   4743   4744     1  0.0000000  0.6508444  3
   4727   4731   4743   4745     1  0.0000000  0.6508444  3
   4727   4734   4737   4738     1  0.0000000  0.6508444  3
   4727   4734   4737   4739     1  0.0000000  0.6508444  3
   4728   4727   4731   4732     1  0.0000000  1.2552000  3
   4728   4727   4731   4733     1  0.0000000  1.2552000  3
   4728   4727   4734   4735     1  0.0000000  1.2552000  3
   4728   4727   4734   4736     1  0.0000000  1.2552000  3
   4728   4740   4752   4753     1  0.0000000  0.6508444  3
   4728   4740   4752   4754     1  0.0000000  0.6508444  3
   4729   4728   4727   4731     1  0.0000000  1.2552000  3
   4729   4728   4727   4734     1  0.0000000  1.2552000  3
   4729   4728   4740   4752     1  0.0000000  0.6508444  3
   4729   4728   4740   4741     1  0.0000000  0.6508444  3
   4729   4728   4740   4742     1  0.0000000  0.6508444  3
   4730   4728   4727   4731     1  0.0000000  1.2552000  3
   4730   4728   4727   4734     1  0.0000000  1.2552000  3
   4730   4728   4740   4752     1  0.0000000  0.6508444  3
   4730   4728   4740   4741     1  0.0000000  0.6508444  3
   4730   4728   4740   4742     1  0.0000000  0.6508444  3
   4731   4727   4734   4735     1  0.0000000  1.2552000  3
   4731   4727   4734   4736     1  0.0000000  1.2552000  3
   4731   4743   4749   4750     1  0.0000000  0.6508444  3
   4731   4743   4749   4751     1  0.0000000  0.6508444  3
   4732   4731   4727   4734     1  0.0000000  1.2552000  3
   4732   4731   4743   4749     1  0.0000000  0.6508444  3
   4732   4731   4743   4744     1  0.0000000  0.6508444  3
   4732   4731   4743   4745     1  0.0000000  0.6508444  3
   4733   4731   4727   4734     1  0.0000000  1.2552000  3
   4733   4731   4743   4749     1  0.0000000  0.6508444  3
   4733   4731   4743   4744     1  0.0000000  0.6508444  3
   4733   4731   4743   4745     1  0.0000000  0.6508444  3
   4734   4737   4746   4747     1  0.0000000  0.6508444  3
   4734   4737   4746   4748     1  0.0000000  0.6508444  3
   4735   4734   4737   4746     1  0.0000000  0.6508444  3
   4735   4734   4737   4738     1  0.0000000  0.6508444  3
   4735   4734   4737   4739     1  0.0000000  0.6508444  3
   4736   4734   4737   4746     1  0.0000000  0.6508444  3
   4736   4734   4737   4738     1  0.0000000  0.6508444  3
   4736   4734   4737   4739     1  0.0000000  0.6508444  3
   4738   4737   4746   4755     1  0.0000000  1.0460000  1
   4738   4737   4746   4755     1  0.0000000  0.0000000  3
   4738   4737   4746   4747     1  0.0000000  0.6508444  3
   4738   4737   4746   4748     1  0.0000000  0.6508444  3
   4739   4737   4746   4755     1  0.0000000  1.0460000  1
   4739   4737   4746   4755     1  0.0000000  0.0000000  3
   4739   4737   4746   4747     1  0.0000000  0.6508444  3
   4739   4737   4746   4748     1  0.0000000  0.6508444  3
   4741   4740   4752   9569     1  0.0000000  1.0460000  1
   4741   4740   4752   9569     1  0.0000000  0.0000000  3
   4741   4740   4752   4753     1  0.0000000  0.6508444  3
   4741   4740   4752   4754     1  0.0000000  0.6508444  3
   4742   4740   4752   9569     1  0.0000000  1.0460000  1
   4742   4740   4752   9569     1  0.0000000  0.0000000  3
   4742   4740   4752   4753     1  0.0000000  0.6508444  3
   4742   4740   4752   4754     1  0.0000000  0.6508444  3
   4744   4743   4749   9540     1  0.0000000  1.0460000  1
   4744   4743   4749   9540     1  0.0000000  0.0000000  3
   4744   4743   4749   4750     1  0.0000000  0.6508444  3
   4744   4743   4749   4751     1  0.0000000  0.6508444  3
   4745   4743   4749   9540     1  0.0000000  1.0460000  1
   4745   4743   4749   9540     1  0.0000000  0.0000000  3
   4745   4743   4749   4750     1  0.0000000  0.6508444  3
   4745   4743   4749   4751     1  0.0000000  0.6508444  3
   4749   9540   9512   9513     1  0.0000000  1.6038667  3
   4749   9540   9512   9514     1  0.0000000  1.6038667  3
   4750   4749   9540   9512     1  0.0000000  1.6038667  3
   4751   4749   9540   9512     1  0.0000000  1.6038667  3
   4752   9569   9541   9542     1  0.0000000  1.6038667  3
   4752   9569   9541   9543     1  0.0000000  1.6038667  3
   4753   4752   9569   9541     1  0.0000000  1.6038667  3
   4754   4752   9569   9541     1  0.0000000  1.6038667  3
   4756   4757   4769   4770     1  0.0000000  0.6508444  3
   4756   4757   4769   4771     1  0.0000000  0.6508444  3
   4756   4760   4772   4773     1  0.0000000  0.6508444  3
   4756   4760   4772   4774     1  0.0000000  0.6508444  3
   4756   4763   4766   4767     1  0.0000000  0.6508444  3
   4756   4763   4766   4768     1  0.0000000  0.6508444  3
   4757   4756   4760   4761     1  0.0000000  1.2552000  3
   4757   4756   4760   4762     1  0.0000000  1.2552000  3
   4757   4756   4763   4764     1  0.0000000  1.2552000  3
   4757   4756   4763   4765     1  0.0000000  1.2552000  3
   4757   4769   4781   4782     1  0.0000000  0.6508444  3
   4757   4769   4781   4783     1  0.0000000  0.6508444  3
   4758   4757   4756   4760     1  0.0000000  1.2552000  3
   4758   4757   4756   4763     1  0.0000000  1.2552000  3
   4758   4757   4769   4781     1  0.0000000  0.6508444  3
   4758   4757   4769   4770     1  0.0000000  0.6508444  3
   4758   4757   4769   4771     1  0.0000000  0.6508444  3
   4759   4757   4756   4760     1  0.0000000  1.2552000  3
   4759   4757   4756   4763     1  0.0000000  1.2552000  3
   4759   4757   4769   4781     1  0.0000000  0.6508444  3
   4759   4757   4769   4770     1  0.0000000  0.6508444  3
   4759   4757   4769   4771     1  0.0000000  0.6508444  3
   4760   4756   4763   4764     1  0.0000000  1.2552000  3
   4760   4756   4763   4765     1  0.0000000  1.2552000  3
   4760   4772   4778   4779     1  0.0000000  0.6508444  3
   4760   4772   4778   4780     1  0.0000000  0.6508444  3
   4761   4760   4756   4763     1  0.0000000  1.2552000  3
   4761   4760   4772   4778     1  0.0000000  0.6508444  3
   4761   4760   4772   4773     1  0.0000000  0.6508444  3
   4761   4760   4772   4774     1  0.0000000  0.6508444  3
   4762   4760   4756   4763     1  0.0000000  1.2552000  3
   4762   4760   4772   4778     1  0.0000000  0.6508444  3
   4762   4760   4772   4773     1  0.0000000  0.6508444  3
   4762   4760   4772   4774     1  0.0000000  0.6508444  3
   4763   4766   4775   4776     1  0.0000000  0.6508444  3
   4763   4766   4775   4777     1  0.0000000  0.6508444  3
   4764   4763   4766   4775     1  0.0000000  0.6508444  3
   4764   4763   4766   4767     1  0.0000000  0.6508444  3
   4764   4763   4766   4768     1  0.0000000  0.6508444  3
   4765   4763   4766   4775     1  0.0000000  0.6508444  3
   4765   4763   4766   4767     1  0.0000000  0.6508444  3
   4765   4763   4766   4768     1  0.0000000  0.6508444  3
   4767   4766   4775   4784     1  0.0000000  1.0460000  1
   4767   4766   4775   4784     1  0.0000000  0.0000000  3
   4767   4766   4775   4776     1  0.0000000  0.6508444  3
   4767   4766   4775   4777     1  0.0000000  0.6508444  3
   4768   4766   4775   4784     1  0.0000000  1.0460000  1
   4768   4766   4775   4784     1  0.0000000  0.0000000  3
   4768   4766   4775   4776     1  0.0000000  0.6508444  3
   4768   4766   4775   4777     1  0.0000000  0.6508444  3
   4770   4769   4781   9627     1  0.0000000  1.0460000  1
   4770   4769   4781   9627     1  0.0000000  0.0000000  3
   4770   4769   4781   4782     1  0.0000000  0.6508444  3
   4770   4769   4781   4783     1  0.0000000  0.6508444  3
   4771   4769   4781   9627     1  0.0000000  1.0460000  1
   4771   4769   4781   9627     1  0.0000000  0.0000000  3
   4771   4769   4781   4782     1  0.0000000  0.6508444  3
   4771   4769   4781   4783     1  0.0000000  0.6508444  3
   4773   4772   4778   9598     1  0.0000000  1.0460000  1
   4773   4772   4778   9598     1  0.0000000  0.0000000  3
   4773   4772   4778   4779     1  0.0000000  0.6508444  3
   4773   4772   4778   4780     1  0.0000000  0.6508444  3
   4774   4772   4778   9598     1  0.0000000  1.0460000  1
   4774   4772   4778   9598     1  0.0000000  0.0000000  3
   4774   4772   4778   4779     1  0.0000000  0.6508444  3
   4774   4772   4778   4780     1  0.0000000  0.6508444  3
   4778   9598   9570   9571     1  0.0000000  1.6038667  3
   4778   9598   9570   9572     1  0.0000000  1.6038667  3
   4779   4778   9598   9570     1  0.0000000  1.6038667  3
   4780   4778   9598   9570     1  0.0000000  1.6038667  3
   4781   9627   9599   9600     1  0.0000000  1.6038667  3
   4781   9627   9599   9601     1  0.0000000  1.6038667  3
   4782   4781   9627   9599     1  0.0000000  1.6038667  3
   4783   4781   9627   9599     1  0.0000000  1.6038667  3
   4785   4786   4798   4799     1  0.0000000  0.6508444  3
   4785   4786   4798   4800     1  0.0000000  0.6508444  3
   4785   4789   4801   4802     1  0.0000000  0.6508444  3
   4785   4789   4801   4803     1  0.0000000  0.6508444  3
   4785   4792   4795   4796     1  0.0000000  0.6508444  3
   4785   4792   4795   4797     1  0.0000000  0.6508444  3
   4786   4785   4789   4790     1  0.0000000  1.2552000  3
   4786   4785   4789   4791     1  0.0000000  1.2552000  3
   4786   4785   4792   4793     1  0.0000000  1.2552000  3
   4786   4785   4792   4794     1  0.0000000  1.2552000  3
   4786   4798   4810   4811     1  0.0000000  0.6508444  3
   4786   4798   4810   4812     1  0.0000000  0.6508444  3
   4787   4786   4785   4789     1  0.0000000  1.2552000  3
   4787   4786   4785   4792     1  0.0000000  1.2552000  3
   4787   4786   4798   4810     1  0.0000000  0.6508444  3
   4787   4786   4798   4799     1  0.0000000  0.6508444  3
   4787   4786   4798   4800     1  0.0000000  0.6508444  3
   4788   4786   4785   4789     1  0.0000000  1.2552000  3
   4788   4786   4785   4792     1  0.0000000  1.2552000  3
   4788   4786   4798   4810     1  0.0000000  0.6508444  3
   4788   4786   4798   4799     1  0.0000000  0.6508444  3
   4788   4786   4798   4800     1  0.0000000  0.6508444  3
   4789   4785   4792   4793     1  0.0000000  1.2552000  3
   4789   4785   4792   4794     1  0.0000000  1.2552000  3
   4789   4801   4807   4808     1  0.0000000  0.6508444  3
   4789   4801   4807   4809     1  0.0000000  0.6508444  3
   4790   4789   4785   4792     1  0.0000000  1.2552000  3
   4790   4789   4801   4807     1  0.0000000  0.6508444  3
   4790   4789   4801   4802     1  0.0000000  0.6508444  3
   4790   4789   4801   4803     1  0.0000000  0.6508444  3
   4791   4789   4785   4792     1  0.0000000  1.2552000  3
   4791   4789   4801   4807     1  0.0000000  0.6508444  3
   4791   4789   4801   4802     1  0.0000000  0.6508444  3
   4791   4789   4801   4803     1  0.0000000  0.6508444  3
   4792   4795   4804   4805     1  0.0000000  0.6508444  3
   4792   4795   4804   4806     1  0.0000000  0.6508444  3
   4793   4792   4795   4804     1  0.0000000  0.6508444  3
   4793   4792   4795   4796     1  0.0000000  0.6508444  3
   4793   4792   4795   4797     1  0.0000000  0.6508444  3
   4794   4792   4795   4804     1  0.0000000  0.6508444  3
   4794   4792   4795   4796     1  0.0000000  0.6508444  3
   4794   4792   4795   4797     1  0.0000000  0.6508444  3
   4796   4795   4804   4813     1  0.0000000  1.0460000  1
   4796   4795   4804   4813     1  0.0000000  0.0000000  3
   4796   4795   4804   4805     1  0.0000000  0.6508444  3
   4796   4795   4804   4806     1  0.0000000  0.6508444  3
   4797   4795   4804   4813     1  0.0000000  1.0460000  1
   4797   4795   4804   4813     1  0.0000000  0.0000000  3
   4797   4795   4804   4805     1  0.0000000  0.6508444  3
   4797   4795   4804   4806     1  0.0000000  0.6508444  3
   4799   4798   4810   9685     1  0.0000000  1.0460000  1
   4799   4798   4810   9685     1  0.0000000  0.0000000  3
   4799   4798   4810   4811     1  0.0000000  0.6508444  3
   4799   4798   4810   4812     1  0.0000000  0.6508444  3
   4800   4798   4810   9685     1  0.0000000  1.0460000  1
   4800   4798   4810   9685     1  0.0000000  0.0000000  3
   4800   4798   4810   4811     1  0.0000000  0.6508444  3
   4800   4798   4810   4812     1  0.0000000  0.6508444  3
   4802   4801   4807   9656     1  0.0000000  1.0460000  1
   4802   4801   4807   9656     1  0.0000000  0.0000000  3
   4802   4801   4807   4808     1  0.0000000  0.6508444  3
   4802   4801   4807   4809     1  0.0000000  0.6508444  3
   4803   4801   4807   9656     1  0.0000000  1.0460000  1
   4803   4801   4807   9656     1  0.0000000  0.0000000  3
   4803   4801   4807   4808     1  0.0000000  0.6508444  3
   4803   4801   4807   4809     1  0.0000000  0.6508444  3
   4807   9656   9628   9629     1  0.0000000  1.6038667  3
   4807   9656   9628   9630     1  0.0000000  1.6038667  3
   4808   4807   9656   9628     1  0.0000000  1.6038667  3
   4809   4807   9656   9628     1  0.0000000  1.6038667  3
   4810   9685   9657   9658     1  0.0000000  1.6038667  3
   4810   9685   9657   9659     1  0.0000000  1.6038667  3
   4811   4810   9685   9657     1  0.0000000  1.6038667  3
   4812   4810   9685   9657     1  0.0000000  1.6038667  3
   4814   4815   4827   4828     1  0.0000000  0.6508444  3
   4814   4815   4827   4829     1  0.0000000  0.6508444  3
   4814   4818   4830   4831     1  0.0000000  0.6508444  3
   4814   4818   4830   4832     1  0.0000000  0.6508444  3
   4814   4821   4824   4825     1  0.0000000  0.6508444  3
   4814   4821   4824   4826     1  0.0000000  0.6508444  3
   4815   4814   4818   4819     1  0.0000000  1.2552000  3
   4815   4814   4818   4820     1  0.0000000  1.2552000  3
   4815   4814   4821   4822     1  0.0000000  1.2552000  3
   4815   4814   4821   4823     1  0.0000000  1.2552000  3
   4815   4827   4839   4840     1  0.0000000  0.6508444  3
   4815   4827   4839   4841     1  0.0000000  0.6508444  3
   4816   4815   4814   4818     1  0.0000000  1.2552000  3
   4816   4815   4814   4821     1  0.0000000  1.2552000  3
   4816   4815   4827   4839     1  0.0000000  0.6508444  3
   4816   4815   4827   4828     1  0.0000000  0.6508444  3
   4816   4815   4827   4829     1  0.0000000  0.6508444  3
   4817   4815   4814   4818     1  0.0000000  1.2552000  3
   4817   4815   4814   4821     1  0.0000000  1.2552000  3
   4817   4815   4827   4839     1  0.0000000  0.6508444  3
   4817   4815   4827   4828     1  0.0000000  0.6508444  3
   4817   4815   4827   4829     1  0.0000000  0.6508444  3
   4818   4814   4821   4822     1  0.0000000  1.2552000  3
   4818   4814   4821   4823     1  0.0000000  1.2552000  3
   4818   4830   4836   4837     1  0.0000000  0.6508444  3
   4818   4830   4836   4838     1  0.0000000  0.6508444  3
   4819   4818   4814   4821     1  0.0000000  1.2552000  3
   4819   4818   4830   4836     1  0.0000000  0.6508444  3
   4819   4818   4830   4831     1  0.0000000  0.6508444  3
   4819   4818   4830   4832     1  0.0000000  0.6508444  3
   4820   4818   4814   4821     1  0.0000000  1.2552000  3
   4820   4818   4830   4836     1  0.0000000  0.6508444  3
   4820   4818   4830   4831     1  0.0000000  0.6508444  3
   4820   4818   4830   4832     1  0.0000000  0.6508444  3
   4821   4824   4833   4834     1  0.0000000  0.6508444  3
   4821   4824   4833   4835     1  0.0000000  0.6508444  3
   4822   4821   4824   4833     1  0.0000000  0.6508444  3
   4822   4821   4824   4825     1  0.0000000  0.6508444  3
   4822   4821   4824   4826     1  0.0000000  0.6508444  3
   4823   4821   4824   4833     1  0.0000000  0.6508444  3
   4823   4821   4824   4825     1  0.0000000  0.6508444  3
   4823   4821   4824   4826     1  0.0000000  0.6508444  3
   4825   4824   4833   4842     1  0.0000000  1.0460000  1
   4825   4824   4833   4842     1  0.0000000  0.0000000  3
   4825   4824   4833   4834     1  0.0000000  0.6508444  3
   4825   4824   4833   4835     1  0.0000000  0.6508444  3
   4826   4824   4833   4842     1  0.0000000  1.0460000  1
   4826   4824   4833   4842     1  0.0000000  0.0000000  3
   4826   4824   4833   4834     1  0.0000000  0.6508444  3
   4826   4824   4833   4835     1  0.0000000  0.6508444  3
   4828   4827   4839   9743     1  0.0000000  1.0460000  1
   4828   4827   4839   9743     1  0.0000000  0.0000000  3
   4828   4827   4839   4840     1  0.0000000  0.6508444  3
   4828   4827   4839   4841     1  0.0000000  0.6508444  3
   4829   4827   4839   9743     1  0.0000000  1.0460000  1
   4829   4827   4839   9743     1  0.0000000  0.0000000  3
   4829   4827   4839   4840     1  0.0000000  0.6508444  3
   4829   4827   4839   4841     1  0.0000000  0.6508444  3
   4831   4830   4836   9714     1  0.0000000  1.0460000  1
   4831   4830   4836   9714     1  0.0000000  0.0000000  3
   4831   4830   4836   4837     1  0.0000000  0.6508444  3
   4831   4830   4836   4838     1  0.0000000  0.6508444  3
   4832   4830   4836   9714     1  0.0000000  1.0460000  1
   4832   4830   4836   9714     1  0.0000000  0.0000000  3
   4832   4830   4836   4837     1  0.0000000  0.6508444  3
   4832   4830   4836   4838     1  0.0000000  0.6508444  3
   4836   9714   9686   9687     1  0.0000000  1.6038667  3
   4836   9714   9686   9688     1  0.0000000  1.6038667  3
   4837   4836   9714   9686     1  0.0000000  1.6038667  3
   4838   4836   9714   9686     1  0.0000000  1.6038667  3
   4839   9743   9715   9716     1  0.0000000  1.6038667  3
   4839   9743   9715   9717     1  0.0000000  1.6038667  3
   4840   4839   9743   9715     1  0.0000000  1.6038667  3
   4841   4839   9743   9715     1  0.0000000  1.6038667  3
   4843   4844   4856   4857     1  0.0000000  0.6508444  3
   4843   4844   4856   4858     1  0.0000000  0.6508444  3
   4843   4847   4859   4860     1  0.0000000  0.6508444  3
   4843   4847   4859   4861     1  0.0000000  0.6508444  3
   4843   4850   4853   4854     1  0.0000000  0.6508444  3
   4843   4850   4853   4855     1  0.0000000  0.6508444  3
   4844   4843   4847   4848     1  0.0000000  1.2552000  3
   4844   4843   4847   4849     1  0.0000000  1.2552000  3
   4844   4843   4850   4851     1  0.0000000  1.2552000  3
   4844   4843   4850   4852     1  0.0000000  1.2552000  3
   4844   4856   4868   4869     1  0.0000000  0.6508444  3
   4844   4856   4868   4870     1  0.0000000  0.6508444  3
   4845   4844   4843   4847     1  0.0000000  1.2552000  3
   4845   4844   4843   4850     1  0.0000000  1.2552000  3
   4845   4844   4856   4868     1  0.0000000  0.6508444  3
   4845   4844   4856   4857     1  0.0000000  0.6508444  3
   4845   4844   4856   4858     1  0.0000000  0.6508444  3
   4846   4844   4843   4847     1  0.0000000  1.2552000  3
   4846   4844   4843   4850     1  0.0000000  1.2552000  3
   4846   4844   4856   4868     1  0.0000000  0.6508444  3
   4846   4844   4856   4857     1  0.0000000  0.6508444  3
   4846   4844   4856   4858     1  0.0000000  0.6508444  3
   4847   4843   4850   4851     1  0.0000000  1.2552000  3
   4847   4843   4850   4852     1  0.0000000  1.2552000  3
   4847   4859   4865   4866     1  0.0000000  0.6508444  3
   4847   4859   4865   4867     1  0.0000000  0.6508444  3
   4848   4847   4843   4850     1  0.0000000  1.2552000  3
   4848   4847   4859   4865     1  0.0000000  0.6508444  3
   4848   4847   4859   4860     1  0.0000000  0.6508444  3
   4848   4847   4859   4861     1  0.0000000  0.6508444  3
   4849   4847   4843   4850     1  0.0000000  1.2552000  3
   4849   4847   4859   4865     1  0.0000000  0.6508444  3
   4849   4847   4859   4860     1  0.0000000  0.6508444  3
   4849   4847   4859   4861     1  0.0000000  0.6508444  3
   4850   4853   4862   4863     1  0.0000000  0.6508444  3
   4850   4853   4862   4864     1  0.0000000  0.6508444  3
   4851   4850   4853   4862     1  0.0000000  0.6508444  3
   4851   4850   4853   4854     1  0.0000000  0.6508444  3
   4851   4850   4853   4855     1  0.0000000  0.6508444  3
   4852   4850   4853   4862     1  0.0000000  0.6508444  3
   4852   4850   4853   4854     1  0.0000000  0.6508444  3
   4852   4850   4853   4855     1  0.0000000  0.6508444  3
   4854   4853   4862   4871     1  0.0000000  1.0460000  1
   4854   4853   4862   4871     1  0.0000000  0.0000000  3
   4854   4853   4862   4863     1  0.0000000  0.6508444  3
   4854   4853   4862   4864     1  0.0000000  0.6508444  3
   4855   4853   4862   4871     1  0.0000000  1.0460000  1
   4855   4853   4862   4871     1  0.0000000  0.0000000  3
   4855   4853   4862   4863     1  0.0000000  0.6508444  3
   4855   4853   4862   4864     1  0.0000000  0.6508444  3
   4857   4856   4868   9801     1  0.0000000  1.0460000  1
   4857   4856   4868   9801     1  0.0000000  0.0000000  3
   4857   4856   4868   4869     1  0.0000000  0.6508444  3
   4857   4856   4868   4870     1  0.0000000  0.6508444  3
   4858   4856   4868   9801     1  0.0000000  1.0460000  1
   4858   4856   4868   9801     1  0.0000000  0.0000000  3
   4858   4856   4868   4869     1  0.0000000  0.6508444  3
   4858   4856   4868   4870     1  0.0000000  0.6508444  3
   4860   4859   4865   9772     1  0.0000000  1.0460000  1
   4860   4859   4865   9772     1  0.0000000  0.0000000  3
   4860   4859   4865   4866     1  0.0000000  0.6508444  3
   4860   4859   4865   4867     1  0.0000000  0.6508444  3
   4861   4859   4865   9772     1  0.0000000  1.0460000  1
   4861   4859   4865   9772     1  0.0000000  0.0000000  3
   4861   4859   4865   4866     1  0.0000000  0.6508444  3
   4861   4859   4865   4867     1  0.0000000  0.6508444  3
   4865   9772   9744   9745     1  0.0000000  1.6038667  3
   4865   9772   9744   9746     1  0.0000000  1.6038667  3
   4866   4865   9772   9744     1  0.0000000  1.6038667  3
   4867   4865   9772   9744     1  0.0000000  1.6038667  3
   4868   9801   9773   9774     1  0.0000000  1.6038667  3
   4868   9801   9773   9775     1  0.0000000  1.6038667  3
   4869   4868   9801   9773     1  0.0000000  1.6038667  3
   4870   4868   9801   9773     1  0.0000000  1.6038667  3
   4872   4873   4885   4886     1  0.0000000  0.6508444  3
   4872   4873   4885   4887     1  0.0000000  0.6508444  3
   4872   4876   4888   4889     1  0.0000000  0.6508444  3
   4872   4876   4888   4890     1  0.0000000  0.6508444  3
   4872   4879   4882   4883     1  0.0000000  0.6508444  3
   4872   4879   4882   4884     1  0.0000000  0.6508444  3
   4873   4872   4876   4877     1  0.0000000  1.2552000  3
   4873   4872   4876   4878     1  0.0000000  1.2552000  3
   4873   4872   4879   4880     1  0.0000000  1.2552000  3
   4873   4872   4879   4881     1  0.0000000  1.2552000  3
   4873   4885   4897   4898     1  0.0000000  0.6508444  3
   4873   4885   4897   4899     1  0.0000000  0.6508444  3
   4874   4873   4872   4876     1  0.0000000  1.2552000  3
   4874   4873   4872   4879     1  0.0000000  1.2552000  3
   4874   4873   4885   4897     1  0.0000000  0.6508444  3
   4874   4873   4885   4886     1  0.0000000  0.6508444  3
   4874   4873   4885   4887     1  0.0000000  0.6508444  3
   4875   4873   4872   4876     1  0.0000000  1.2552000  3
   4875   4873   4872   4879     1  0.0000000  1.2552000  3
   4875   4873   4885   4897     1  0.0000000  0.6508444  3
   4875   4873   4885   4886     1  0.0000000  0.6508444  3
   4875   4873   4885   4887     1  0.0000000  0.6508444  3
   4876   4872   4879   4880     1  0.0000000  1.2552000  3
   4876   4872   4879   4881     1  0.0000000  1.2552000  3
   4876   4888   4894   4895     1  0.0000000  0.6508444  3
   4876   4888   4894   4896     1  0.0000000  0.6508444  3
   4877   4876   4872   4879     1  0.0000000  1.2552000  3
   4877   4876   4888   4894     1  0.0000000  0.6508444  3
   4877   4876   4888   4889     1  0.0000000  0.6508444  3
   4877   4876   4888   4890     1  0.0000000  0.6508444  3
   4878   4876   4872   4879     1  0.0000000  1.2552000  3
   4878   4876   4888   4894     1  0.0000000  0.6508444  3
   4878   4876   4888   4889     1  0.0000000  0.6508444  3
   4878   4876   4888   4890     1  0.0000000  0.6508444  3
   4879   4882   4891   4892     1  0.0000000  0.6508444  3
   4879   4882   4891   4893     1  0.0000000  0.6508444  3
   4880   4879   4882   4891     1  0.0000000  0.6508444  3
   4880   4879   4882   4883     1  0.0000000  0.6508444  3
   4880   4879   4882   4884     1  0.0000000  0.6508444  3
   4881   4879   4882   4891     1  0.0000000  0.6508444  3
   4881   4879   4882   4883     1  0.0000000  0.6508444  3
   4881   4879   4882   4884     1  0.0000000  0.6508444  3
   4883   4882   4891   4900     1  0.0000000  1.0460000  1
   4883   4882   4891   4900     1  0.0000000  0.0000000  3
   4883   4882   4891   4892     1  0.0000000  0.6508444  3
   4883   4882   4891   4893     1  0.0000000  0.6508444  3
   4884   4882   4891   4900     1  0.0000000  1.0460000  1
   4884   4882   4891   4900     1  0.0000000  0.0000000  3
   4884   4882   4891   4892     1  0.0000000  0.6508444  3
   4884   4882   4891   4893     1  0.0000000  0.6508444  3
   4886   4885   4897   9859     1  0.0000000  1.0460000  1
   4886   4885   4897   9859     1  0.0000000  0.0000000  3
   4886   4885   4897   4898     1  0.0000000  0.6508444  3
   4886   4885   4897   4899     1  0.0000000  0.6508444  3
   4887   4885   4897   9859     1  0.0000000  1.0460000  1
   4887   4885   4897   9859     1  0.0000000  0.0000000  3
   4887   4885   4897   4898     1  0.0000000  0.6508444  3
   4887   4885   4897   4899     1  0.0000000  0.6508444  3
   4889   4888   4894   9830     1  0.0000000  1.0460000  1
   4889   4888   4894   9830     1  0.0000000  0.0000000  3
   4889   4888   4894   4895     1  0.0000000  0.6508444  3
   4889   4888   4894   4896     1  0.0000000  0.6508444  3
   4890   4888   4894   9830     1  0.0000000  1.0460000  1
   4890   4888   4894   9830     1  0.0000000  0.0000000  3
   4890   4888   4894   4895     1  0.0000000  0.6508444  3
   4890   4888   4894   4896     1  0.0000000  0.6508444  3
   4894   9830   9802   9803     1  0.0000000  1.6038667  3
   4894   9830   9802   9804     1  0.0000000  1.6038667  3
   4895   4894   9830   9802     1  0.0000000  1.6038667  3
   4896   4894   9830   9802     1  0.0000000  1.6038667  3
   4897   9859   9831   9832     1  0.0000000  1.6038667  3
   4897   9859   9831   9833     1  0.0000000  1.6038667  3
   4898   4897   9859   9831     1  0.0000000  1.6038667  3
   4899   4897   9859   9831     1  0.0000000  1.6038667  3
   4901   4902   4914   4915     1  0.0000000  0.6508444  3
   4901   4902   4914   4916     1  0.0000000  0.6508444  3
   4901   4905   4917   4918     1  0.0000000  0.6508444  3
   4901   4905   4917   4919     1  0.0000000  0.6508444  3
   4901   4908   4911   4912     1  0.0000000  0.6508444  3
   4901   4908   4911   4913     1  0.0000000  0.6508444  3
   4902   4901   4905   4906     1  0.0000000  1.2552000  3
   4902   4901   4905   4907     1  0.0000000  1.2552000  3
   4902   4901   4908   4909     1  0.0000000  1.2552000  3
   4902   4901   4908   4910     1  0.0000000  1.2552000  3
   4902   4914   4926   4927     1  0.0000000  0.6508444  3
   4902   4914   4926   4928     1  0.0000000  0.6508444  3
   4903   4902   4901   4905     1  0.0000000  1.2552000  3
   4903   4902   4901   4908     1  0.0000000  1.2552000  3
   4903   4902   4914   4926     1  0.0000000  0.6508444  3
   4903   4902   4914   4915     1  0.0000000  0.6508444  3
   4903   4902   4914   4916     1  0.0000000  0.6508444  3
   4904   4902   4901   4905     1  0.0000000  1.2552000  3
   4904   4902   4901   4908     1  0.0000000  1.2552000  3
   4904   4902   4914   4926     1  0.0000000  0.6508444  3
   4904   4902   4914   4915     1  0.0000000  0.6508444  3
   4904   4902   4914   4916     1  0.0000000  0.6508444  3
   4905   4901   4908   4909     1  0.0000000  1.2552000  3
   4905   4901   4908   4910     1  0.0000000  1.2552000  3
   4905   4917   4923   4924     1  0.0000000  0.6508444  3
   4905   4917   4923   4925     1  0.0000000  0.6508444  3
   4906   4905   4901   4908     1  0.0000000  1.2552000  3
   4906   4905   4917   4923     1  0.0000000  0.6508444  3
   4906   4905   4917   4918     1  0.0000000  0.6508444  3
   4906   4905   4917   4919     1  0.0000000  0.6508444  3
   4907   4905   4901   4908     1  0.0000000  1.2552000  3
   4907   4905   4917   4923     1  0.0000000  0.6508444  3
   4907   4905   4917   4918     1  0.0000000  0.6508444  3
   4907   4905   4917   4919     1  0.0000000  0.6508444  3
   4908   4911   4920   4921     1  0.0000000  0.6508444  3
   4908   4911   4920   4922     1  0.0000000  0.6508444  3
   4909   4908   4911   4920     1  0.0000000  0.6508444  3
   4909   4908   4911   4912     1  0.0000000  0.6508444  3
   4909   4908   4911   4913     1  0.0000000  0.6508444  3
   4910   4908   4911   4920     1  0.0000000  0.6508444  3
   4910   4908   4911   4912     1  0.0000000  0.6508444  3
   4910   4908   4911   4913     1  0.0000000  0.6508444  3
   4912   4911   4920   4929     1  0.0000000  1.0460000  1
   4912   4911   4920   4929     1  0.0000000  0.0000000  3
   4912   4911   4920   4921     1  0.0000000  0.6508444  3
   4912   4911   4920   4922     1  0.0000000  0.6508444  3
   4913   4911   4920   4929     1  0.0000000  1.0460000  1
   4913   4911   4920   4929     1  0.0000000  0.0000000  3
   4913   4911   4920   4921     1  0.0000000  0.6508444  3
   4913   4911   4920   4922     1  0.0000000  0.6508444  3
   4915   4914   4926   9917     1  0.0000000  1.0460000  1
   4915   4914   4926   9917     1  0.0000000  0.0000000  3
   4915   4914   4926   4927     1  0.0000000  0.6508444  3
   4915   4914   4926   4928     1  0.0000000  0.6508444  3
   4916   4914   4926   9917     1  0.0000000  1.0460000  1
   4916   4914   4926   9917     1  0.0000000  0.0000000  3
   4916   4914   4926   4927     1  0.0000000  0.6508444  3
   4916   4914   4926   4928     1  0.0000000  0.6508444  3
   4918   4917   4923   9888     1  0.0000000  1.0460000  1
   4918   4917   4923   9888     1  0.0000000  0.0000000  3
   4918   4917   4923   4924     1  0.0000000  0.6508444  3
   4918   4917   4923   4925     1  0.0000000  0.6508444  3
   4919   4917   4923   9888     1  0.0000000  1.0460000  1
   4919   4917   4923   9888     1  0.0000000  0.0000000  3
   4919   4917   4923   4924     1  0.0000000  0.6508444  3
   4919   4917   4923   4925     1  0.0000000  0.6508444  3
   4923   9888   9860   9861     1  0.0000000  1.6038667  3
   4923   9888   9860   9862     1  0.0000000  1.6038667  3
   4924   4923   9888   9860     1  0.0000000  1.6038667  3
   4925   4923   9888   9860     1  0.0000000  1.6038667  3
   4926   9917   9889   9890     1  0.0000000  1.6038667  3
   4926   9917   9889   9891     1  0.0000000  1.6038667  3
   4927   4926   9917   9889     1  0.0000000  1.6038667  3
   4928   4926   9917   9889     1  0.0000000  1.6038667  3
   4930   4931   4943   4944     1  0.0000000  0.6508444  3
   4930   4931   4943   4945     1  0.0000000  0.6508444  3
   4930   4934   4946   4947     1  0.0000000  0.6508444  3
   4930   4934   4946   4948     1  0.0000000  0.6508444  3
   4930   4937   4940   4941     1  0.0000000  0.6508444  3
   4930   4937   4940   4942     1  0.0000000  0.6508444  3
   4931   4930   4934   4935     1  0.0000000  1.2552000  3
   4931   4930   4934   4936     1  0.0000000  1.2552000  3
   4931   4930   4937   4938     1  0.0000000  1.2552000  3
   4931   4930   4937   4939     1  0.0000000  1.2552000  3
   4931   4943   4955   4956     1  0.0000000  0.6508444  3
   4931   4943   4955   4957     1  0.0000000  0.6508444  3
   4932   4931   4930   4934     1  0.0000000  1.2552000  3
   4932   4931   4930   4937     1  0.0000000  1.2552000  3
   4932   4931   4943   4955     1  0.0000000  0.6508444  3
   4932   4931   4943   4944     1  0.0000000  0.6508444  3
   4932   4931   4943   4945     1  0.0000000  0.6508444  3
   4933   4931   4930   4934     1  0.0000000  1.2552000  3
   4933   4931   4930   4937     1  0.0000000  1.2552000  3
   4933   4931   4943   4955     1  0.0000000  0.6508444  3
   4933   4931   4943   4944     1  0.0000000  0.6508444  3
   4933   4931   4943   4945     1  0.0000000  0.6508444  3
   4934   4930   4937   4938     1  0.0000000  1.2552000  3
   4934   4930   4937   4939     1  0.0000000  1.2552000  3
   4934   4946   4952   4953     1  0.0000000  0.6508444  3
   4934   4946   4952   4954     1  0.0000000  0.6508444  3
   4935   4934   4930   4937     1  0.0000000  1.2552000  3
   4935   4934   4946   4952     1  0.0000000  0.6508444  3
   4935   4934   4946   4947     1  0.0000000  0.6508444  3
   4935   4934   4946   4948     1  0.0000000  0.6508444  3
   4936   4934   4930   4937     1  0.0000000  1.2552000  3
   4936   4934   4946   4952     1  0.0000000  0.6508444  3
   4936   4934   4946   4947     1  0.0000000  0.6508444  3
   4936   4934   4946   4948     1  0.0000000  0.6508444  3
   4937   4940   4949   4950     1  0.0000000  0.6508444  3
   4937   4940   4949   4951     1  0.0000000  0.6508444  3
   4938   4937   4940   4949     1  0.0000000  0.6508444  3
   4938   4937   4940   4941     1  0.0000000  0.6508444  3
   4938   4937   4940   4942     1  0.0000000  0.6508444  3
   4939   4937   4940   4949     1  0.0000000  0.6508444  3
   4939   4937   4940   4941     1  0.0000000  0.6508444  3
   4939   4937   4940   4942     1  0.0000000  0.6508444  3
   4941   4940   4949   4958     1  0.0000000  1.0460000  1
   4941   4940   4949   4958     1  0.0000000  0.0000000  3
   4941   4940   4949   4950     1  0.0000000  0.6508444  3
   4941   4940   4949   4951     1  0.0000000  0.6508444  3
   4942   4940   4949   4958     1  0.0000000  1.0460000  1
   4942   4940   4949   4958     1  0.0000000  0.0000000  3
   4942   4940   4949   4950     1  0.0000000  0.6508444  3
   4942   4940   4949   4951     1  0.0000000  0.6508444  3
   4944   4943   4955   9975     1  0.0000000  1.0460000  1
   4944   4943   4955   9975     1  0.0000000  0.0000000  3
   4944   4943   4955   4956     1  0.0000000  0.6508444  3
   4944   4943   4955   4957     1  0.0000000  0.6508444  3
   4945   4943   4955   9975     1  0.0000000  1.0460000  1
   4945   4943   4955   9975     1  0.0000000  0.0000000  3
   4945   4943   4955   4956     1  0.0000000  0.6508444  3
   4945   4943   4955   4957     1  0.0000000  0.6508444  3
   4947   4946   4952   9946     1  0.0000000  1.0460000  1
   4947   4946   4952   9946     1  0.0000000  0.0000000  3
   4947   4946   4952   4953     1  0.0000000  0.6508444  3
   4947   4946   4952   4954     1  0.0000000  0.6508444  3
   4948   4946   4952   9946     1  0.0000000  1.0460000  1
   4948   4946   4952   9946     1  0.0000000  0.0000000  3
   4948   4946   4952   4953     1  0.0000000  0.6508444  3
   4948   4946   4952   4954     1  0.0000000  0.6508444  3
   4952   9946   9918   9919     1  0.0000000  1.6038667  3
   4952   9946   9918   9920     1  0.0000000  1.6038667  3
   4953   4952   9946   9918     1  0.0000000  1.6038667  3
   4954   4952   9946   9918     1  0.0000000  1.6038667  3
   4955   9975   9947   9948     1  0.0000000  1.6038667  3
   4955   9975   9947   9949     1  0.0000000  1.6038667  3
   4956   4955   9975   9947     1  0.0000000  1.6038667  3
   4957   4955   9975   9947     1  0.0000000  1.6038667  3
   4959   4960   4972   4973     1  0.0000000  0.6508444  3
   4959   4960   4972   4974     1  0.0000000  0.6508444  3
   4959   4963   4975   4976     1  0.0000000  0.6508444  3
   4959   4963   4975   4977     1  0.0000000  0.6508444  3
   4959   4966   4969   4970     1  0.0000000  0.6508444  3
   4959   4966   4969   4971     1  0.0000000  0.6508444  3
   4960   4959   4963   4964     1  0.0000000  1.2552000  3
   4960   4959   4963   4965     1  0.0000000  1.2552000  3
   4960   4959   4966   4967     1  0.0000000  1.2552000  3
   4960   4959   4966   4968     1  0.0000000  1.2552000  3
   4960   4972   4984   4985     1  0.0000000  0.6508444  3
   4960   4972   4984   4986     1  0.0000000  0.6508444  3
   4961   4960   4959   4963     1  0.0000000  1.2552000  3
   4961   4960   4959   4966     1  0.0000000  1.2552000  3
   4961   4960   4972   4984     1  0.0000000  0.6508444  3
   4961   4960   4972   4973     1  0.0000000  0.6508444  3
   4961   4960   4972   4974     1  0.0000000  0.6508444  3
   4962   4960   4959   4963     1  0.0000000  1.2552000  3
   4962   4960   4959   4966     1  0.0000000  1.2552000  3
   4962   4960   4972   4984     1  0.0000000  0.6508444  3
   4962   4960   4972   4973     1  0.0000000  0.6508444  3
   4962   4960   4972   4974     1  0.0000000  0.6508444  3
   4963   4959   4966   4967     1  0.0000000  1.2552000  3
   4963   4959   4966   4968     1  0.0000000  1.2552000  3
   4963   4975   4981   4982     1  0.0000000  0.6508444  3
   4963   4975   4981   4983     1  0.0000000  0.6508444  3
   4964   4963   4959   4966     1  0.0000000  1.2552000  3
   4964   4963   4975   4981     1  0.0000000  0.6508444  3
   4964   4963   4975   4976     1  0.0000000  0.6508444  3
   4964   4963   4975   4977     1  0.0000000  0.6508444  3
   4965   4963   4959   4966     1  0.0000000  1.2552000  3
   4965   4963   4975   4981     1  0.0000000  0.6508444  3
   4965   4963   4975   4976     1  0.0000000  0.6508444  3
   4965   4963   4975   4977     1  0.0000000  0.6508444  3
   4966   4969   4978   4979     1  0.0000000  0.6508444  3
   4966   4969   4978   4980     1  0.0000000  0.6508444  3
   4967   4966   4969   4978     1  0.0000000  0.6508444  3
   4967   4966   4969   4970     1  0.0000000  0.6508444  3
   4967   4966   4969   4971     1  0.0000000  0.6508444  3
   4968   4966   4969   4978     1  0.0000000  0.6508444  3
   4968   4966   4969   4970     1  0.0000000  0.6508444  3
   4968   4966   4969   4971     1  0.0000000  0.6508444  3
   4970   4969   4978   4987     1  0.0000000  1.0460000  1
   4970   4969   4978   4987     1  0.0000000  0.0000000  3
   4970   4969   4978   4979     1  0.0000000  0.6508444  3
   4970   4969   4978   4980     1  0.0000000  0.6508444  3
   4971   4969   4978   4987     1  0.0000000  1.0460000  1
   4971   4969   4978   4987     1  0.0000000  0.0000000  3
   4971   4969   4978   4979     1  0.0000000  0.6508444  3
   4971   4969   4978   4980     1  0.0000000  0.6508444  3
   4973   4972   4984  10033     1  0.0000000  1.0460000  1
   4973   4972   4984  10033     1  0.0000000  0.0000000  3
   4973   4972   4984   4985     1  0.0000000  0.6508444  3
   4973   4972   4984   4986     1  0.0000000  0.6508444  3
   4974   4972   4984  10033     1  0.0000000  1.0460000  1
   4974   4972   4984  10033     1  0.0000000  0.0000000  3
   4974   4972   4984   4985     1  0.0000000  0.6508444  3
   4974   4972   4984   4986     1  0.0000000  0.6508444  3
   4976   4975   4981  10004     1  0.0000000  1.0460000  1
   4976   4975   4981  10004     1  0.0000000  0.0000000  3
   4976   4975   4981   4982     1  0.0000000  0.6508444  3
   4976   4975   4981   4983     1  0.0000000  0.6508444  3
   4977   4975   4981  10004     1  0.0000000  1.0460000  1
   4977   4975   4981  10004     1  0.0000000  0.0000000  3
   4977   4975   4981   4982     1  0.0000000  0.6508444  3
   4977   4975   4981   4983     1  0.0000000  0.6508444  3
   4981  10004   9976   9977     1  0.0000000  1.6038667  3
   4981  10004   9976   9978     1  0.0000000  1.6038667  3
   4982   4981  10004   9976     1  0.0000000  1.6038667  3
   4983   4981  10004   9976     1  0.0000000  1.6038667  3
   4984  10033  10005  10006     1  0.0000000  1.6038667  3
   4984  10033  10005  10007     1  0.0000000  1.6038667  3
   4985   4984  10033  10005     1  0.0000000  1.6038667  3
   4986   4984  10033  10005     1  0.0000000  1.6038667  3
   4988   4989   5001   5002     1  0.0000000  0.6508444  3
   4988   4989   5001   5003     1  0.0000000  0.6508444  3
   4988   4992   5004   5005     1  0.0000000  0.6508444  3
   4988   4992   5004   5006     1  0.0000000  0.6508444  3
   4988   4995   4998   4999     1  0.0000000  0.6508444  3
   4988   4995   4998   5000     1  0.0000000  0.6508444  3
   4989   4988   4992   4993     1  0.0000000  1.2552000  3
   4989   4988   4992   4994     1  0.0000000  1.2552000  3
   4989   4988   4995   4996     1  0.0000000  1.2552000  3
   4989   4988   4995   4997     1  0.0000000  1.2552000  3
   4989   5001   5013   5014     1  0.0000000  0.6508444  3
   4989   5001   5013   5015     1  0.0000000  0.6508444  3
   4990   4989   4988   4992     1  0.0000000  1.2552000  3
   4990   4989   4988   4995     1  0.0000000  1.2552000  3
   4990   4989   5001   5013     1  0.0000000  0.6508444  3
   4990   4989   5001   5002     1  0.0000000  0.6508444  3
   4990   4989   5001   5003     1  0.0000000  0.6508444  3
   4991   4989   4988   4992     1  0.0000000  1.2552000  3
   4991   4989   4988   4995     1  0.0000000  1.2552000  3
   4991   4989   5001   5013     1  0.0000000  0.6508444  3
   4991   4989   5001   5002     1  0.0000000  0.6508444  3
   4991   4989   5001   5003     1  0.0000000  0.6508444  3
   4992   4988   4995   4996     1  0.0000000  1.2552000  3
   4992   4988   4995   4997     1  0.0000000  1.2552000  3
   4992   5004   5010   5011     1  0.0000000  0.6508444  3
   4992   5004   5010   5012     1  0.0000000  0.6508444  3
   4993   4992   4988   4995     1  0.0000000  1.2552000  3
   4993   4992   5004   5010     1  0.0000000  0.6508444  3
   4993   4992   5004   5005     1  0.0000000  0.6508444  3
   4993   4992   5004   5006     1  0.0000000  0.6508444  3
   4994   4992   4988   4995     1  0.0000000  1.2552000  3
   4994   4992   5004   5010     1  0.0000000  0.6508444  3
   4994   4992   5004   5005     1  0.0000000  0.6508444  3
   4994   4992   5004   5006     1  0.0000000  0.6508444  3
   4995   4998   5007   5008     1  0.0000000  0.6508444  3
   4995   4998   5007   5009     1  0.0000000  0.6508444  3
   4996   4995   4998   5007     1  0.0000000  0.6508444  3
   4996   4995   4998   4999     1  0.0000000  0.6508444  3
   4996   4995   4998   5000     1  0.0000000  0.6508444  3
   4997   4995   4998   5007     1  0.0000000  0.6508444  3
   4997   4995   4998   4999     1  0.0000000  0.6508444  3
   4997   4995   4998   5000     1  0.0000000  0.6508444  3
   4999   4998   5007   5016     1  0.0000000  1.0460000  1
   4999   4998   5007   5016     1  0.0000000  0.0000000  3
   4999   4998   5007   5008     1  0.0000000  0.6508444  3
   4999   4998   5007   5009     1  0.0000000  0.6508444  3
   5000   4998   5007   5016     1  0.0000000  1.0460000  1
   5000   4998   5007   5016     1  0.0000000  0.0000000  3
   5000   4998   5007   5008     1  0.0000000  0.6508444  3
   5000   4998   5007   5009     1  0.0000000  0.6508444  3
   5002   5001   5013  10091     1  0.0000000  1.0460000  1
   5002   5001   5013  10091     1  0.0000000  0.0000000  3
   5002   5001   5013   5014     1  0.0000000  0.6508444  3
   5002   5001   5013   5015     1  0.0000000  0.6508444  3
   5003   5001   5013  10091     1  0.0000000  1.0460000  1
   5003   5001   5013  10091     1  0.0000000  0.0000000  3
   5003   5001   5013   5014     1  0.0000000  0.6508444  3
   5003   5001   5013   5015     1  0.0000000  0.6508444  3
   5005   5004   5010  10062     1  0.0000000  1.0460000  1
   5005   5004   5010  10062     1  0.0000000  0.0000000  3
   5005   5004   5010   5011     1  0.0000000  0.6508444  3
   5005   5004   5010   5012     1  0.0000000  0.6508444  3
   5006   5004   5010  10062     1  0.0000000  1.0460000  1
   5006   5004   5010  10062     1  0.0000000  0.0000000  3
   5006   5004   5010   5011     1  0.0000000  0.6508444  3
   5006   5004   5010   5012     1  0.0000000  0.6508444  3
   5010  10062  10034  10035     1  0.0000000  1.6038667  3
   5010  10062  10034  10036     1  0.0000000  1.6038667  3
   5011   5010  10062  10034     1  0.0000000  1.6038667  3
   5012   5010  10062  10034     1  0.0000000  1.6038667  3
   5013  10091  10063  10064     1  0.0000000  1.6038667  3
   5013  10091  10063  10065     1  0.0000000  1.6038667  3
   5014   5013  10091  10063     1  0.0000000  1.6038667  3
   5015   5013  10091  10063     1  0.0000000  1.6038667  3
   5017   5018   5030   5031     1  0.0000000  0.6508444  3
   5017   5018   5030   5032     1  0.0000000  0.6508444  3
   5017   5021   5033   5034     1  0.0000000  0.6508444  3
   5017   5021   5033   5035     1  0.0000000  0.6508444  3
   5017   5024   5027   5028     1  0.0000000  0.6508444  3
   5017   5024   5027   5029     1  0.0000000  0.6508444  3
   5018   5017   5021   5022     1  0.0000000  1.2552000  3
   5018   5017   5021   5023     1  0.0000000  1.2552000  3
   5018   5017   5024   5025     1  0.0000000  1.2552000  3
   5018   5017   5024   5026     1  0.0000000  1.2552000  3
   5018   5030   5042   5043     1  0.0000000  0.6508444  3
   5018   5030   5042   5044     1  0.0000000  0.6508444  3
   5019   5018   5017   5021     1  0.0000000  1.2552000  3
   5019   5018   5017   5024     1  0.0000000  1.2552000  3
   5019   5018   5030   5042     1  0.0000000  0.6508444  3
   5019   5018   5030   5031     1  0.0000000  0.6508444  3
   5019   5018   5030   5032     1  0.0000000  0.6508444  3
   5020   5018   5017   5021     1  0.0000000  1.2552000  3
   5020   5018   5017   5024     1  0.0000000  1.2552000  3
   5020   5018   5030   5042     1  0.0000000  0.6508444  3
   5020   5018   5030   5031     1  0.0000000  0.6508444  3
   5020   5018   5030   5032     1  0.0000000  0.6508444  3
   5021   5017   5024   5025     1  0.0000000  1.2552000  3
   5021   5017   5024   5026     1  0.0000000  1.2552000  3
   5021   5033   5039   5040     1  0.0000000  0.6508444  3
   5021   5033   5039   5041     1  0.0000000  0.6508444  3
   5022   5021   5017   5024     1  0.0000000  1.2552000  3
   5022   5021   5033   5039     1  0.0000000  0.6508444  3
   5022   5021   5033   5034     1  0.0000000  0.6508444  3
   5022   5021   5033   5035     1  0.0000000  0.6508444  3
   5023   5021   5017   5024     1  0.0000000  1.2552000  3
   5023   5021   5033   5039     1  0.0000000  0.6508444  3
   5023   5021   5033   5034     1  0.0000000  0.6508444  3
   5023   5021   5033   5035     1  0.0000000  0.6508444  3
   5024   5027   5036   5037     1  0.0000000  0.6508444  3
   5024   5027   5036   5038     1  0.0000000  0.6508444  3
   5025   5024   5027   5036     1  0.0000000  0.6508444  3
   5025   5024   5027   5028     1  0.0000000  0.6508444  3
   5025   5024   5027   5029     1  0.0000000  0.6508444  3
   5026   5024   5027   5036     1  0.0000000  0.6508444  3
   5026   5024   5027   5028     1  0.0000000  0.6508444  3
   5026   5024   5027   5029     1  0.0000000  0.6508444  3
   5028   5027   5036   5045     1  0.0000000  1.0460000  1
   5028   5027   5036   5045     1  0.0000000  0.0000000  3
   5028   5027   5036   5037     1  0.0000000  0.6508444  3
   5028   5027   5036   5038     1  0.0000000  0.6508444  3
   5029   5027   5036   5045     1  0.0000000  1.0460000  1
   5029   5027   5036   5045     1  0.0000000  0.0000000  3
   5029   5027   5036   5037     1  0.0000000  0.6508444  3
   5029   5027   5036   5038     1  0.0000000  0.6508444  3
   5031   5030   5042  10149     1  0.0000000  1.0460000  1
   5031   5030   5042  10149     1  0.0000000  0.0000000  3
   5031   5030   5042   5043     1  0.0000000  0.6508444  3
   5031   5030   5042   5044     1  0.0000000  0.6508444  3
   5032   5030   5042  10149     1  0.0000000  1.0460000  1
   5032   5030   5042  10149     1  0.0000000  0.0000000  3
   5032   5030   5042   5043     1  0.0000000  0.6508444  3
   5032   5030   5042   5044     1  0.0000000  0.6508444  3
   5034   5033   5039  10120     1  0.0000000  1.0460000  1
   5034   5033   5039  10120     1  0.0000000  0.0000000  3
   5034   5033   5039   5040     1  0.0000000  0.6508444  3
   5034   5033   5039   5041     1  0.0000000  0.6508444  3
   5035   5033   5039  10120     1  0.0000000  1.0460000  1
   5035   5033   5039  10120     1  0.0000000  0.0000000  3
   5035   5033   5039   5040     1  0.0000000  0.6508444  3
   5035   5033   5039   5041     1  0.0000000  0.6508444  3
   5039  10120  10092  10093     1  0.0000000  1.6038667  3
   5039  10120  10092  10094     1  0.0000000  1.6038667  3
   5040   5039  10120  10092     1  0.0000000  1.6038667  3
   5041   5039  10120  10092     1  0.0000000  1.6038667  3
   5042  10149  10121  10122     1  0.0000000  1.6038667  3
   5042  10149  10121  10123     1  0.0000000  1.6038667  3
   5043   5042  10149  10121     1  0.0000000  1.6038667  3
   5044   5042  10149  10121     1  0.0000000  1.6038667  3
   5046   5047   5059   5060     1  0.0000000  0.6508444  3
   5046   5047   5059   5061     1  0.0000000  0.6508444  3
   5046   5050   5062   5063     1  0.0000000  0.6508444  3
   5046   5050   5062   5064     1  0.0000000  0.6508444  3
   5046   5053   5056   5057     1  0.0000000  0.6508444  3
   5046   5053   5056   5058     1  0.0000000  0.6508444  3
   5047   5046   5050   5051     1  0.0000000  1.2552000  3
   5047   5046   5050   5052     1  0.0000000  1.2552000  3
   5047   5046   5053   5054     1  0.0000000  1.2552000  3
   5047   5046   5053   5055     1  0.0000000  1.2552000  3
   5047   5059   5071   5072     1  0.0000000  0.6508444  3
   5047   5059   5071   5073     1  0.0000000  0.6508444  3
   5048   5047   5046   5050     1  0.0000000  1.2552000  3
   5048   5047   5046   5053     1  0.0000000  1.2552000  3
   5048   5047   5059   5071     1  0.0000000  0.6508444  3
   5048   5047   5059   5060     1  0.0000000  0.6508444  3
   5048   5047   5059   5061     1  0.0000000  0.6508444  3
   5049   5047   5046   5050     1  0.0000000  1.2552000  3
   5049   5047   5046   5053     1  0.0000000  1.2552000  3
   5049   5047   5059   5071     1  0.0000000  0.6508444  3
   5049   5047   5059   5060     1  0.0000000  0.6508444  3
   5049   5047   5059   5061     1  0.0000000  0.6508444  3
   5050   5046   5053   5054     1  0.0000000  1.2552000  3
   5050   5046   5053   5055     1  0.0000000  1.2552000  3
   5050   5062   5068   5069     1  0.0000000  0.6508444  3
   5050   5062   5068   5070     1  0.0000000  0.6508444  3
   5051   5050   5046   5053     1  0.0000000  1.2552000  3
   5051   5050   5062   5068     1  0.0000000  0.6508444  3
   5051   5050   5062   5063     1  0.0000000  0.6508444  3
   5051   5050   5062   5064     1  0.0000000  0.6508444  3
   5052   5050   5046   5053     1  0.0000000  1.2552000  3
   5052   5050   5062   5068     1  0.0000000  0.6508444  3
   5052   5050   5062   5063     1  0.0000000  0.6508444  3
   5052   5050   5062   5064     1  0.0000000  0.6508444  3
   5053   5056   5065   5066     1  0.0000000  0.6508444  3
   5053   5056   5065   5067     1  0.0000000  0.6508444  3
   5054   5053   5056   5065     1  0.0000000  0.6508444  3
   5054   5053   5056   5057     1  0.0000000  0.6508444  3
   5054   5053   5056   5058     1  0.0000000  0.6508444  3
   5055   5053   5056   5065     1  0.0000000  0.6508444  3
   5055   5053   5056   5057     1  0.0000000  0.6508444  3
   5055   5053   5056   5058     1  0.0000000  0.6508444  3
   5057   5056   5065   5074     1  0.0000000  1.0460000  1
   5057   5056   5065   5074     1  0.0000000  0.0000000  3
   5057   5056   5065   5066     1  0.0000000  0.6508444  3
   5057   5056   5065   5067     1  0.0000000  0.6508444  3
   5058   5056   5065   5074     1  0.0000000  1.0460000  1
   5058   5056   5065   5074     1  0.0000000  0.0000000  3
   5058   5056   5065   5066     1  0.0000000  0.6508444  3
   5058   5056   5065   5067     1  0.0000000  0.6508444  3
   5060   5059   5071  10207     1  0.0000000  1.0460000  1
   5060   5059   5071  10207     1  0.0000000  0.0000000  3
   5060   5059   5071   5072     1  0.0000000  0.6508444  3
   5060   5059   5071   5073     1  0.0000000  0.6508444  3
   5061   5059   5071  10207     1  0.0000000  1.0460000  1
   5061   5059   5071  10207     1  0.0000000  0.0000000  3
   5061   5059   5071   5072     1  0.0000000  0.6508444  3
   5061   5059   5071   5073     1  0.0000000  0.6508444  3
   5063   5062   5068  10178     1  0.0000000  1.0460000  1
   5063   5062   5068  10178     1  0.0000000  0.0000000  3
   5063   5062   5068   5069     1  0.0000000  0.6508444  3
   5063   5062   5068   5070     1  0.0000000  0.6508444  3
   5064   5062   5068  10178     1  0.0000000  1.0460000  1
   5064   5062   5068  10178     1  0.0000000  0.0000000  3
   5064   5062   5068   5069     1  0.0000000  0.6508444  3
   5064   5062   5068   5070     1  0.0000000  0.6508444  3
   5068  10178  10150  10151     1  0.0000000  1.6038667  3
   5068  10178  10150  10152     1  0.0000000  1.6038667  3
   5069   5068  10178  10150     1  0.0000000  1.6038667  3
   5070   5068  10178  10150     1  0.0000000  1.6038667  3
   5071  10207  10179  10180     1  0.0000000  1.6038667  3
   5071  10207  10179  10181     1  0.0000000  1.6038667  3
   5072   5071  10207  10179     1  0.0000000  1.6038667  3
   5073   5071  10207  10179     1  0.0000000  1.6038667  3
   5075   5076   5088   5089     1  0.0000000  0.6508444  3
   5075   5076   5088   5090     1  0.0000000  0.6508444  3
   5075   5079   5091   5092     1  0.0000000  0.6508444  3
   5075   5079   5091   5093     1  0.0000000  0.6508444  3
   5075   5082   5085   5086     1  0.0000000  0.6508444  3
   5075   5082   5085   5087     1  0.0000000  0.6508444  3
   5076   5075   5079   5080     1  0.0000000  1.2552000  3
   5076   5075   5079   5081     1  0.0000000  1.2552000  3
   5076   5075   5082   5083     1  0.0000000  1.2552000  3
   5076   5075   5082   5084     1  0.0000000  1.2552000  3
   5076   5088   5100   5101     1  0.0000000  0.6508444  3
   5076   5088   5100   5102     1  0.0000000  0.6508444  3
   5077   5076   5075   5079     1  0.0000000  1.2552000  3
   5077   5076   5075   5082     1  0.0000000  1.2552000  3
   5077   5076   5088   5100     1  0.0000000  0.6508444  3
   5077   5076   5088   5089     1  0.0000000  0.6508444  3
   5077   5076   5088   5090     1  0.0000000  0.6508444  3
   5078   5076   5075   5079     1  0.0000000  1.2552000  3
   5078   5076   5075   5082     1  0.0000000  1.2552000  3
   5078   5076   5088   5100     1  0.0000000  0.6508444  3
   5078   5076   5088   5089     1  0.0000000  0.6508444  3
   5078   5076   5088   5090     1  0.0000000  0.6508444  3
   5079   5075   5082   5083     1  0.0000000  1.2552000  3
   5079   5075   5082   5084     1  0.0000000  1.2552000  3
   5079   5091   5097   5098     1  0.0000000  0.6508444  3
   5079   5091   5097   5099     1  0.0000000  0.6508444  3
   5080   5079   5075   5082     1  0.0000000  1.2552000  3
   5080   5079   5091   5097     1  0.0000000  0.6508444  3
   5080   5079   5091   5092     1  0.0000000  0.6508444  3
   5080   5079   5091   5093     1  0.0000000  0.6508444  3
   5081   5079   5075   5082     1  0.0000000  1.2552000  3
   5081   5079   5091   5097     1  0.0000000  0.6508444  3
   5081   5079   5091   5092     1  0.0000000  0.6508444  3
   5081   5079   5091   5093     1  0.0000000  0.6508444  3
   5082   5085   5094   5095     1  0.0000000  0.6508444  3
   5082   5085   5094   5096     1  0.0000000  0.6508444  3
   5083   5082   5085   5094     1  0.0000000  0.6508444  3
   5083   5082   5085   5086     1  0.0000000  0.6508444  3
   5083   5082   5085   5087     1  0.0000000  0.6508444  3
   5084   5082   5085   5094     1  0.0000000  0.6508444  3
   5084   5082   5085   5086     1  0.0000000  0.6508444  3
   5084   5082   5085   5087     1  0.0000000  0.6508444  3
   5086   5085   5094   5103     1  0.0000000  1.0460000  1
   5086   5085   5094   5103     1  0.0000000  0.0000000  3
   5086   5085   5094   5095     1  0.0000000  0.6508444  3
   5086   5085   5094   5096     1  0.0000000  0.6508444  3
   5087   5085   5094   5103     1  0.0000000  1.0460000  1
   5087   5085   5094   5103     1  0.0000000  0.0000000  3
   5087   5085   5094   5095     1  0.0000000  0.6508444  3
   5087   5085   5094   5096     1  0.0000000  0.6508444  3
   5089   5088   5100  10265     1  0.0000000  1.0460000  1
   5089   5088   5100  10265     1  0.0000000  0.0000000  3
   5089   5088   5100   5101     1  0.0000000  0.6508444  3
   5089   5088   5100   5102     1  0.0000000  0.6508444  3
   5090   5088   5100  10265     1  0.0000000  1.0460000  1
   5090   5088   5100  10265     1  0.0000000  0.0000000  3
   5090   5088   5100   5101     1  0.0000000  0.6508444  3
   5090   5088   5100   5102     1  0.0000000  0.6508444  3
   5092   5091   5097  10236     1  0.0000000  1.0460000  1
   5092   5091   5097  10236     1  0.0000000  0.0000000  3
   5092   5091   5097   5098     1  0.0000000  0.6508444  3
   5092   5091   5097   5099     1  0.0000000  0.6508444  3
   5093   5091   5097  10236     1  0.0000000  1.0460000  1
   5093   5091   5097  10236     1  0.0000000  0.0000000  3
   5093   5091   5097   5098     1  0.0000000  0.6508444  3
   5093   5091   5097   5099     1  0.0000000  0.6508444  3
   5097  10236  10208  10209     1  0.0000000  1.6038667  3
   5097  10236  10208  10210     1  0.0000000  1.6038667  3
   5098   5097  10236  10208     1  0.0000000  1.6038667  3
   5099   5097  10236  10208     1  0.0000000  1.6038667  3
   5100  10265  10237  10238     1  0.0000000  1.6038667  3
   5100  10265  10237  10239     1  0.0000000  1.6038667  3
   5101   5100  10265  10237     1  0.0000000  1.6038667  3
   5102   5100  10265  10237     1  0.0000000  1.6038667  3
   5104   5105   5117   5118     1  0.0000000  0.6508444  3
   5104   5105   5117   5119     1  0.0000000  0.6508444  3
   5104   5108   5120   5121     1  0.0000000  0.6508444  3
   5104   5108   5120   5122     1  0.0000000  0.6508444  3
   5104   5111   5114   5115     1  0.0000000  0.6508444  3
   5104   5111   5114   5116     1  0.0000000  0.6508444  3
   5105   5104   5108   5109     1  0.0000000  1.2552000  3
   5105   5104   5108   5110     1  0.0000000  1.2552000  3
   5105   5104   5111   5112     1  0.0000000  1.2552000  3
   5105   5104   5111   5113     1  0.0000000  1.2552000  3
   5105   5117   5129   5130     1  0.0000000  0.6508444  3
   5105   5117   5129   5131     1  0.0000000  0.6508444  3
   5106   5105   5104   5108     1  0.0000000  1.2552000  3
   5106   5105   5104   5111     1  0.0000000  1.2552000  3
   5106   5105   5117   5129     1  0.0000000  0.6508444  3
   5106   5105   5117   5118     1  0.0000000  0.6508444  3
   5106   5105   5117   5119     1  0.0000000  0.6508444  3
   5107   5105   5104   5108     1  0.0000000  1.2552000  3
   5107   5105   5104   5111     1  0.0000000  1.2552000  3
   5107   5105   5117   5129     1  0.0000000  0.6508444  3
   5107   5105   5117   5118     1  0.0000000  0.6508444  3
   5107   5105   5117   5119     1  0.0000000  0.6508444  3
   5108   5104   5111   5112     1  0.0000000  1.2552000  3
   5108   5104   5111   5113     1  0.0000000  1.2552000  3
   5108   5120   5126   5127     1  0.0000000  0.6508444  3
   5108   5120   5126   5128     1  0.0000000  0.6508444  3
   5109   5108   5104   5111     1  0.0000000  1.2552000  3
   5109   5108   5120   5126     1  0.0000000  0.6508444  3
   5109   5108   5120   5121     1  0.0000000  0.6508444  3
   5109   5108   5120   5122     1  0.0000000  0.6508444  3
   5110   5108   5104   5111     1  0.0000000  1.2552000  3
   5110   5108   5120   5126     1  0.0000000  0.6508444  3
   5110   5108   5120   5121     1  0.0000000  0.6508444  3
   5110   5108   5120   5122     1  0.0000000  0.6508444  3
   5111   5114   5123   5124     1  0.0000000  0.6508444  3
   5111   5114   5123   5125     1  0.0000000  0.6508444  3
   5112   5111   5114   5123     1  0.0000000  0.6508444  3
   5112   5111   5114   5115     1  0.0000000  0.6508444  3
   5112   5111   5114   5116     1  0.0000000  0.6508444  3
   5113   5111   5114   5123     1  0.0000000  0.6508444  3
   5113   5111   5114   5115     1  0.0000000  0.6508444  3
   5113   5111   5114   5116     1  0.0000000  0.6508444  3
   5115   5114   5123   5132     1  0.0000000  1.0460000  1
   5115   5114   5123   5132     1  0.0000000  0.0000000  3
   5115   5114   5123   5124     1  0.0000000  0.6508444  3
   5115   5114   5123   5125     1  0.0000000  0.6508444  3
   5116   5114   5123   5132     1  0.0000000  1.0460000  1
   5116   5114   5123   5132     1  0.0000000  0.0000000  3
   5116   5114   5123   5124     1  0.0000000  0.6508444  3
   5116   5114   5123   5125     1  0.0000000  0.6508444  3
   5118   5117   5129  10323     1  0.0000000  1.0460000  1
   5118   5117   5129  10323     1  0.0000000  0.0000000  3
   5118   5117   5129   5130     1  0.0000000  0.6508444  3
   5118   5117   5129   5131     1  0.0000000  0.6508444  3
   5119   5117   5129  10323     1  0.0000000  1.0460000  1
   5119   5117   5129  10323     1  0.0000000  0.0000000  3
   5119   5117   5129   5130     1  0.0000000  0.6508444  3
   5119   5117   5129   5131     1  0.0000000  0.6508444  3
   5121   5120   5126  10294     1  0.0000000  1.0460000  1
   5121   5120   5126  10294     1  0.0000000  0.0000000  3
   5121   5120   5126   5127     1  0.0000000  0.6508444  3
   5121   5120   5126   5128     1  0.0000000  0.6508444  3
   5122   5120   5126  10294     1  0.0000000  1.0460000  1
   5122   5120   5126  10294     1  0.0000000  0.0000000  3
   5122   5120   5126   5127     1  0.0000000  0.6508444  3
   5122   5120   5126   5128     1  0.0000000  0.6508444  3
   5126  10294  10266  10267     1  0.0000000  1.6038667  3
   5126  10294  10266  10268     1  0.0000000  1.6038667  3
   5127   5126  10294  10266     1  0.0000000  1.6038667  3
   5128   5126  10294  10266     1  0.0000000  1.6038667  3
   5129  10323  10295  10296     1  0.0000000  1.6038667  3
   5129  10323  10295  10297     1  0.0000000  1.6038667  3
   5130   5129  10323  10295     1  0.0000000  1.6038667  3
   5131   5129  10323  10295     1  0.0000000  1.6038667  3
   5133   5134   5146   5147     1  0.0000000  0.6508444  3
   5133   5134   5146   5148     1  0.0000000  0.6508444  3
   5133   5137   5149   5150     1  0.0000000  0.6508444  3
   5133   5137   5149   5151     1  0.0000000  0.6508444  3
   5133   5140   5143   5144     1  0.0000000  0.6508444  3
   5133   5140   5143   5145     1  0.0000000  0.6508444  3
   5134   5133   5137   5138     1  0.0000000  1.2552000  3
   5134   5133   5137   5139     1  0.0000000  1.2552000  3
   5134   5133   5140   5141     1  0.0000000  1.2552000  3
   5134   5133   5140   5142     1  0.0000000  1.2552000  3
   5134   5146   5158   5159     1  0.0000000  0.6508444  3
   5134   5146   5158   5160     1  0.0000000  0.6508444  3
   5135   5134   5133   5137     1  0.0000000  1.2552000  3
   5135   5134   5133   5140     1  0.0000000  1.2552000  3
   5135   5134   5146   5158     1  0.0000000  0.6508444  3
   5135   5134   5146   5147     1  0.0000000  0.6508444  3
   5135   5134   5146   5148     1  0.0000000  0.6508444  3
   5136   5134   5133   5137     1  0.0000000  1.2552000  3
   5136   5134   5133   5140     1  0.0000000  1.2552000  3
   5136   5134   5146   5158     1  0.0000000  0.6508444  3
   5136   5134   5146   5147     1  0.0000000  0.6508444  3
   5136   5134   5146   5148     1  0.0000000  0.6508444  3
   5137   5133   5140   5141     1  0.0000000  1.2552000  3
   5137   5133   5140   5142     1  0.0000000  1.2552000  3
   5137   5149   5155   5156     1  0.0000000  0.6508444  3
   5137   5149   5155   5157     1  0.0000000  0.6508444  3
   5138   5137   5133   5140     1  0.0000000  1.2552000  3
   5138   5137   5149   5155     1  0.0000000  0.6508444  3
   5138   5137   5149   5150     1  0.0000000  0.6508444  3
   5138   5137   5149   5151     1  0.0000000  0.6508444  3
   5139   5137   5133   5140     1  0.0000000  1.2552000  3
   5139   5137   5149   5155     1  0.0000000  0.6508444  3
   5139   5137   5149   5150     1  0.0000000  0.6508444  3
   5139   5137   5149   5151     1  0.0000000  0.6508444  3
   5140   5143   5152   5153     1  0.0000000  0.6508444  3
   5140   5143   5152   5154     1  0.0000000  0.6508444  3
   5141   5140   5143   5152     1  0.0000000  0.6508444  3
   5141   5140   5143   5144     1  0.0000000  0.6508444  3
   5141   5140   5143   5145     1  0.0000000  0.6508444  3
   5142   5140   5143   5152     1  0.0000000  0.6508444  3
   5142   5140   5143   5144     1  0.0000000  0.6508444  3
   5142   5140   5143   5145     1  0.0000000  0.6508444  3
   5144   5143   5152   5161     1  0.0000000  1.0460000  1
   5144   5143   5152   5161     1  0.0000000  0.0000000  3
   5144   5143   5152   5153     1  0.0000000  0.6508444  3
   5144   5143   5152   5154     1  0.0000000  0.6508444  3
   5145   5143   5152   5161     1  0.0000000  1.0460000  1
   5145   5143   5152   5161     1  0.0000000  0.0000000  3
   5145   5143   5152   5153     1  0.0000000  0.6508444  3
   5145   5143   5152   5154     1  0.0000000  0.6508444  3
   5147   5146   5158  10381     1  0.0000000  1.0460000  1
   5147   5146   5158  10381     1  0.0000000  0.0000000  3
   5147   5146   5158   5159     1  0.0000000  0.6508444  3
   5147   5146   5158   5160     1  0.0000000  0.6508444  3
   5148   5146   5158  10381     1  0.0000000  1.0460000  1
   5148   5146   5158  10381     1  0.0000000  0.0000000  3
   5148   5146   5158   5159     1  0.0000000  0.6508444  3
   5148   5146   5158   5160     1  0.0000000  0.6508444  3
   5150   5149   5155  10352     1  0.0000000  1.0460000  1
   5150   5149   5155  10352     1  0.0000000  0.0000000  3
   5150   5149   5155   5156     1  0.0000000  0.6508444  3
   5150   5149   5155   5157     1  0.0000000  0.6508444  3
   5151   5149   5155  10352     1  0.0000000  1.0460000  1
   5151   5149   5155  10352     1  0.0000000  0.0000000  3
   5151   5149   5155   5156     1  0.0000000  0.6508444  3
   5151   5149   5155   5157     1  0.0000000  0.6508444  3
   5155  10352  10324  10325     1  0.0000000  1.6038667  3
   5155  10352  10324  10326     1  0.0000000  1.6038667  3
   5156   5155  10352  10324     1  0.0000000  1.6038667  3
   5157   5155  10352  10324     1  0.0000000  1.6038667  3
   5158  10381  10353  10354     1  0.0000000  1.6038667  3
   5158  10381  10353  10355     1  0.0000000  1.6038667  3
   5159   5158  10381  10353     1  0.0000000  1.6038667  3
   5160   5158  10381  10353     1  0.0000000  1.6038667  3
   5162   5163   5175   5176     1  0.0000000  0.6508444  3
   5162   5163   5175   5177     1  0.0000000  0.6508444  3
   5162   5166   5178   5179     1  0.0000000  0.6508444  3
   5162   5166   5178   5180     1  0.0000000  0.6508444  3
   5162   5169   5172   5173     1  0.0000000  0.6508444  3
   5162   5169   5172   5174     1  0.0000000  0.6508444  3
   5163   5162   5166   5167     1  0.0000000  1.2552000  3
   5163   5162   5166   5168     1  0.0000000  1.2552000  3
   5163   5162   5169   5170     1  0.0000000  1.2552000  3
   5163   5162   5169   5171     1  0.0000000  1.2552000  3
   5163   5175   5187   5188     1  0.0000000  0.6508444  3
   5163   5175   5187   5189     1  0.0000000  0.6508444  3
   5164   5163   5162   5166     1  0.0000000  1.2552000  3
   5164   5163   5162   5169     1  0.0000000  1.2552000  3
   5164   5163   5175   5187     1  0.0000000  0.6508444  3
   5164   5163   5175   5176     1  0.0000000  0.6508444  3
   5164   5163   5175   5177     1  0.0000000  0.6508444  3
   5165   5163   5162   5166     1  0.0000000  1.2552000  3
   5165   5163   5162   5169     1  0.0000000  1.2552000  3
   5165   5163   5175   5187     1  0.0000000  0.6508444  3
   5165   5163   5175   5176     1  0.0000000  0.6508444  3
   5165   5163   5175   5177     1  0.0000000  0.6508444  3
   5166   5162   5169   5170     1  0.0000000  1.2552000  3
   5166   5162   5169   5171     1  0.0000000  1.2552000  3
   5166   5178   5184   5185     1  0.0000000  0.6508444  3
   5166   5178   5184   5186     1  0.0000000  0.6508444  3
   5167   5166   5162   5169     1  0.0000000  1.2552000  3
   5167   5166   5178   5184     1  0.0000000  0.6508444  3
   5167   5166   5178   5179     1  0.0000000  0.6508444  3
   5167   5166   5178   5180     1  0.0000000  0.6508444  3
   5168   5166   5162   5169     1  0.0000000  1.2552000  3
   5168   5166   5178   5184     1  0.0000000  0.6508444  3
   5168   5166   5178   5179     1  0.0000000  0.6508444  3
   5168   5166   5178   5180     1  0.0000000  0.6508444  3
   5169   5172   5181   5182     1  0.0000000  0.6508444  3
   5169   5172   5181   5183     1  0.0000000  0.6508444  3
   5170   5169   5172   5181     1  0.0000000  0.6508444  3
   5170   5169   5172   5173     1  0.0000000  0.6508444  3
   5170   5169   5172   5174     1  0.0000000  0.6508444  3
   5171   5169   5172   5181     1  0.0000000  0.6508444  3
   5171   5169   5172   5173     1  0.0000000  0.6508444  3
   5171   5169   5172   5174     1  0.0000000  0.6508444  3
   5173   5172   5181   5190     1  0.0000000  1.0460000  1
   5173   5172   5181   5190     1  0.0000000  0.0000000  3
   5173   5172   5181   5182     1  0.0000000  0.6508444  3
   5173   5172   5181   5183     1  0.0000000  0.6508444  3
   5174   5172   5181   5190     1  0.0000000  1.0460000  1
   5174   5172   5181   5190     1  0.0000000  0.0000000  3
   5174   5172   5181   5182     1  0.0000000  0.6508444  3
   5174   5172   5181   5183     1  0.0000000  0.6508444  3
   5176   5175   5187  10439     1  0.0000000  1.0460000  1
   5176   5175   5187  10439     1  0.0000000  0.0000000  3
   5176   5175   5187   5188     1  0.0000000  0.6508444  3
   5176   5175   5187   5189     1  0.0000000  0.6508444  3
   5177   5175   5187  10439     1  0.0000000  1.0460000  1
   5177   5175   5187  10439     1  0.0000000  0.0000000  3
   5177   5175   5187   5188     1  0.0000000  0.6508444  3
   5177   5175   5187   5189     1  0.0000000  0.6508444  3
   5179   5178   5184  10410     1  0.0000000  1.0460000  1
   5179   5178   5184  10410     1  0.0000000  0.0000000  3
   5179   5178   5184   5185     1  0.0000000  0.6508444  3
   5179   5178   5184   5186     1  0.0000000  0.6508444  3
   5180   5178   5184  10410     1  0.0000000  1.0460000  1
   5180   5178   5184  10410     1  0.0000000  0.0000000  3
   5180   5178   5184   5185     1  0.0000000  0.6508444  3
   5180   5178   5184   5186     1  0.0000000  0.6508444  3
   5184  10410  10382  10383     1  0.0000000  1.6038667  3
   5184  10410  10382  10384     1  0.0000000  1.6038667  3
   5185   5184  10410  10382     1  0.0000000  1.6038667  3
   5186   5184  10410  10382     1  0.0000000  1.6038667  3
   5187  10439  10411  10412     1  0.0000000  1.6038667  3
   5187  10439  10411  10413     1  0.0000000  1.6038667  3
   5188   5187  10439  10411     1  0.0000000  1.6038667  3
   5189   5187  10439  10411     1  0.0000000  1.6038667  3
   5191   5192   5204   5205     1  0.0000000  0.6508444  3
   5191   5192   5204   5206     1  0.0000000  0.6508444  3
   5191   5195   5207   5208     1  0.0000000  0.6508444  3
   5191   5195   5207   5209     1  0.0000000  0.6508444  3
   5191   5198   5201   5202     1  0.0000000  0.6508444  3
   5191   5198   5201   5203     1  0.0000000  0.6508444  3
   5192   5191   5195   5196     1  0.0000000  1.2552000  3
   5192   5191   5195   5197     1  0.0000000  1.2552000  3
   5192   5191   5198   5199     1  0.0000000  1.2552000  3
   5192   5191   5198   5200     1  0.0000000  1.2552000  3
   5192   5204   5216   5217     1  0.0000000  0.6508444  3
   5192   5204   5216   5218     1  0.0000000  0.6508444  3
   5193   5192   5191   5195     1  0.0000000  1.2552000  3
   5193   5192   5191   5198     1  0.0000000  1.2552000  3
   5193   5192   5204   5216     1  0.0000000  0.6508444  3
   5193   5192   5204   5205     1  0.0000000  0.6508444  3
   5193   5192   5204   5206     1  0.0000000  0.6508444  3
   5194   5192   5191   5195     1  0.0000000  1.2552000  3
   5194   5192   5191   5198     1  0.0000000  1.2552000  3
   5194   5192   5204   5216     1  0.0000000  0.6508444  3
   5194   5192   5204   5205     1  0.0000000  0.6508444  3
   5194   5192   5204   5206     1  0.0000000  0.6508444  3
   5195   5191   5198   5199     1  0.0000000  1.2552000  3
   5195   5191   5198   5200     1  0.0000000  1.2552000  3
   5195   5207   5213   5214     1  0.0000000  0.6508444  3
   5195   5207   5213   5215     1  0.0000000  0.6508444  3
   5196   5195   5191   5198     1  0.0000000  1.2552000  3
   5196   5195   5207   5213     1  0.0000000  0.6508444  3
   5196   5195   5207   5208     1  0.0000000  0.6508444  3
   5196   5195   5207   5209     1  0.0000000  0.6508444  3
   5197   5195   5191   5198     1  0.0000000  1.2552000  3
   5197   5195   5207   5213     1  0.0000000  0.6508444  3
   5197   5195   5207   5208     1  0.0000000  0.6508444  3
   5197   5195   5207   5209     1  0.0000000  0.6508444  3
   5198   5201   5210   5211     1  0.0000000  0.6508444  3
   5198   5201   5210   5212     1  0.0000000  0.6508444  3
   5199   5198   5201   5210     1  0.0000000  0.6508444  3
   5199   5198   5201   5202     1  0.0000000  0.6508444  3
   5199   5198   5201   5203     1  0.0000000  0.6508444  3
   5200   5198   5201   5210     1  0.0000000  0.6508444  3
   5200   5198   5201   5202     1  0.0000000  0.6508444  3
   5200   5198   5201   5203     1  0.0000000  0.6508444  3
   5202   5201   5210   5219     1  0.0000000  1.0460000  1
   5202   5201   5210   5219     1  0.0000000  0.0000000  3
   5202   5201   5210   5211     1  0.0000000  0.6508444  3
   5202   5201   5210   5212     1  0.0000000  0.6508444  3
   5203   5201   5210   5219     1  0.0000000  1.0460000  1
   5203   5201   5210   5219     1  0.0000000  0.0000000  3
   5203   5201   5210   5211     1  0.0000000  0.6508444  3
   5203   5201   5210   5212     1  0.0000000  0.6508444  3
   5205   5204   5216  10497     1  0.0000000  1.0460000  1
   5205   5204   5216  10497     1  0.0000000  0.0000000  3
   5205   5204   5216   5217     1  0.0000000  0.6508444  3
   5205   5204   5216   5218     1  0.0000000  0.6508444  3
   5206   5204   5216  10497     1  0.0000000  1.0460000  1
   5206   5204   5216  10497     1  0.0000000  0.0000000  3
   5206   5204   5216   5217     1  0.0000000  0.6508444  3
   5206   5204   5216   5218     1  0.0000000  0.6508444  3
   5208   5207   5213  10468     1  0.0000000  1.0460000  1
   5208   5207   5213  10468     1  0.0000000  0.0000000  3
   5208   5207   5213   5214     1  0.0000000  0.6508444  3
   5208   5207   5213   5215     1  0.0000000  0.6508444  3
   5209   5207   5213  10468     1  0.0000000  1.0460000  1
   5209   5207   5213  10468     1  0.0000000  0.0000000  3
   5209   5207   5213   5214     1  0.0000000  0.6508444  3
   5209   5207   5213   5215     1  0.0000000  0.6508444  3
   5213  10468  10440  10441     1  0.0000000  1.6038667  3
   5213  10468  10440  10442     1  0.0000000  1.6038667  3
   5214   5213  10468  10440     1  0.0000000  1.6038667  3
   5215   5213  10468  10440     1  0.0000000  1.6038667  3
   5216  10497  10469  10470     1  0.0000000  1.6038667  3
   5216  10497  10469  10471     1  0.0000000  1.6038667  3
   5217   5216  10497  10469     1  0.0000000  1.6038667  3
   5218   5216  10497  10469     1  0.0000000  1.6038667  3
   5220   5221   5233   5234     1  0.0000000  0.6508444  3
   5220   5221   5233   5235     1  0.0000000  0.6508444  3
   5220   5224   5236   5237     1  0.0000000  0.6508444  3
   5220   5224   5236   5238     1  0.0000000  0.6508444  3
   5220   5227   5230   5231     1  0.0000000  0.6508444  3
   5220   5227   5230   5232     1  0.0000000  0.6508444  3
   5221   5220   5224   5225     1  0.0000000  1.2552000  3
   5221   5220   5224   5226     1  0.0000000  1.2552000  3
   5221   5220   5227   5228     1  0.0000000  1.2552000  3
   5221   5220   5227   5229     1  0.0000000  1.2552000  3
   5221   5233   5245   5246     1  0.0000000  0.6508444  3
   5221   5233   5245   5247     1  0.0000000  0.6508444  3
   5222   5221   5220   5224     1  0.0000000  1.2552000  3
   5222   5221   5220   5227     1  0.0000000  1.2552000  3
   5222   5221   5233   5245     1  0.0000000  0.6508444  3
   5222   5221   5233   5234     1  0.0000000  0.6508444  3
   5222   5221   5233   5235     1  0.0000000  0.6508444  3
   5223   5221   5220   5224     1  0.0000000  1.2552000  3
   5223   5221   5220   5227     1  0.0000000  1.2552000  3
   5223   5221   5233   5245     1  0.0000000  0.6508444  3
   5223   5221   5233   5234     1  0.0000000  0.6508444  3
   5223   5221   5233   5235     1  0.0000000  0.6508444  3
   5224   5220   5227   5228     1  0.0000000  1.2552000  3
   5224   5220   5227   5229     1  0.0000000  1.2552000  3
   5224   5236   5242   5243     1  0.0000000  0.6508444  3
   5224   5236   5242   5244     1  0.0000000  0.6508444  3
   5225   5224   5220   5227     1  0.0000000  1.2552000  3
   5225   5224   5236   5242     1  0.0000000  0.6508444  3
   5225   5224   5236   5237     1  0.0000000  0.6508444  3
   5225   5224   5236   5238     1  0.0000000  0.6508444  3
   5226   5224   5220   5227     1  0.0000000  1.2552000  3
   5226   5224   5236   5242     1  0.0000000  0.6508444  3
   5226   5224   5236   5237     1  0.0000000  0.6508444  3
   5226   5224   5236   5238     1  0.0000000  0.6508444  3
   5227   5230   5239   5240     1  0.0000000  0.6508444  3
   5227   5230   5239   5241     1  0.0000000  0.6508444  3
   5228   5227   5230   5239     1  0.0000000  0.6508444  3
   5228   5227   5230   5231     1  0.0000000  0.6508444  3
   5228   5227   5230   5232     1  0.0000000  0.6508444  3
   5229   5227   5230   5239     1  0.0000000  0.6508444  3
   5229   5227   5230   5231     1  0.0000000  0.6508444  3
   5229   5227   5230   5232     1  0.0000000  0.6508444  3
   5231   5230   5239   5248     1  0.0000000  1.0460000  1
   5231   5230   5239   5248     1  0.0000000  0.0000000  3
   5231   5230   5239   5240     1  0.0000000  0.6508444  3
   5231   5230   5239   5241     1  0.0000000  0.6508444  3
   5232   5230   5239   5248     1  0.0000000  1.0460000  1
   5232   5230   5239   5248     1  0.0000000  0.0000000  3
   5232   5230   5239   5240     1  0.0000000  0.6508444  3
   5232   5230   5239   5241     1  0.0000000  0.6508444  3
   5234   5233   5245  10555     1  0.0000000  1.0460000  1
   5234   5233   5245  10555     1  0.0000000  0.0000000  3
   5234   5233   5245   5246     1  0.0000000  0.6508444  3
   5234   5233   5245   5247     1  0.0000000  0.6508444  3
   5235   5233   5245  10555     1  0.0000000  1.0460000  1
   5235   5233   5245  10555     1  0.0000000  0.0000000  3
   5235   5233   5245   5246     1  0.0000000  0.6508444  3
   5235   5233   5245   5247     1  0.0000000  0.6508444  3
   5237   5236   5242  10526     1  0.0000000  1.0460000  1
   5237   5236   5242  10526     1  0.0000000  0.0000000  3
   5237   5236   5242   5243     1  0.0000000  0.6508444  3
   5237   5236   5242   5244     1  0.0000000  0.6508444  3
   5238   5236   5242  10526     1  0.0000000  1.0460000  1
   5238   5236   5242  10526     1  0.0000000  0.0000000  3
   5238   5236   5242   5243     1  0.0000000  0.6508444  3
   5238   5236   5242   5244     1  0.0000000  0.6508444  3
   5242  10526  10498  10499     1  0.0000000  1.6038667  3
   5242  10526  10498  10500     1  0.0000000  1.6038667  3
   5243   5242  10526  10498     1  0.0000000  1.6038667  3
   5244   5242  10526  10498     1  0.0000000  1.6038667  3
   5245  10555  10527  10528     1  0.0000000  1.6038667  3
   5245  10555  10527  10529     1  0.0000000  1.6038667  3
   5246   5245  10555  10527     1  0.0000000  1.6038667  3
   5247   5245  10555  10527     1  0.0000000  1.6038667  3
   5249   5250   5262   5263     1  0.0000000  0.6508444  3
   5249   5250   5262   5264     1  0.0000000  0.6508444  3
   5249   5253   5265   5266     1  0.0000000  0.6508444  3
   5249   5253   5265   5267     1  0.0000000  0.6508444  3
   5249   5256   5259   5260     1  0.0000000  0.6508444  3
   5249   5256   5259   5261     1  0.0000000  0.6508444  3
   5250   5249   5253   5254     1  0.0000000  1.2552000  3
   5250   5249   5253   5255     1  0.0000000  1.2552000  3
   5250   5249   5256   5257     1  0.0000000  1.2552000  3
   5250   5249   5256   5258     1  0.0000000  1.2552000  3
   5250   5262   5274   5275     1  0.0000000  0.6508444  3
   5250   5262   5274   5276     1  0.0000000  0.6508444  3
   5251   5250   5249   5253     1  0.0000000  1.2552000  3
   5251   5250   5249   5256     1  0.0000000  1.2552000  3
   5251   5250   5262   5274     1  0.0000000  0.6508444  3
   5251   5250   5262   5263     1  0.0000000  0.6508444  3
   5251   5250   5262   5264     1  0.0000000  0.6508444  3
   5252   5250   5249   5253     1  0.0000000  1.2552000  3
   5252   5250   5249   5256     1  0.0000000  1.2552000  3
   5252   5250   5262   5274     1  0.0000000  0.6508444  3
   5252   5250   5262   5263     1  0.0000000  0.6508444  3
   5252   5250   5262   5264     1  0.0000000  0.6508444  3
   5253   5249   5256   5257     1  0.0000000  1.2552000  3
   5253   5249   5256   5258     1  0.0000000  1.2552000  3
   5253   5265   5271   5272     1  0.0000000  0.6508444  3
   5253   5265   5271   5273     1  0.0000000  0.6508444  3
   5254   5253   5249   5256     1  0.0000000  1.2552000  3
   5254   5253   5265   5271     1  0.0000000  0.6508444  3
   5254   5253   5265   5266     1  0.0000000  0.6508444  3
   5254   5253   5265   5267     1  0.0000000  0.6508444  3
   5255   5253   5249   5256     1  0.0000000  1.2552000  3
   5255   5253   5265   5271     1  0.0000000  0.6508444  3
   5255   5253   5265   5266     1  0.0000000  0.6508444  3
   5255   5253   5265   5267     1  0.0000000  0.6508444  3
   5256   5259   5268   5269     1  0.0000000  0.6508444  3
   5256   5259   5268   5270     1  0.0000000  0.6508444  3
   5257   5256   5259   5268     1  0.0000000  0.6508444  3
   5257   5256   5259   5260     1  0.0000000  0.6508444  3
   5257   5256   5259   5261     1  0.0000000  0.6508444  3
   5258   5256   5259   5268     1  0.0000000  0.6508444  3
   5258   5256   5259   5260     1  0.0000000  0.6508444  3
   5258   5256   5259   5261     1  0.0000000  0.6508444  3
   5260   5259   5268   5277     1  0.0000000  1.0460000  1
   5260   5259   5268   5277     1  0.0000000  0.0000000  3
   5260   5259   5268   5269     1  0.0000000  0.6508444  3
   5260   5259   5268   5270     1  0.0000000  0.6508444  3
   5261   5259   5268   5277     1  0.0000000  1.0460000  1
   5261   5259   5268   5277     1  0.0000000  0.0000000  3
   5261   5259   5268   5269     1  0.0000000  0.6508444  3
   5261   5259   5268   5270     1  0.0000000  0.6508444  3
   5263   5262   5274  10613     1  0.0000000  1.0460000  1
   5263   5262   5274  10613     1  0.0000000  0.0000000  3
   5263   5262   5274   5275     1  0.0000000  0.6508444  3
   5263   5262   5274   5276     1  0.0000000  0.6508444  3
   5264   5262   5274  10613     1  0.0000000  1.0460000  1
   5264   5262   5274  10613     1  0.0000000  0.0000000  3
   5264   5262   5274   5275     1  0.0000000  0.6508444  3
   5264   5262   5274   5276     1  0.0000000  0.6508444  3
   5266   5265   5271  10584     1  0.0000000  1.0460000  1
   5266   5265   5271  10584     1  0.0000000  0.0000000  3
   5266   5265   5271   5272     1  0.0000000  0.6508444  3
   5266   5265   5271   5273     1  0.0000000  0.6508444  3
   5267   5265   5271  10584     1  0.0000000  1.0460000  1
   5267   5265   5271  10584     1  0.0000000  0.0000000  3
   5267   5265   5271   5272     1  0.0000000  0.6508444  3
   5267   5265   5271   5273     1  0.0000000  0.6508444  3
   5271  10584  10556  10557     1  0.0000000  1.6038667  3
   5271  10584  10556  10558     1  0.0000000  1.6038667  3
   5272   5271  10584  10556     1  0.0000000  1.6038667  3
   5273   5271  10584  10556     1  0.0000000  1.6038667  3
   5274  10613  10585  10586     1  0.0000000  1.6038667  3
   5274  10613  10585  10587     1  0.0000000  1.6038667  3
   5275   5274  10613  10585     1  0.0000000  1.6038667  3
   5276   5274  10613  10585     1  0.0000000  1.6038667  3
   5278   5279   5291   5292     1  0.0000000  0.6508444  3
   5278   5279   5291   5293     1  0.0000000  0.6508444  3
   5278   5282   5294   5295     1  0.0000000  0.6508444  3
   5278   5282   5294   5296     1  0.0000000  0.6508444  3
   5278   5285   5288   5289     1  0.0000000  0.6508444  3
   5278   5285   5288   5290     1  0.0000000  0.6508444  3
   5279   5278   5282   5283     1  0.0000000  1.2552000  3
   5279   5278   5282   5284     1  0.0000000  1.2552000  3
   5279   5278   5285   5286     1  0.0000000  1.2552000  3
   5279   5278   5285   5287     1  0.0000000  1.2552000  3
   5279   5291   5303   5304     1  0.0000000  0.6508444  3
   5279   5291   5303   5305     1  0.0000000  0.6508444  3
   5280   5279   5278   5282     1  0.0000000  1.2552000  3
   5280   5279   5278   5285     1  0.0000000  1.2552000  3
   5280   5279   5291   5303     1  0.0000000  0.6508444  3
   5280   5279   5291   5292     1  0.0000000  0.6508444  3
   5280   5279   5291   5293     1  0.0000000  0.6508444  3
   5281   5279   5278   5282     1  0.0000000  1.2552000  3
   5281   5279   5278   5285     1  0.0000000  1.2552000  3
   5281   5279   5291   5303     1  0.0000000  0.6508444  3
   5281   5279   5291   5292     1  0.0000000  0.6508444  3
   5281   5279   5291   5293     1  0.0000000  0.6508444  3
   5282   5278   5285   5286     1  0.0000000  1.2552000  3
   5282   5278   5285   5287     1  0.0000000  1.2552000  3
   5282   5294   5300   5301     1  0.0000000  0.6508444  3
   5282   5294   5300   5302     1  0.0000000  0.6508444  3
   5283   5282   5278   5285     1  0.0000000  1.2552000  3
   5283   5282   5294   5300     1  0.0000000  0.6508444  3
   5283   5282   5294   5295     1  0.0000000  0.6508444  3
   5283   5282   5294   5296     1  0.0000000  0.6508444  3
   5284   5282   5278   5285     1  0.0000000  1.2552000  3
   5284   5282   5294   5300     1  0.0000000  0.6508444  3
   5284   5282   5294   5295     1  0.0000000  0.6508444  3
   5284   5282   5294   5296     1  0.0000000  0.6508444  3
   5285   5288   5297   5298     1  0.0000000  0.6508444  3
   5285   5288   5297   5299     1  0.0000000  0.6508444  3
   5286   5285   5288   5297     1  0.0000000  0.6508444  3
   5286   5285   5288   5289     1  0.0000000  0.6508444  3
   5286   5285   5288   5290     1  0.0000000  0.6508444  3
   5287   5285   5288   5297     1  0.0000000  0.6508444  3
   5287   5285   5288   5289     1  0.0000000  0.6508444  3
   5287   5285   5288   5290     1  0.0000000  0.6508444  3
   5289   5288   5297   5306     1  0.0000000  1.0460000  1
   5289   5288   5297   5306     1  0.0000000  0.0000000  3
   5289   5288   5297   5298     1  0.0000000  0.6508444  3
   5289   5288   5297   5299     1  0.0000000  0.6508444  3
   5290   5288   5297   5306     1  0.0000000  1.0460000  1
   5290   5288   5297   5306     1  0.0000000  0.0000000  3
   5290   5288   5297   5298     1  0.0000000  0.6508444  3
   5290   5288   5297   5299     1  0.0000000  0.6508444  3
   5292   5291   5303  10671     1  0.0000000  1.0460000  1
   5292   5291   5303  10671     1  0.0000000  0.0000000  3
   5292   5291   5303   5304     1  0.0000000  0.6508444  3
   5292   5291   5303   5305     1  0.0000000  0.6508444  3
   5293   5291   5303  10671     1  0.0000000  1.0460000  1
   5293   5291   5303  10671     1  0.0000000  0.0000000  3
   5293   5291   5303   5304     1  0.0000000  0.6508444  3
   5293   5291   5303   5305     1  0.0000000  0.6508444  3
   5295   5294   5300  10642     1  0.0000000  1.0460000  1
   5295   5294   5300  10642     1  0.0000000  0.0000000  3
   5295   5294   5300   5301     1  0.0000000  0.6508444  3
   5295   5294   5300   5302     1  0.0000000  0.6508444  3
   5296   5294   5300  10642     1  0.0000000  1.0460000  1
   5296   5294   5300  10642     1  0.0000000  0.0000000  3
   5296   5294   5300   5301     1  0.0000000  0.6508444  3
   5296   5294   5300   5302     1  0.0000000  0.6508444  3
   5300  10642  10614  10615     1  0.0000000  1.6038667  3
   5300  10642  10614  10616     1  0.0000000  1.6038667  3
   5301   5300  10642  10614     1  0.0000000  1.6038667  3
   5302   5300  10642  10614     1  0.0000000  1.6038667  3
   5303  10671  10643  10644     1  0.0000000  1.6038667  3
   5303  10671  10643  10645     1  0.0000000  1.6038667  3
   5304   5303  10671  10643     1  0.0000000  1.6038667  3
   5305   5303  10671  10643     1  0.0000000  1.6038667  3
   5307   5308   5320   5321     1  0.0000000  0.6508444  3
   5307   5308   5320   5322     1  0.0000000  0.6508444  3
   5307   5311   5323   5324     1  0.0000000  0.6508444  3
   5307   5311   5323   5325     1  0.0000000  0.6508444  3
   5307   5314   5317   5318     1  0.0000000  0.6508444  3
   5307   5314   5317   5319     1  0.0000000  0.6508444  3
   5308   5307   5311   5312     1  0.0000000  1.2552000  3
   5308   5307   5311   5313     1  0.0000000  1.2552000  3
   5308   5307   5314   5315     1  0.0000000  1.2552000  3
   5308   5307   5314   5316     1  0.0000000  1.2552000  3
   5308   5320   5332   5333     1  0.0000000  0.6508444  3
   5308   5320   5332   5334     1  0.0000000  0.6508444  3
   5309   5308   5307   5311     1  0.0000000  1.2552000  3
   5309   5308   5307   5314     1  0.0000000  1.2552000  3
   5309   5308   5320   5332     1  0.0000000  0.6508444  3
   5309   5308   5320   5321     1  0.0000000  0.6508444  3
   5309   5308   5320   5322     1  0.0000000  0.6508444  3
   5310   5308   5307   5311     1  0.0000000  1.2552000  3
   5310   5308   5307   5314     1  0.0000000  1.2552000  3
   5310   5308   5320   5332     1  0.0000000  0.6508444  3
   5310   5308   5320   5321     1  0.0000000  0.6508444  3
   5310   5308   5320   5322     1  0.0000000  0.6508444  3
   5311   5307   5314   5315     1  0.0000000  1.2552000  3
   5311   5307   5314   5316     1  0.0000000  1.2552000  3
   5311   5323   5329   5330     1  0.0000000  0.6508444  3
   5311   5323   5329   5331     1  0.0000000  0.6508444  3
   5312   5311   5307   5314     1  0.0000000  1.2552000  3
   5312   5311   5323   5329     1  0.0000000  0.6508444  3
   5312   5311   5323   5324     1  0.0000000  0.6508444  3
   5312   5311   5323   5325     1  0.0000000  0.6508444  3
   5313   5311   5307   5314     1  0.0000000  1.2552000  3
   5313   5311   5323   5329     1  0.0000000  0.6508444  3
   5313   5311   5323   5324     1  0.0000000  0.6508444  3
   5313   5311   5323   5325     1  0.0000000  0.6508444  3
   5314   5317   5326   5327     1  0.0000000  0.6508444  3
   5314   5317   5326   5328     1  0.0000000  0.6508444  3
   5315   5314   5317   5326     1  0.0000000  0.6508444  3
   5315   5314   5317   5318     1  0.0000000  0.6508444  3
   5315   5314   5317   5319     1  0.0000000  0.6508444  3
   5316   5314   5317   5326     1  0.0000000  0.6508444  3
   5316   5314   5317   5318     1  0.0000000  0.6508444  3
   5316   5314   5317   5319     1  0.0000000  0.6508444  3
   5318   5317   5326   5335     1  0.0000000  1.0460000  1
   5318   5317   5326   5335     1  0.0000000  0.0000000  3
   5318   5317   5326   5327     1  0.0000000  0.6508444  3
   5318   5317   5326   5328     1  0.0000000  0.6508444  3
   5319   5317   5326   5335     1  0.0000000  1.0460000  1
   5319   5317   5326   5335     1  0.0000000  0.0000000  3
   5319   5317   5326   5327     1  0.0000000  0.6508444  3
   5319   5317   5326   5328     1  0.0000000  0.6508444  3
   5321   5320   5332  10729     1  0.0000000  1.0460000  1
   5321   5320   5332  10729     1  0.0000000  0.0000000  3
   5321   5320   5332   5333     1  0.0000000  0.6508444  3
   5321   5320   5332   5334     1  0.0000000  0.6508444  3
   5322   5320   5332  10729     1  0.0000000  1.0460000  1
   5322   5320   5332  10729     1  0.0000000  0.0000000  3
   5322   5320   5332   5333     1  0.0000000  0.6508444  3
   5322   5320   5332   5334     1  0.0000000  0.6508444  3
   5324   5323   5329  10700     1  0.0000000  1.0460000  1
   5324   5323   5329  10700     1  0.0000000  0.0000000  3
   5324   5323   5329   5330     1  0.0000000  0.6508444  3
   5324   5323   5329   5331     1  0.0000000  0.6508444  3
   5325   5323   5329  10700     1  0.0000000  1.0460000  1
   5325   5323   5329  10700     1  0.0000000  0.0000000  3
   5325   5323   5329   5330     1  0.0000000  0.6508444  3
   5325   5323   5329   5331     1  0.0000000  0.6508444  3
   5329  10700  10672  10673     1  0.0000000  1.6038667  3
   5329  10700  10672  10674     1  0.0000000  1.6038667  3
   5330   5329  10700  10672     1  0.0000000  1.6038667  3
   5331   5329  10700  10672     1  0.0000000  1.6038667  3
   5332  10729  10701  10702     1  0.0000000  1.6038667  3
   5332  10729  10701  10703     1  0.0000000  1.6038667  3
   5333   5332  10729  10701     1  0.0000000  1.6038667  3
   5334   5332  10729  10701     1  0.0000000  1.6038667  3
   5336   5337   5349   5350     1  0.0000000  0.6508444  3
   5336   5337   5349   5351     1  0.0000000  0.6508444  3
   5336   5340   5352   5353     1  0.0000000  0.6508444  3
   5336   5340   5352   5354     1  0.0000000  0.6508444  3
   5336   5343   5346   5347     1  0.0000000  0.6508444  3
   5336   5343   5346   5348     1  0.0000000  0.6508444  3
   5337   5336   5340   5341     1  0.0000000  1.2552000  3
   5337   5336   5340   5342     1  0.0000000  1.2552000  3
   5337   5336   5343   5344     1  0.0000000  1.2552000  3
   5337   5336   5343   5345     1  0.0000000  1.2552000  3
   5337   5349   5361   5362     1  0.0000000  0.6508444  3
   5337   5349   5361   5363     1  0.0000000  0.6508444  3
   5338   5337   5336   5340     1  0.0000000  1.2552000  3
   5338   5337   5336   5343     1  0.0000000  1.2552000  3
   5338   5337   5349   5361     1  0.0000000  0.6508444  3
   5338   5337   5349   5350     1  0.0000000  0.6508444  3
   5338   5337   5349   5351     1  0.0000000  0.6508444  3
   5339   5337   5336   5340     1  0.0000000  1.2552000  3
   5339   5337   5336   5343     1  0.0000000  1.2552000  3
   5339   5337   5349   5361     1  0.0000000  0.6508444  3
   5339   5337   5349   5350     1  0.0000000  0.6508444  3
   5339   5337   5349   5351     1  0.0000000  0.6508444  3
   5340   5336   5343   5344     1  0.0000000  1.2552000  3
   5340   5336   5343   5345     1  0.0000000  1.2552000  3
   5340   5352   5358   5359     1  0.0000000  0.6508444  3
   5340   5352   5358   5360     1  0.0000000  0.6508444  3
   5341   5340   5336   5343     1  0.0000000  1.2552000  3
   5341   5340   5352   5358     1  0.0000000  0.6508444  3
   5341   5340   5352   5353     1  0.0000000  0.6508444  3
   5341   5340   5352   5354     1  0.0000000  0.6508444  3
   5342   5340   5336   5343     1  0.0000000  1.2552000  3
   5342   5340   5352   5358     1  0.0000000  0.6508444  3
   5342   5340   5352   5353     1  0.0000000  0.6508444  3
   5342   5340   5352   5354     1  0.0000000  0.6508444  3
   5343   5346   5355   5356     1  0.0000000  0.6508444  3
   5343   5346   5355   5357     1  0.0000000  0.6508444  3
   5344   5343   5346   5355     1  0.0000000  0.6508444  3
   5344   5343   5346   5347     1  0.0000000  0.6508444  3
   5344   5343   5346   5348     1  0.0000000  0.6508444  3
   5345   5343   5346   5355     1  0.0000000  0.6508444  3
   5345   5343   5346   5347     1  0.0000000  0.6508444  3
   5345   5343   5346   5348     1  0.0000000  0.6508444  3
   5347   5346   5355   5364     1  0.0000000  1.0460000  1
   5347   5346   5355   5364     1  0.0000000  0.0000000  3
   5347   5346   5355   5356     1  0.0000000  0.6508444  3
   5347   5346   5355   5357     1  0.0000000  0.6508444  3
   5348   5346   5355   5364     1  0.0000000  1.0460000  1
   5348   5346   5355   5364     1  0.0000000  0.0000000  3
   5348   5346   5355   5356     1  0.0000000  0.6508444  3
   5348   5346   5355   5357     1  0.0000000  0.6508444  3
   5350   5349   5361  10787     1  0.0000000  1.0460000  1
   5350   5349   5361  10787     1  0.0000000  0.0000000  3
   5350   5349   5361   5362     1  0.0000000  0.6508444  3
   5350   5349   5361   5363     1  0.0000000  0.6508444  3
   5351   5349   5361  10787     1  0.0000000  1.0460000  1
   5351   5349   5361  10787     1  0.0000000  0.0000000  3
   5351   5349   5361   5362     1  0.0000000  0.6508444  3
   5351   5349   5361   5363     1  0.0000000  0.6508444  3
   5353   5352   5358  10758     1  0.0000000  1.0460000  1
   5353   5352   5358  10758     1  0.0000000  0.0000000  3
   5353   5352   5358   5359     1  0.0000000  0.6508444  3
   5353   5352   5358   5360     1  0.0000000  0.6508444  3
   5354   5352   5358  10758     1  0.0000000  1.0460000  1
   5354   5352   5358  10758     1  0.0000000  0.0000000  3
   5354   5352   5358   5359     1  0.0000000  0.6508444  3
   5354   5352   5358   5360     1  0.0000000  0.6508444  3
   5358  10758  10730  10731     1  0.0000000  1.6038667  3
   5358  10758  10730  10732     1  0.0000000  1.6038667  3
   5359   5358  10758  10730     1  0.0000000  1.6038667  3
   5360   5358  10758  10730     1  0.0000000  1.6038667  3
   5361  10787  10759  10760     1  0.0000000  1.6038667  3
   5361  10787  10759  10761     1  0.0000000  1.6038667  3
   5362   5361  10787  10759     1  0.0000000  1.6038667  3
   5363   5361  10787  10759     1  0.0000000  1.6038667  3
   5365   5366   5378   5379     1  0.0000000  0.6508444  3
   5365   5366   5378   5380     1  0.0000000  0.6508444  3
   5365   5369   5381   5382     1  0.0000000  0.6508444  3
   5365   5369   5381   5383     1  0.0000000  0.6508444  3
   5365   5372   5375   5376     1  0.0000000  0.6508444  3
   5365   5372   5375   5377     1  0.0000000  0.6508444  3
   5366   5365   5369   5370     1  0.0000000  1.2552000  3
   5366   5365   5369   5371     1  0.0000000  1.2552000  3
   5366   5365   5372   5373     1  0.0000000  1.2552000  3
   5366   5365   5372   5374     1  0.0000000  1.2552000  3
   5366   5378   5390   5391     1  0.0000000  0.6508444  3
   5366   5378   5390   5392     1  0.0000000  0.6508444  3
   5367   5366   5365   5369     1  0.0000000  1.2552000  3
   5367   5366   5365   5372     1  0.0000000  1.2552000  3
   5367   5366   5378   5390     1  0.0000000  0.6508444  3
   5367   5366   5378   5379     1  0.0000000  0.6508444  3
   5367   5366   5378   5380     1  0.0000000  0.6508444  3
   5368   5366   5365   5369     1  0.0000000  1.2552000  3
   5368   5366   5365   5372     1  0.0000000  1.2552000  3
   5368   5366   5378   5390     1  0.0000000  0.6508444  3
   5368   5366   5378   5379     1  0.0000000  0.6508444  3
   5368   5366   5378   5380     1  0.0000000  0.6508444  3
   5369   5365   5372   5373     1  0.0000000  1.2552000  3
   5369   5365   5372   5374     1  0.0000000  1.2552000  3
   5369   5381   5387   5388     1  0.0000000  0.6508444  3
   5369   5381   5387   5389     1  0.0000000  0.6508444  3
   5370   5369   5365   5372     1  0.0000000  1.2552000  3
   5370   5369   5381   5387     1  0.0000000  0.6508444  3
   5370   5369   5381   5382     1  0.0000000  0.6508444  3
   5370   5369   5381   5383     1  0.0000000  0.6508444  3
   5371   5369   5365   5372     1  0.0000000  1.2552000  3
   5371   5369   5381   5387     1  0.0000000  0.6508444  3
   5371   5369   5381   5382     1  0.0000000  0.6508444  3
   5371   5369   5381   5383     1  0.0000000  0.6508444  3
   5372   5375   5384   5385     1  0.0000000  0.6508444  3
   5372   5375   5384   5386     1  0.0000000  0.6508444  3
   5373   5372   5375   5384     1  0.0000000  0.6508444  3
   5373   5372   5375   5376     1  0.0000000  0.6508444  3
   5373   5372   5375   5377     1  0.0000000  0.6508444  3
   5374   5372   5375   5384     1  0.0000000  0.6508444  3
   5374   5372   5375   5376     1  0.0000000  0.6508444  3
   5374   5372   5375   5377     1  0.0000000  0.6508444  3
   5376   5375   5384   5393     1  0.0000000  1.0460000  1
   5376   5375   5384   5393     1  0.0000000  0.0000000  3
   5376   5375   5384   5385     1  0.0000000  0.6508444  3
   5376   5375   5384   5386     1  0.0000000  0.6508444  3
   5377   5375   5384   5393     1  0.0000000  1.0460000  1
   5377   5375   5384   5393     1  0.0000000  0.0000000  3
   5377   5375   5384   5385     1  0.0000000  0.6508444  3
   5377   5375   5384   5386     1  0.0000000  0.6508444  3
   5379   5378   5390  10845     1  0.0000000  1.0460000  1
   5379   5378   5390  10845     1  0.0000000  0.0000000  3
   5379   5378   5390   5391     1  0.0000000  0.6508444  3
   5379   5378   5390   5392     1  0.0000000  0.6508444  3
   5380   5378   5390  10845     1  0.0000000  1.0460000  1
   5380   5378   5390  10845     1  0.0000000  0.0000000  3
   5380   5378   5390   5391     1  0.0000000  0.6508444  3
   5380   5378   5390   5392     1  0.0000000  0.6508444  3
   5382   5381   5387  10816     1  0.0000000  1.0460000  1
   5382   5381   5387  10816     1  0.0000000  0.0000000  3
   5382   5381   5387   5388     1  0.0000000  0.6508444  3
   5382   5381   5387   5389     1  0.0000000  0.6508444  3
   5383   5381   5387  10816     1  0.0000000  1.0460000  1
   5383   5381   5387  10816     1  0.0000000  0.0000000  3
   5383   5381   5387   5388     1  0.0000000  0.6508444  3
   5383   5381   5387   5389     1  0.0000000  0.6508444  3
   5387  10816  10788  10789     1  0.0000000  1.6038667  3
   5387  10816  10788  10790     1  0.0000000  1.6038667  3
   5388   5387  10816  10788     1  0.0000000  1.6038667  3
   5389   5387  10816  10788     1  0.0000000  1.6038667  3
   5390  10845  10817  10818     1  0.0000000  1.6038667  3
   5390  10845  10817  10819     1  0.0000000  1.6038667  3
   5391   5390  10845  10817     1  0.0000000  1.6038667  3
   5392   5390  10845  10817     1  0.0000000  1.6038667  3
   5394   5395   5407   5408     1  0.0000000  0.6508444  3
   5394   5395   5407   5409     1  0.0000000  0.6508444  3
   5394   5398   5410   5411     1  0.0000000  0.6508444  3
   5394   5398   5410   5412     1  0.0000000  0.6508444  3
   5394   5401   5404   5405     1  0.0000000  0.6508444  3
   5394   5401   5404   5406     1  0.0000000  0.6508444  3
   5395   5394   5398   5399     1  0.0000000  1.2552000  3
   5395   5394   5398   5400     1  0.0000000  1.2552000  3
   5395   5394   5401   5402     1  0.0000000  1.2552000  3
   5395   5394   5401   5403     1  0.0000000  1.2552000  3
   5395   5407   5419   5420     1  0.0000000  0.6508444  3
   5395   5407   5419   5421     1  0.0000000  0.6508444  3
   5396   5395   5394   5398     1  0.0000000  1.2552000  3
   5396   5395   5394   5401     1  0.0000000  1.2552000  3
   5396   5395   5407   5419     1  0.0000000  0.6508444  3
   5396   5395   5407   5408     1  0.0000000  0.6508444  3
   5396   5395   5407   5409     1  0.0000000  0.6508444  3
   5397   5395   5394   5398     1  0.0000000  1.2552000  3
   5397   5395   5394   5401     1  0.0000000  1.2552000  3
   5397   5395   5407   5419     1  0.0000000  0.6508444  3
   5397   5395   5407   5408     1  0.0000000  0.6508444  3
   5397   5395   5407   5409     1  0.0000000  0.6508444  3
   5398   5394   5401   5402     1  0.0000000  1.2552000  3
   5398   5394   5401   5403     1  0.0000000  1.2552000  3
   5398   5410   5416   5417     1  0.0000000  0.6508444  3
   5398   5410   5416   5418     1  0.0000000  0.6508444  3
   5399   5398   5394   5401     1  0.0000000  1.2552000  3
   5399   5398   5410   5416     1  0.0000000  0.6508444  3
   5399   5398   5410   5411     1  0.0000000  0.6508444  3
   5399   5398   5410   5412     1  0.0000000  0.6508444  3
   5400   5398   5394   5401     1  0.0000000  1.2552000  3
   5400   5398   5410   5416     1  0.0000000  0.6508444  3
   5400   5398   5410   5411     1  0.0000000  0.6508444  3
   5400   5398   5410   5412     1  0.0000000  0.6508444  3
   5401   5404   5413   5414     1  0.0000000  0.6508444  3
   5401   5404   5413   5415     1  0.0000000  0.6508444  3
   5402   5401   5404   5413     1  0.0000000  0.6508444  3
   5402   5401   5404   5405     1  0.0000000  0.6508444  3
   5402   5401   5404   5406     1  0.0000000  0.6508444  3
   5403   5401   5404   5413     1  0.0000000  0.6508444  3
   5403   5401   5404   5405     1  0.0000000  0.6508444  3
   5403   5401   5404   5406     1  0.0000000  0.6508444  3
   5405   5404   5413   5422     1  0.0000000  1.0460000  1
   5405   5404   5413   5422     1  0.0000000  0.0000000  3
   5405   5404   5413   5414     1  0.0000000  0.6508444  3
   5405   5404   5413   5415     1  0.0000000  0.6508444  3
   5406   5404   5413   5422     1  0.0000000  1.0460000  1
   5406   5404   5413   5422     1  0.0000000  0.0000000  3
   5406   5404   5413   5414     1  0.0000000  0.6508444  3
   5406   5404   5413   5415     1  0.0000000  0.6508444  3
   5408   5407   5419  10903     1  0.0000000  1.0460000  1
   5408   5407   5419  10903     1  0.0000000  0.0000000  3
   5408   5407   5419   5420     1  0.0000000  0.6508444  3
   5408   5407   5419   5421     1  0.0000000  0.6508444  3
   5409   5407   5419  10903     1  0.0000000  1.0460000  1
   5409   5407   5419  10903     1  0.0000000  0.0000000  3
   5409   5407   5419   5420     1  0.0000000  0.6508444  3
   5409   5407   5419   5421     1  0.0000000  0.6508444  3
   5411   5410   5416  10874     1  0.0000000  1.0460000  1
   5411   5410   5416  10874     1  0.0000000  0.0000000  3
   5411   5410   5416   5417     1  0.0000000  0.6508444  3
   5411   5410   5416   5418     1  0.0000000  0.6508444  3
   5412   5410   5416  10874     1  0.0000000  1.0460000  1
   5412   5410   5416  10874     1  0.0000000  0.0000000  3
   5412   5410   5416   5417     1  0.0000000  0.6508444  3
   5412   5410   5416   5418     1  0.0000000  0.6508444  3
   5416  10874  10846  10847     1  0.0000000  1.6038667  3
   5416  10874  10846  10848     1  0.0000000  1.6038667  3
   5417   5416  10874  10846     1  0.0000000  1.6038667  3
   5418   5416  10874  10846     1  0.0000000  1.6038667  3
   5419  10903  10875  10876     1  0.0000000  1.6038667  3
   5419  10903  10875  10877     1  0.0000000  1.6038667  3
   5420   5419  10903  10875     1  0.0000000  1.6038667  3
   5421   5419  10903  10875     1  0.0000000  1.6038667  3
   5423   5424   5436   5437     1  0.0000000  0.6508444  3
   5423   5424   5436   5438     1  0.0000000  0.6508444  3
   5423   5427   5439   5440     1  0.0000000  0.6508444  3
   5423   5427   5439   5441     1  0.0000000  0.6508444  3
   5423   5430   5433   5434     1  0.0000000  0.6508444  3
   5423   5430   5433   5435     1  0.0000000  0.6508444  3
   5424   5423   5427   5428     1  0.0000000  1.2552000  3
   5424   5423   5427   5429     1  0.0000000  1.2552000  3
   5424   5423   5430   5431     1  0.0000000  1.2552000  3
   5424   5423   5430   5432     1  0.0000000  1.2552000  3
   5424   5436   5448   5449     1  0.0000000  0.6508444  3
   5424   5436   5448   5450     1  0.0000000  0.6508444  3
   5425   5424   5423   5427     1  0.0000000  1.2552000  3
   5425   5424   5423   5430     1  0.0000000  1.2552000  3
   5425   5424   5436   5448     1  0.0000000  0.6508444  3
   5425   5424   5436   5437     1  0.0000000  0.6508444  3
   5425   5424   5436   5438     1  0.0000000  0.6508444  3
   5426   5424   5423   5427     1  0.0000000  1.2552000  3
   5426   5424   5423   5430     1  0.0000000  1.2552000  3
   5426   5424   5436   5448     1  0.0000000  0.6508444  3
   5426   5424   5436   5437     1  0.0000000  0.6508444  3
   5426   5424   5436   5438     1  0.0000000  0.6508444  3
   5427   5423   5430   5431     1  0.0000000  1.2552000  3
   5427   5423   5430   5432     1  0.0000000  1.2552000  3
   5427   5439   5445   5446     1  0.0000000  0.6508444  3
   5427   5439   5445   5447     1  0.0000000  0.6508444  3
   5428   5427   5423   5430     1  0.0000000  1.2552000  3
   5428   5427   5439   5445     1  0.0000000  0.6508444  3
   5428   5427   5439   5440     1  0.0000000  0.6508444  3
   5428   5427   5439   5441     1  0.0000000  0.6508444  3
   5429   5427   5423   5430     1  0.0000000  1.2552000  3
   5429   5427   5439   5445     1  0.0000000  0.6508444  3
   5429   5427   5439   5440     1  0.0000000  0.6508444  3
   5429   5427   5439   5441     1  0.0000000  0.6508444  3
   5430   5433   5442   5443     1  0.0000000  0.6508444  3
   5430   5433   5442   5444     1  0.0000000  0.6508444  3
   5431   5430   5433   5442     1  0.0000000  0.6508444  3
   5431   5430   5433   5434     1  0.0000000  0.6508444  3
   5431   5430   5433   5435     1  0.0000000  0.6508444  3
   5432   5430   5433   5442     1  0.0000000  0.6508444  3
   5432   5430   5433   5434     1  0.0000000  0.6508444  3
   5432   5430   5433   5435     1  0.0000000  0.6508444  3
   5434   5433   5442   5451     1  0.0000000  1.0460000  1
   5434   5433   5442   5451     1  0.0000000  0.0000000  3
   5434   5433   5442   5443     1  0.0000000  0.6508444  3
   5434   5433   5442   5444     1  0.0000000  0.6508444  3
   5435   5433   5442   5451     1  0.0000000  1.0460000  1
   5435   5433   5442   5451     1  0.0000000  0.0000000  3
   5435   5433   5442   5443     1  0.0000000  0.6508444  3
   5435   5433   5442   5444     1  0.0000000  0.6508444  3
   5437   5436   5448  10961     1  0.0000000  1.0460000  1
   5437   5436   5448  10961     1  0.0000000  0.0000000  3
   5437   5436   5448   5449     1  0.0000000  0.6508444  3
   5437   5436   5448   5450     1  0.0000000  0.6508444  3
   5438   5436   5448  10961     1  0.0000000  1.0460000  1
   5438   5436   5448  10961     1  0.0000000  0.0000000  3
   5438   5436   5448   5449     1  0.0000000  0.6508444  3
   5438   5436   5448   5450     1  0.0000000  0.6508444  3
   5440   5439   5445  10932     1  0.0000000  1.0460000  1
   5440   5439   5445  10932     1  0.0000000  0.0000000  3
   5440   5439   5445   5446     1  0.0000000  0.6508444  3
   5440   5439   5445   5447     1  0.0000000  0.6508444  3
   5441   5439   5445  10932     1  0.0000000  1.0460000  1
   5441   5439   5445  10932     1  0.0000000  0.0000000  3
   5441   5439   5445   5446     1  0.0000000  0.6508444  3
   5441   5439   5445   5447     1  0.0000000  0.6508444  3
   5445  10932  10904  10905     1  0.0000000  1.6038667  3
   5445  10932  10904  10906     1  0.0000000  1.6038667  3
   5446   5445  10932  10904     1  0.0000000  1.6038667  3
   5447   5445  10932  10904     1  0.0000000  1.6038667  3
   5448  10961  10933  10934     1  0.0000000  1.6038667  3
   5448  10961  10933  10935     1  0.0000000  1.6038667  3
   5449   5448  10961  10933     1  0.0000000  1.6038667  3
   5450   5448  10961  10933     1  0.0000000  1.6038667  3
   5452   5453   5465   5466     1  0.0000000  0.6508444  3
   5452   5453   5465   5467     1  0.0000000  0.6508444  3
   5452   5456   5468   5469     1  0.0000000  0.6508444  3
   5452   5456   5468   5470     1  0.0000000  0.6508444  3
   5452   5459   5462   5463     1  0.0000000  0.6508444  3
   5452   5459   5462   5464     1  0.0000000  0.6508444  3
   5453   5452   5456   5457     1  0.0000000  1.2552000  3
   5453   5452   5456   5458     1  0.0000000  1.2552000  3
   5453   5452   5459   5460     1  0.0000000  1.2552000  3
   5453   5452   5459   5461     1  0.0000000  1.2552000  3
   5453   5465   5477   5478     1  0.0000000  0.6508444  3
   5453   5465   5477   5479     1  0.0000000  0.6508444  3
   5454   5453   5452   5456     1  0.0000000  1.2552000  3
   5454   5453   5452   5459     1  0.0000000  1.2552000  3
   5454   5453   5465   5477     1  0.0000000  0.6508444  3
   5454   5453   5465   5466     1  0.0000000  0.6508444  3
   5454   5453   5465   5467     1  0.0000000  0.6508444  3
   5455   5453   5452   5456     1  0.0000000  1.2552000  3
   5455   5453   5452   5459     1  0.0000000  1.2552000  3
   5455   5453   5465   5477     1  0.0000000  0.6508444  3
   5455   5453   5465   5466     1  0.0000000  0.6508444  3
   5455   5453   5465   5467     1  0.0000000  0.6508444  3
   5456   5452   5459   5460     1  0.0000000  1.2552000  3
   5456   5452   5459   5461     1  0.0000000  1.2552000  3
   5456   5468   5474   5475     1  0.0000000  0.6508444  3
   5456   5468   5474   5476     1  0.0000000  0.6508444  3
   5457   5456   5452   5459     1  0.0000000  1.2552000  3
   5457   5456   5468   5474     1  0.0000000  0.6508444  3
   5457   5456   5468   5469     1  0.0000000  0.6508444  3
   5457   5456   5468   5470     1  0.0000000  0.6508444  3
   5458   5456   5452   5459     1  0.0000000  1.2552000  3
   5458   5456   5468   5474     1  0.0000000  0.6508444  3
   5458   5456   5468   5469     1  0.0000000  0.6508444  3
   5458   5456   5468   5470     1  0.0000000  0.6508444  3
   5459   5462   5471   5472     1  0.0000000  0.6508444  3
   5459   5462   5471   5473     1  0.0000000  0.6508444  3
   5460   5459   5462   5471     1  0.0000000  0.6508444  3
   5460   5459   5462   5463     1  0.0000000  0.6508444  3
   5460   5459   5462   5464     1  0.0000000  0.6508444  3
   5461   5459   5462   5471     1  0.0000000  0.6508444  3
   5461   5459   5462   5463     1  0.0000000  0.6508444  3
   5461   5459   5462   5464     1  0.0000000  0.6508444  3
   5463   5462   5471   5480     1  0.0000000  1.0460000  1
   5463   5462   5471   5480     1  0.0000000  0.0000000  3
   5463   5462   5471   5472     1  0.0000000  0.6508444  3
   5463   5462   5471   5473     1  0.0000000  0.6508444  3
   5464   5462   5471   5480     1  0.0000000  1.0460000  1
   5464   5462   5471   5480     1  0.0000000  0.0000000  3
   5464   5462   5471   5472     1  0.0000000  0.6508444  3
   5464   5462   5471   5473     1  0.0000000  0.6508444  3
   5466   5465   5477  11019     1  0.0000000  1.0460000  1
   5466   5465   5477  11019     1  0.0000000  0.0000000  3
   5466   5465   5477   5478     1  0.0000000  0.6508444  3
   5466   5465   5477   5479     1  0.0000000  0.6508444  3
   5467   5465   5477  11019     1  0.0000000  1.0460000  1
   5467   5465   5477  11019     1  0.0000000  0.0000000  3
   5467   5465   5477   5478     1  0.0000000  0.6508444  3
   5467   5465   5477   5479     1  0.0000000  0.6508444  3
   5469   5468   5474  10990     1  0.0000000  1.0460000  1
   5469   5468   5474  10990     1  0.0000000  0.0000000  3
   5469   5468   5474   5475     1  0.0000000  0.6508444  3
   5469   5468   5474   5476     1  0.0000000  0.6508444  3
   5470   5468   5474  10990     1  0.0000000  1.0460000  1
   5470   5468   5474  10990     1  0.0000000  0.0000000  3
   5470   5468   5474   5475     1  0.0000000  0.6508444  3
   5470   5468   5474   5476     1  0.0000000  0.6508444  3
   5474  10990  10962  10963     1  0.0000000  1.6038667  3
   5474  10990  10962  10964     1  0.0000000  1.6038667  3
   5475   5474  10990  10962     1  0.0000000  1.6038667  3
   5476   5474  10990  10962     1  0.0000000  1.6038667  3
   5477  11019  10991  10992     1  0.0000000  1.6038667  3
   5477  11019  10991  10993     1  0.0000000  1.6038667  3
   5478   5477  11019  10991     1  0.0000000  1.6038667  3
   5479   5477  11019  10991     1  0.0000000  1.6038667  3
   5481   5482   5494   5495     1  0.0000000  0.6508444  3
   5481   5482   5494   5496     1  0.0000000  0.6508444  3
   5481   5485   5497   5498     1  0.0000000  0.6508444  3
   5481   5485   5497   5499     1  0.0000000  0.6508444  3
   5481   5488   5491   5492     1  0.0000000  0.6508444  3
   5481   5488   5491   5493     1  0.0000000  0.6508444  3
   5482   5481   5485   5486     1  0.0000000  1.2552000  3
   5482   5481   5485   5487     1  0.0000000  1.2552000  3
   5482   5481   5488   5489     1  0.0000000  1.2552000  3
   5482   5481   5488   5490     1  0.0000000  1.2552000  3
   5482   5494   5506   5507     1  0.0000000  0.6508444  3
   5482   5494   5506   5508     1  0.0000000  0.6508444  3
   5483   5482   5481   5485     1  0.0000000  1.2552000  3
   5483   5482   5481   5488     1  0.0000000  1.2552000  3
   5483   5482   5494   5506     1  0.0000000  0.6508444  3
   5483   5482   5494   5495     1  0.0000000  0.6508444  3
   5483   5482   5494   5496     1  0.0000000  0.6508444  3
   5484   5482   5481   5485     1  0.0000000  1.2552000  3
   5484   5482   5481   5488     1  0.0000000  1.2552000  3
   5484   5482   5494   5506     1  0.0000000  0.6508444  3
   5484   5482   5494   5495     1  0.0000000  0.6508444  3
   5484   5482   5494   5496     1  0.0000000  0.6508444  3
   5485   5481   5488   5489     1  0.0000000  1.2552000  3
   5485   5481   5488   5490     1  0.0000000  1.2552000  3
   5485   5497   5503   5504     1  0.0000000  0.6508444  3
   5485   5497   5503   5505     1  0.0000000  0.6508444  3
   5486   5485   5481   5488     1  0.0000000  1.2552000  3
   5486   5485   5497   5503     1  0.0000000  0.6508444  3
   5486   5485   5497   5498     1  0.0000000  0.6508444  3
   5486   5485   5497   5499     1  0.0000000  0.6508444  3
   5487   5485   5481   5488     1  0.0000000  1.2552000  3
   5487   5485   5497   5503     1  0.0000000  0.6508444  3
   5487   5485   5497   5498     1  0.0000000  0.6508444  3
   5487   5485   5497   5499     1  0.0000000  0.6508444  3
   5488   5491   5500   5501     1  0.0000000  0.6508444  3
   5488   5491   5500   5502     1  0.0000000  0.6508444  3
   5489   5488   5491   5500     1  0.0000000  0.6508444  3
   5489   5488   5491   5492     1  0.0000000  0.6508444  3
   5489   5488   5491   5493     1  0.0000000  0.6508444  3
   5490   5488   5491   5500     1  0.0000000  0.6508444  3
   5490   5488   5491   5492     1  0.0000000  0.6508444  3
   5490   5488   5491   5493     1  0.0000000  0.6508444  3
   5492   5491   5500   5509     1  0.0000000  1.0460000  1
   5492   5491   5500   5509     1  0.0000000  0.0000000  3
   5492   5491   5500   5501     1  0.0000000  0.6508444  3
   5492   5491   5500   5502     1  0.0000000  0.6508444  3
   5493   5491   5500   5509     1  0.0000000  1.0460000  1
   5493   5491   5500   5509     1  0.0000000  0.0000000  3
   5493   5491   5500   5501     1  0.0000000  0.6508444  3
   5493   5491   5500   5502     1  0.0000000  0.6508444  3
   5495   5494   5506  11077     1  0.0000000  1.0460000  1
   5495   5494   5506  11077     1  0.0000000  0.0000000  3
   5495   5494   5506   5507     1  0.0000000  0.6508444  3
   5495   5494   5506   5508     1  0.0000000  0.6508444  3
   5496   5494   5506  11077     1  0.0000000  1.0460000  1
   5496   5494   5506  11077     1  0.0000000  0.0000000  3
   5496   5494   5506   5507     1  0.0000000  0.6508444  3
   5496   5494   5506   5508     1  0.0000000  0.6508444  3
   5498   5497   5503  11048     1  0.0000000  1.0460000  1
   5498   5497   5503  11048     1  0.0000000  0.0000000  3
   5498   5497   5503   5504     1  0.0000000  0.6508444  3
   5498   5497   5503   5505     1  0.0000000  0.6508444  3
   5499   5497   5503  11048     1  0.0000000  1.0460000  1
   5499   5497   5503  11048     1  0.0000000  0.0000000  3
   5499   5497   5503   5504     1  0.0000000  0.6508444  3
   5499   5497   5503   5505     1  0.0000000  0.6508444  3
   5503  11048  11020  11021     1  0.0000000  1.6038667  3
   5503  11048  11020  11022     1  0.0000000  1.6038667  3
   5504   5503  11048  11020     1  0.0000000  1.6038667  3
   5505   5503  11048  11020     1  0.0000000  1.6038667  3
   5506  11077  11049  11050     1  0.0000000  1.6038667  3
   5506  11077  11049  11051     1  0.0000000  1.6038667  3
   5507   5506  11077  11049     1  0.0000000  1.6038667  3
   5508   5506  11077  11049     1  0.0000000  1.6038667  3
   5510   5513   5516   5517     1  0.0000000  0.6508444  3
   5510   5513   5516   5518     1  0.0000000  0.6508444  3
   5511   5510   5513   5516     1  0.0000000  0.6508444  3
   5511   5510   5513   5514     1  0.0000000  0.6508444  3
   5511   5510   5513   5515     1  0.0000000  0.6508444  3
   5512   5510   5513   5516     1  0.0000000  0.6508444  3
   5512   5510   5513   5514     1  0.0000000  0.6508444  3
   5512   5510   5513   5515     1  0.0000000  0.6508444  3
   5514   5513   5510   5538     1  0.0000000  1.0460000  1
   5514   5513   5510   5538     1  0.0000000  0.0000000  3
   5514   5513   5516   5519     1  0.0000000  0.6508444  3
   5514   5513   5516   5517     1  0.0000000  0.6508444  3
   5514   5513   5516   5518     1  0.0000000  0.6508444  3
   5515   5513   5510   5538     1  0.0000000  1.0460000  1
   5515   5513   5510   5538     1  0.0000000  0.0000000  3
   5515   5513   5516   5519     1  0.0000000  0.6508444  3
   5515   5513   5516   5517     1  0.0000000  0.6508444  3
   5515   5513   5516   5518     1  0.0000000  0.6508444  3
   5516   5519   5520   5521     1  0.0000000  1.2552000  3
   5516   5519   5520   5522     1  0.0000000  1.2552000  3
   5516   5519   5529   5530     1  0.0000000  1.2552000  3
   5516   5519   5529   5531     1  0.0000000  1.2552000  3
   5517   5516   5519   5520     1  0.0000000  1.2552000  3
   5517   5516   5519   5529     1  0.0000000  1.2552000  3
   5518   5516   5519   5520     1  0.0000000  1.2552000  3
   5518   5516   5519   5529     1  0.0000000  1.2552000  3
   5519   5520   5523   5524     1  0.0000000  0.6508444  3
   5519   5520   5523   5525     1  0.0000000  0.6508444  3
   5519   5529   5532   5533     1  0.0000000  0.6508444  3
   5519   5529   5532   5534     1  0.0000000  0.6508444  3
   5520   5519   5529   5530     1  0.0000000  1.2552000  3
   5520   5519   5529   5531     1  0.0000000  1.2552000  3
   5521   5520   5519   5529     1  0.0000000  1.2552000  3
   5521   5520   5523   5526     1  0.0000000  0.6508444  3
   5521   5520   5523   5524     1  0.0000000  0.6508444  3
   5521   5520   5523   5525     1  0.0000000  0.6508444  3
   5522   5520   5519   5529     1  0.0000000  1.2552000  3
   5522   5520   5523   5526     1  0.0000000  0.6508444  3
   5522   5520   5523   5524     1  0.0000000  0.6508444  3
   5522   5520   5523   5525     1  0.0000000  0.6508444  3
   5524   5523   5526   5527     1  0.0000000  3.3472000  1
   5524   5523   5526   5527     1  0.0000000  0.0000000  2
   5524   5523   5526   5527     1  180.0000771  0.3347200  3
   5524   5523   5526   5528     1  0.0000000  3.3472000  1
   5524   5523   5526   5528     1  0.0000000  0.0000000  2
   5524   5523   5526   5528     1  180.0000771  0.3347200  3
   5525   5523   5526   5527     1  0.0000000  3.3472000  1
   5525   5523   5526   5527     1  0.0000000  0.0000000  2
   5525   5523   5526   5527     1  180.0000771  0.3347200  3
   5525   5523   5526   5528     1  0.0000000  3.3472000  1
   5525   5523   5526   5528     1  0.0000000  0.0000000  2
   5525   5523   5526   5528     1  180.0000771  0.3347200  3
   5530   5529   5532   5535     1  0.0000000  0.6508444  3
   5530   5529   5532   5533     1  0.0000000  0.6508444  3
   5530   5529   5532   5534     1  0.0000000  0.6508444  3
   5531   5529   5532   5535     1  0.0000000  0.6508444  3
   5531   5529   5532   5533     1  0.0000000  0.6508444  3
   5531   5529   5532   5534     1  0.0000000  0.6508444  3
   5533   5532   5535   5536     1  0.0000000  3.3472000  1
   5533   5532   5535   5536     1  0.0000000  0.0000000  2
   5533   5532   5535   5536     1  180.0000771  0.3347200  3
   5533   5532   5535   5537     1  0.0000000  3.3472000  1
   5533   5532   5535   5537     1  0.0000000  0.0000000  2
   5533   5532   5535   5537     1  180.0000771  0.3347200  3
   5534   5532   5535   5536     1  0.0000000  3.3472000  1
   5534   5532   5535   5536     1  0.0000000  0.0000000  2
   5534   5532   5535   5536     1  180.0000771  0.3347200  3
   5534   5532   5535   5537     1  0.0000000  3.3472000  1
   5534   5532   5535   5537     1  0.0000000  0.0000000  2
   5534   5532   5535   5537     1  180.0000771  0.3347200  3
   5539   5542   5545   5546     1  0.0000000  0.6508444  3
   5539   5542   5545   5547     1  0.0000000  0.6508444  3
   5540   5539   5542   5545     1  0.0000000  0.6508444  3
   5540   5539   5542   5543     1  0.0000000  0.6508444  3
   5540   5539   5542   5544     1  0.0000000  0.6508444  3
   5541   5539   5542   5545     1  0.0000000  0.6508444  3
   5541   5539   5542   5543     1  0.0000000  0.6508444  3
   5541   5539   5542   5544     1  0.0000000  0.6508444  3
   5543   5542   5545   5548     1  0.0000000  0.6508444  3
   5543   5542   5545   5546     1  0.0000000  0.6508444  3
   5543   5542   5545   5547     1  0.0000000  0.6508444  3
   5543   5542   5539   5567     1  0.0000000  1.0460000  1
   5543   5542   5539   5567     1  0.0000000  0.0000000  3
   5544   5542   5545   5548     1  0.0000000  0.6508444  3
   5544   5542   5545   5546     1  0.0000000  0.6508444  3
   5544   5542   5545   5547     1  0.0000000  0.6508444  3
   5544   5542   5539   5567     1  0.0000000  1.0460000  1
   5544   5542   5539   5567     1  0.0000000  0.0000000  3
   5545   5548   5549   5550     1  0.0000000  1.2552000  3
   5545   5548   5549   5551     1  0.0000000  1.2552000  3
   5545   5548   5558   5559     1  0.0000000  1.2552000  3
   5545   5548   5558   5560     1  0.0000000  1.2552000  3
   5546   5545   5548   5549     1  0.0000000  1.2552000  3
   5546   5545   5548   5558     1  0.0000000  1.2552000  3
   5547   5545   5548   5549     1  0.0000000  1.2552000  3
   5547   5545   5548   5558     1  0.0000000  1.2552000  3
   5548   5549   5552   5553     1  0.0000000  0.6508444  3
   5548   5549   5552   5554     1  0.0000000  0.6508444  3
   5548   5558   5561   5562     1  0.0000000  0.6508444  3
   5548   5558   5561   5563     1  0.0000000  0.6508444  3
   5549   5548   5558   5559     1  0.0000000  1.2552000  3
   5549   5548   5558   5560     1  0.0000000  1.2552000  3
   5550   5549   5552   5555     1  0.0000000  0.6508444  3
   5550   5549   5552   5553     1  0.0000000  0.6508444  3
   5550   5549   5552   5554     1  0.0000000  0.6508444  3
   5550   5549   5548   5558     1  0.0000000  1.2552000  3
   5551   5549   5552   5555     1  0.0000000  0.6508444  3
   5551   5549   5552   5553     1  0.0000000  0.6508444  3
   5551   5549   5552   5554     1  0.0000000  0.6508444  3
   5551   5549   5548   5558     1  0.0000000  1.2552000  3
   5553   5552   5555   5556     1  0.0000000  3.3472000  1
   5553   5552   5555   5556     1  0.0000000  0.0000000  2
   5553   5552   5555   5556     1  180.0000771  0.3347200  3
   5553   5552   5555   5557     1  0.0000000  3.3472000  1
   5553   5552   5555   5557     1  0.0000000  0.0000000  2
   5553   5552   5555   5557     1  180.0000771  0.3347200  3
   5554   5552   5555   5556     1  0.0000000  3.3472000  1
   5554   5552   5555   5556     1  0.0000000  0.0000000  2
   5554   5552   5555   5556     1  180.0000771  0.3347200  3
   5554   5552   5555   5557     1  0.0000000  3.3472000  1
   5554   5552   5555   5557     1  0.0000000  0.0000000  2
   5554   5552   5555   5557     1  180.0000771  0.3347200  3
   5559   5558   5561   5564     1  0.0000000  0.6508444  3
   5559   5558   5561   5562     1  0.0000000  0.6508444  3
   5559   5558   5561   5563     1  0.0000000  0.6508444  3
   5560   5558   5561   5564     1  0.0000000  0.6508444  3
   5560   5558   5561   5562     1  0.0000000  0.6508444  3
   5560   5558   5561   5563     1  0.0000000  0.6508444  3
   5562   5561   5564   5565     1  0.0000000  3.3472000  1
   5562   5561   5564   5565     1  0.0000000  0.0000000  2
   5562   5561   5564   5565     1  180.0000771  0.3347200  3
   5562   5561   5564   5566     1  0.0000000  3.3472000  1
   5562   5561   5564   5566     1  0.0000000  0.0000000  2
   5562   5561   5564   5566     1  180.0000771  0.3347200  3
   5563   5561   5564   5565     1  0.0000000  3.3472000  1
   5563   5561   5564   5565     1  0.0000000  0.0000000  2
   5563   5561   5564   5565     1  180.0000771  0.3347200  3
   5563   5561   5564   5566     1  0.0000000  3.3472000  1
   5563   5561   5564   5566     1  0.0000000  0.0000000  2
   5563   5561   5564   5566     1  180.0000771  0.3347200  3
   5568   5571   5574   5575     1  0.0000000  0.6508444  3
   5568   5571   5574   5576     1  0.0000000  0.6508444  3
   5569   5568   5571   5574     1  0.0000000  0.6508444  3
   5569   5568   5571   5572     1  0.0000000  0.6508444  3
   5569   5568   5571   5573     1  0.0000000  0.6508444  3
   5570   5568   5571   5574     1  0.0000000  0.6508444  3
   5570   5568   5571   5572     1  0.0000000  0.6508444  3
   5570   5568   5571   5573     1  0.0000000  0.6508444  3
   5572   5571   5568   5596     1  0.0000000  1.0460000  1
   5572   5571   5568   5596     1  0.0000000  0.0000000  3
   5572   5571   5574   5577     1  0.0000000  0.6508444  3
   5572   5571   5574   5575     1  0.0000000  0.6508444  3
   5572   5571   5574   5576     1  0.0000000  0.6508444  3
   5573   5571   5568   5596     1  0.0000000  1.0460000  1
   5573   5571   5568   5596     1  0.0000000  0.0000000  3
   5573   5571   5574   5577     1  0.0000000  0.6508444  3
   5573   5571   5574   5575     1  0.0000000  0.6508444  3
   5573   5571   5574   5576     1  0.0000000  0.6508444  3
   5574   5577   5578   5579     1  0.0000000  1.2552000  3
   5574   5577   5578   5580     1  0.0000000  1.2552000  3
   5574   5577   5587   5588     1  0.0000000  1.2552000  3
   5574   5577   5587   5589     1  0.0000000  1.2552000  3
   5575   5574   5577   5578     1  0.0000000  1.2552000  3
   5575   5574   5577   5587     1  0.0000000  1.2552000  3
   5576   5574   5577   5578     1  0.0000000  1.2552000  3
   5576   5574   5577   5587     1  0.0000000  1.2552000  3
   5577   5578   5581   5582     1  0.0000000  0.6508444  3
   5577   5578   5581   5583     1  0.0000000  0.6508444  3
   5577   5587   5590   5591     1  0.0000000  0.6508444  3
   5577   5587   5590   5592     1  0.0000000  0.6508444  3
   5578   5577   5587   5588     1  0.0000000  1.2552000  3
   5578   5577   5587   5589     1  0.0000000  1.2552000  3
   5579   5578   5577   5587     1  0.0000000  1.2552000  3
   5579   5578   5581   5584     1  0.0000000  0.6508444  3
   5579   5578   5581   5582     1  0.0000000  0.6508444  3
   5579   5578   5581   5583     1  0.0000000  0.6508444  3
   5580   5578   5577   5587     1  0.0000000  1.2552000  3
   5580   5578   5581   5584     1  0.0000000  0.6508444  3
   5580   5578   5581   5582     1  0.0000000  0.6508444  3
   5580   5578   5581   5583     1  0.0000000  0.6508444  3
   5582   5581   5584   5585     1  0.0000000  3.3472000  1
   5582   5581   5584   5585     1  0.0000000  0.0000000  2
   5582   5581   5584   5585     1  180.0000771  0.3347200  3
   5582   5581   5584   5586     1  0.0000000  3.3472000  1
   5582   5581   5584   5586     1  0.0000000  0.0000000  2
   5582   5581   5584   5586     1  180.0000771  0.3347200  3
   5583   5581   5584   5585     1  0.0000000  3.3472000  1
   5583   5581   5584   5585     1  0.0000000  0.0000000  2
   5583   5581   5584   5585     1  180.0000771  0.3347200  3
   5583   5581   5584   5586     1  0.0000000  3.3472000  1
   5583   5581   5584   5586     1  0.0000000  0.0000000  2
   5583   5581   5584   5586     1  180.0000771  0.3347200  3
   5588   5587   5590   5593     1  0.0000000  0.6508444  3
   5588   5587   5590   5591     1  0.0000000  0.6508444  3
   5588   5587   5590   5592     1  0.0000000  0.6508444  3
   5589   5587   5590   5593     1  0.0000000  0.6508444  3
   5589   5587   5590   5591     1  0.0000000  0.6508444  3
   5589   5587   5590   5592     1  0.0000000  0.6508444  3
   5591   5590   5593   5594     1  0.0000000  3.3472000  1
   5591   5590   5593   5594     1  0.0000000  0.0000000  2
   5591   5590   5593   5594     1  180.0000771  0.3347200  3
   5591   5590   5593   5595     1  0.0000000  3.3472000  1
   5591   5590   5593   5595     1  0.0000000  0.0000000  2
   5591   5590   5593   5595     1  180.0000771  0.3347200  3
   5592   5590   5593   5594     1  0.0000000  3.3472000  1
   5592   5590   5593   5594     1  0.0000000  0.0000000  2
   5592   5590   5593   5594     1  180.0000771  0.3347200  3
   5592   5590   5593   5595     1  0.0000000  3.3472000  1
   5592   5590   5593   5595     1  0.0000000  0.0000000  2
   5592   5590   5593   5595     1  180.0000771  0.3347200  3
   5597   5600   5603   5604     1  0.0000000  0.6508444  3
   5597   5600   5603   5605     1  0.0000000  0.6508444  3
   5598   5597   5600   5603     1  0.0000000  0.6508444  3
   5598   5597   5600   5601     1  0.0000000  0.6508444  3
   5598   5597   5600   5602     1  0.0000000  0.6508444  3
   5599   5597   5600   5603     1  0.0000000  0.6508444  3
   5599   5597   5600   5601     1  0.0000000  0.6508444  3
   5599   5597   5600   5602     1  0.0000000  0.6508444  3
   5601   5600   5603   5606     1  0.0000000  0.6508444  3
   5601   5600   5603   5604     1  0.0000000  0.6508444  3
   5601   5600   5603   5605     1  0.0000000  0.6508444  3
   5601   5600   5597   5625     1  0.0000000  1.0460000  1
   5601   5600   5597   5625     1  0.0000000  0.0000000  3
   5602   5600   5603   5606     1  0.0000000  0.6508444  3
   5602   5600   5603   5604     1  0.0000000  0.6508444  3
   5602   5600   5603   5605     1  0.0000000  0.6508444  3
   5602   5600   5597   5625     1  0.0000000  1.0460000  1
   5602   5600   5597   5625     1  0.0000000  0.0000000  3
   5603   5606   5607   5608     1  0.0000000  1.2552000  3
   5603   5606   5607   5609     1  0.0000000  1.2552000  3
   5603   5606   5616   5617     1  0.0000000  1.2552000  3
   5603   5606   5616   5618     1  0.0000000  1.2552000  3
   5604   5603   5606   5607     1  0.0000000  1.2552000  3
   5604   5603   5606   5616     1  0.0000000  1.2552000  3
   5605   5603   5606   5607     1  0.0000000  1.2552000  3
   5605   5603   5606   5616     1  0.0000000  1.2552000  3
   5606   5607   5610   5611     1  0.0000000  0.6508444  3
   5606   5607   5610   5612     1  0.0000000  0.6508444  3
   5606   5616   5619   5620     1  0.0000000  0.6508444  3
   5606   5616   5619   5621     1  0.0000000  0.6508444  3
   5607   5606   5616   5617     1  0.0000000  1.2552000  3
   5607   5606   5616   5618     1  0.0000000  1.2552000  3
   5608   5607   5610   5613     1  0.0000000  0.6508444  3
   5608   5607   5610   5611     1  0.0000000  0.6508444  3
   5608   5607   5610   5612     1  0.0000000  0.6508444  3
   5608   5607   5606   5616     1  0.0000000  1.2552000  3
   5609   5607   5610   5613     1  0.0000000  0.6508444  3
   5609   5607   5610   5611     1  0.0000000  0.6508444  3
   5609   5607   5610   5612     1  0.0000000  0.6508444  3
   5609   5607   5606   5616     1  0.0000000  1.2552000  3
   5611   5610   5613   5614     1  0.0000000  3.3472000  1
   5611   5610   5613   5614     1  0.0000000  0.0000000  2
   5611   5610   5613   5614     1  180.0000771  0.3347200  3
   5611   5610   5613   5615     1  0.0000000  3.3472000  1
   5611   5610   5613   5615     1  0.0000000  0.0000000  2
   5611   5610   5613   5615     1  180.0000771  0.3347200  3
   5612   5610   5613   5614     1  0.0000000  3.3472000  1
   5612   5610   5613   5614     1  0.0000000  0.0000000  2
   5612   5610   5613   5614     1  180.0000771  0.3347200  3
   5612   5610   5613   5615     1  0.0000000  3.3472000  1
   5612   5610   5613   5615     1  0.0000000  0.0000000  2
   5612   5610   5613   5615     1  180.0000771  0.3347200  3
   5617   5616   5619   5622     1  0.0000000  0.6508444  3
   5617   5616   5619   5620     1  0.0000000  0.6508444  3
   5617   5616   5619   5621     1  0.0000000  0.6508444  3
   5618   5616   5619   5622     1  0.0000000  0.6508444  3
   5618   5616   5619   5620     1  0.0000000  0.6508444  3
   5618   5616   5619   5621     1  0.0000000  0.6508444  3
   5620   5619   5622   5623     1  0.0000000  3.3472000  1
   5620   5619   5622   5623     1  0.0000000  0.0000000  2
   5620   5619   5622   5623     1  180.0000771  0.3347200  3
   5620   5619   5622   5624     1  0.0000000  3.3472000  1
   5620   5619   5622   5624     1  0.0000000  0.0000000  2
   5620   5619   5622   5624     1  180.0000771  0.3347200  3
   5621   5619   5622   5623     1  0.0000000  3.3472000  1
   5621   5619   5622   5623     1  0.0000000  0.0000000  2
   5621   5619   5622   5623     1  180.0000771  0.3347200  3
   5621   5619   5622   5624     1  0.0000000  3.3472000  1
   5621   5619   5622   5624     1  0.0000000  0.0000000  2
   5621   5619   5622   5624     1  180.0000771  0.3347200  3
   5626   5629   5632   5633     1  0.0000000  0.6508444  3
   5626   5629   5632   5634     1  0.0000000  0.6508444  3
   5627   5626   5629   5632     1  0.0000000  0.6508444  3
   5627   5626   5629   5630     1  0.0000000  0.6508444  3
   5627   5626   5629   5631     1  0.0000000  0.6508444  3
   5628   5626   5629   5632     1  0.0000000  0.6508444  3
   5628   5626   5629   5630     1  0.0000000  0.6508444  3
   5628   5626   5629   5631     1  0.0000000  0.6508444  3
   5630   5629   5626   5654     1  0.0000000  1.0460000  1
   5630   5629   5626   5654     1  0.0000000  0.0000000  3
   5630   5629   5632   5635     1  0.0000000  0.6508444  3
   5630   5629   5632   5633     1  0.0000000  0.6508444  3
   5630   5629   5632   5634     1  0.0000000  0.6508444  3
   5631   5629   5626   5654     1  0.0000000  1.0460000  1
   5631   5629   5626   5654     1  0.0000000  0.0000000  3
   5631   5629   5632   5635     1  0.0000000  0.6508444  3
   5631   5629   5632   5633     1  0.0000000  0.6508444  3
   5631   5629   5632   5634     1  0.0000000  0.6508444  3
   5632   5635   5636   5637     1  0.0000000  1.2552000  3
   5632   5635   5636   5638     1  0.0000000  1.2552000  3
   5632   5635   5645   5646     1  0.0000000  1.2552000  3
   5632   5635   5645   5647     1  0.0000000  1.2552000  3
   5633   5632   5635   5636     1  0.0000000  1.2552000  3
   5633   5632   5635   5645     1  0.0000000  1.2552000  3
   5634   5632   5635   5636     1  0.0000000  1.2552000  3
   5634   5632   5635   5645     1  0.0000000  1.2552000  3
   5635   5636   5639   5640     1  0.0000000  0.6508444  3
   5635   5636   5639   5641     1  0.0000000  0.6508444  3
   5635   5645   5648   5649     1  0.0000000  0.6508444  3
   5635   5645   5648   5650     1  0.0000000  0.6508444  3
   5636   5635   5645   5646     1  0.0000000  1.2552000  3
   5636   5635   5645   5647     1  0.0000000  1.2552000  3
   5637   5636   5635   5645     1  0.0000000  1.2552000  3
   5637   5636   5639   5642     1  0.0000000  0.6508444  3
   5637   5636   5639   5640     1  0.0000000  0.6508444  3
   5637   5636   5639   5641     1  0.0000000  0.6508444  3
   5638   5636   5635   5645     1  0.0000000  1.2552000  3
   5638   5636   5639   5642     1  0.0000000  0.6508444  3
   5638   5636   5639   5640     1  0.0000000  0.6508444  3
   5638   5636   5639   5641     1  0.0000000  0.6508444  3
   5640   5639   5642   5643     1  0.0000000  3.3472000  1
   5640   5639   5642   5643     1  0.0000000  0.0000000  2
   5640   5639   5642   5643     1  180.0000771  0.3347200  3
   5640   5639   5642   5644     1  0.0000000  3.3472000  1
   5640   5639   5642   5644     1  0.0000000  0.0000000  2
   5640   5639   5642   5644     1  180.0000771  0.3347200  3
   5641   5639   5642   5643     1  0.0000000  3.3472000  1
   5641   5639   5642   5643     1  0.0000000  0.0000000  2
   5641   5639   5642   5643     1  180.0000771  0.3347200  3
   5641   5639   5642   5644     1  0.0000000  3.3472000  1
   5641   5639   5642   5644     1  0.0000000  0.0000000  2
   5641   5639   5642   5644     1  180.0000771  0.3347200  3
   5646   5645   5648   5651     1  0.0000000  0.6508444  3
   5646   5645   5648   5649     1  0.0000000  0.6508444  3
   5646   5645   5648   5650     1  0.0000000  0.6508444  3
   5647   5645   5648   5651     1  0.0000000  0.6508444  3
   5647   5645   5648   5649     1  0.0000000  0.6508444  3
   5647   5645   5648   5650     1  0.0000000  0.6508444  3
   5649   5648   5651   5652     1  0.0000000  3.3472000  1
   5649   5648   5651   5652     1  0.0000000  0.0000000  2
   5649   5648   5651   5652     1  180.0000771  0.3347200  3
   5649   5648   5651   5653     1  0.0000000  3.3472000  1
   5649   5648   5651   5653     1  0.0000000  0.0000000  2
   5649   5648   5651   5653     1  180.0000771  0.3347200  3
   5650   5648   5651   5652     1  0.0000000  3.3472000  1
   5650   5648   5651   5652     1  0.0000000  0.0000000  2
   5650   5648   5651   5652     1  180.0000771  0.3347200  3
   5650   5648   5651   5653     1  0.0000000  3.3472000  1
   5650   5648   5651   5653     1  0.0000000  0.0000000  2
   5650   5648   5651   5653     1  180.0000771  0.3347200  3
   5655   5658   5661   5662     1  0.0000000  0.6508444  3
   5655   5658   5661   5663     1  0.0000000  0.6508444  3
   5656   5655   5658   5661     1  0.0000000  0.6508444  3
   5656   5655   5658   5659     1  0.0000000  0.6508444  3
   5656   5655   5658   5660     1  0.0000000  0.6508444  3
   5657   5655   5658   5661     1  0.0000000  0.6508444  3
   5657   5655   5658   5659     1  0.0000000  0.6508444  3
   5657   5655   5658   5660     1  0.0000000  0.6508444  3
   5659   5658   5661   5664     1  0.0000000  0.6508444  3
   5659   5658   5661   5662     1  0.0000000  0.6508444  3
   5659   5658   5661   5663     1  0.0000000  0.6508444  3
   5659   5658   5655   5683     1  0.0000000  1.0460000  1
   5659   5658   5655   5683     1  0.0000000  0.0000000  3
   5660   5658   5661   5664     1  0.0000000  0.6508444  3
   5660   5658   5661   5662     1  0.0000000  0.6508444  3
   5660   5658   5661   5663     1  0.0000000  0.6508444  3
   5660   5658   5655   5683     1  0.0000000  1.0460000  1
   5660   5658   5655   5683     1  0.0000000  0.0000000  3
   5661   5664   5665   5666     1  0.0000000  1.2552000  3
   5661   5664   5665   5667     1  0.0000000  1.2552000  3
   5661   5664   5674   5675     1  0.0000000  1.2552000  3
   5661   5664   5674   5676     1  0.0000000  1.2552000  3
   5662   5661   5664   5665     1  0.0000000  1.2552000  3
   5662   5661   5664   5674     1  0.0000000  1.2552000  3
   5663   5661   5664   5665     1  0.0000000  1.2552000  3
   5663   5661   5664   5674     1  0.0000000  1.2552000  3
   5664   5665   5668   5669     1  0.0000000  0.6508444  3
   5664   5665   5668   5670     1  0.0000000  0.6508444  3
   5664   5674   5677   5678     1  0.0000000  0.6508444  3
   5664   5674   5677   5679     1  0.0000000  0.6508444  3
   5665   5664   5674   5675     1  0.0000000  1.2552000  3
   5665   5664   5674   5676     1  0.0000000  1.2552000  3
   5666   5665   5668   5671     1  0.0000000  0.6508444  3
   5666   5665   5668   5669     1  0.0000000  0.6508444  3
   5666   5665   5668   5670     1  0.0000000  0.6508444  3
   5666   5665   5664   5674     1  0.0000000  1.2552000  3
   5667   5665   5668   5671     1  0.0000000  0.6508444  3
   5667   5665   5668   5669     1  0.0000000  0.6508444  3
   5667   5665   5668   5670     1  0.0000000  0.6508444  3
   5667   5665   5664   5674     1  0.0000000  1.2552000  3
   5669   5668   5671   5672     1  0.0000000  3.3472000  1
   5669   5668   5671   5672     1  0.0000000  0.0000000  2
   5669   5668   5671   5672     1  180.0000771  0.3347200  3
   5669   5668   5671   5673     1  0.0000000  3.3472000  1
   5669   5668   5671   5673     1  0.0000000  0.0000000  2
   5669   5668   5671   5673     1  180.0000771  0.3347200  3
   5670   5668   5671   5672     1  0.0000000  3.3472000  1
   5670   5668   5671   5672     1  0.0000000  0.0000000  2
   5670   5668   5671   5672     1  180.0000771  0.3347200  3
   5670   5668   5671   5673     1  0.0000000  3.3472000  1
   5670   5668   5671   5673     1  0.0000000  0.0000000  2
   5670   5668   5671   5673     1  180.0000771  0.3347200  3
   5675   5674   5677   5680     1  0.0000000  0.6508444  3
   5675   5674   5677   5678     1  0.0000000  0.6508444  3
   5675   5674   5677   5679     1  0.0000000  0.6508444  3
   5676   5674   5677   5680     1  0.0000000  0.6508444  3
   5676   5674   5677   5678     1  0.0000000  0.6508444  3
   5676   5674   5677   5679     1  0.0000000  0.6508444  3
   5678   5677   5680   5681     1  0.0000000  3.3472000  1
   5678   5677   5680   5681     1  0.0000000  0.0000000  2
   5678   5677   5680   5681     1  180.0000771  0.3347200  3
   5678   5677   5680   5682     1  0.0000000  3.3472000  1
   5678   5677   5680   5682     1  0.0000000  0.0000000  2
   5678   5677   5680   5682     1  180.0000771  0.3347200  3
   5679   5677   5680   5681     1  0.0000000  3.3472000  1
   5679   5677   5680   5681     1  0.0000000  0.0000000  2
   5679   5677   5680   5681     1  180.0000771  0.3347200  3
   5679   5677   5680   5682     1  0.0000000  3.3472000  1
   5679   5677   5680   5682     1  0.0000000  0.0000000  2
   5679   5677   5680   5682     1  180.0000771  0.3347200  3
   5684   5687   5690   5691     1  0.0000000  0.6508444  3
   5684   5687   5690   5692     1  0.0000000  0.6508444  3
   5685   5684   5687   5690     1  0.0000000  0.6508444  3
   5685   5684   5687   5688     1  0.0000000  0.6508444  3
   5685   5684   5687   5689     1  0.0000000  0.6508444  3
   5686   5684   5687   5690     1  0.0000000  0.6508444  3
   5686   5684   5687   5688     1  0.0000000  0.6508444  3
   5686   5684   5687   5689     1  0.0000000  0.6508444  3
   5688   5687   5684   5712     1  0.0000000  1.0460000  1
   5688   5687   5684   5712     1  0.0000000  0.0000000  3
   5688   5687   5690   5693     1  0.0000000  0.6508444  3
   5688   5687   5690   5691     1  0.0000000  0.6508444  3
   5688   5687   5690   5692     1  0.0000000  0.6508444  3
   5689   5687   5684   5712     1  0.0000000  1.0460000  1
   5689   5687   5684   5712     1  0.0000000  0.0000000  3
   5689   5687   5690   5693     1  0.0000000  0.6508444  3
   5689   5687   5690   5691     1  0.0000000  0.6508444  3
   5689   5687   5690   5692     1  0.0000000  0.6508444  3
   5690   5693   5694   5695     1  0.0000000  1.2552000  3
   5690   5693   5694   5696     1  0.0000000  1.2552000  3
   5690   5693   5703   5704     1  0.0000000  1.2552000  3
   5690   5693   5703   5705     1  0.0000000  1.2552000  3
   5691   5690   5693   5694     1  0.0000000  1.2552000  3
   5691   5690   5693   5703     1  0.0000000  1.2552000  3
   5692   5690   5693   5694     1  0.0000000  1.2552000  3
   5692   5690   5693   5703     1  0.0000000  1.2552000  3
   5693   5694   5697   5698     1  0.0000000  0.6508444  3
   5693   5694   5697   5699     1  0.0000000  0.6508444  3
   5693   5703   5706   5707     1  0.0000000  0.6508444  3
   5693   5703   5706   5708     1  0.0000000  0.6508444  3
   5694   5693   5703   5704     1  0.0000000  1.2552000  3
   5694   5693   5703   5705     1  0.0000000  1.2552000  3
   5695   5694   5693   5703     1  0.0000000  1.2552000  3
   5695   5694   5697   5700     1  0.0000000  0.6508444  3
   5695   5694   5697   5698     1  0.0000000  0.6508444  3
   5695   5694   5697   5699     1  0.0000000  0.6508444  3
   5696   5694   5693   5703     1  0.0000000  1.2552000  3
   5696   5694   5697   5700     1  0.0000000  0.6508444  3
   5696   5694   5697   5698     1  0.0000000  0.6508444  3
   5696   5694   5697   5699     1  0.0000000  0.6508444  3
   5698   5697   5700   5701     1  0.0000000  3.3472000  1
   5698   5697   5700   5701     1  0.0000000  0.0000000  2
   5698   5697   5700   5701     1  180.0000771  0.3347200  3
   5698   5697   5700   5702     1  0.0000000  3.3472000  1
   5698   5697   5700   5702     1  0.0000000  0.0000000  2
   5698   5697   5700   5702     1  180.0000771  0.3347200  3
   5699   5697   5700   5701     1  0.0000000  3.3472000  1
   5699   5697   5700   5701     1  0.0000000  0.0000000  2
   5699   5697   5700   5701     1  180.0000771  0.3347200  3
   5699   5697   5700   5702     1  0.0000000  3.3472000  1
   5699   5697   5700   5702     1  0.0000000  0.0000000  2
   5699   5697   5700   5702     1  180.0000771  0.3347200  3
   5704   5703   5706   5709     1  0.0000000  0.6508444  3
   5704   5703   5706   5707     1  0.0000000  0.6508444  3
   5704   5703   5706   5708     1  0.0000000  0.6508444  3
   5705   5703   5706   5709     1  0.0000000  0.6508444  3
   5705   5703   5706   5707     1  0.0000000  0.6508444  3
   5705   5703   5706   5708     1  0.0000000  0.6508444  3
   5707   5706   5709   5710     1  0.0000000  3.3472000  1
   5707   5706   5709   5710     1  0.0000000  0.0000000  2
   5707   5706   5709   5710     1  180.0000771  0.3347200  3
   5707   5706   5709   5711     1  0.0000000  3.3472000  1
   5707   5706   5709   5711     1  0.0000000  0.0000000  2
   5707   5706   5709   5711     1  180.0000771  0.3347200  3
   5708   5706   5709   5710     1  0.0000000  3.3472000  1
   5708   5706   5709   5710     1  0.0000000  0.0000000  2
   5708   5706   5709   5710     1  180.0000771  0.3347200  3
   5708   5706   5709   5711     1  0.0000000  3.3472000  1
   5708   5706   5709   5711     1  0.0000000  0.0000000  2
   5708   5706   5709   5711     1  180.0000771  0.3347200  3
   5713   5716   5719   5720     1  0.0000000  0.6508444  3
   5713   5716   5719   5721     1  0.0000000  0.6508444  3
   5714   5713   5716   5719     1  0.0000000  0.6508444  3
   5714   5713   5716   5717     1  0.0000000  0.6508444  3
   5714   5713   5716   5718     1  0.0000000  0.6508444  3
   5715   5713   5716   5719     1  0.0000000  0.6508444  3
   5715   5713   5716   5717     1  0.0000000  0.6508444  3
   5715   5713   5716   5718     1  0.0000000  0.6508444  3
   5717   5716   5719   5722     1  0.0000000  0.6508444  3
   5717   5716   5719   5720     1  0.0000000  0.6508444  3
   5717   5716   5719   5721     1  0.0000000  0.6508444  3
   5717   5716   5713   5741     1  0.0000000  1.0460000  1
   5717   5716   5713   5741     1  0.0000000  0.0000000  3
   5718   5716   5719   5722     1  0.0000000  0.6508444  3
   5718   5716   5719   5720     1  0.0000000  0.6508444  3
   5718   5716   5719   5721     1  0.0000000  0.6508444  3
   5718   5716   5713   5741     1  0.0000000  1.0460000  1
   5718   5716   5713   5741     1  0.0000000  0.0000000  3
   5719   5722   5723   5724     1  0.0000000  1.2552000  3
   5719   5722   5723   5725     1  0.0000000  1.2552000  3
   5719   5722   5732   5733     1  0.0000000  1.2552000  3
   5719   5722   5732   5734     1  0.0000000  1.2552000  3
   5720   5719   5722   5723     1  0.0000000  1.2552000  3
   5720   5719   5722   5732     1  0.0000000  1.2552000  3
   5721   5719   5722   5723     1  0.0000000  1.2552000  3
   5721   5719   5722   5732     1  0.0000000  1.2552000  3
   5722   5723   5726   5727     1  0.0000000  0.6508444  3
   5722   5723   5726   5728     1  0.0000000  0.6508444  3
   5722   5732   5735   5736     1  0.0000000  0.6508444  3
   5722   5732   5735   5737     1  0.0000000  0.6508444  3
   5723   5722   5732   5733     1  0.0000000  1.2552000  3
   5723   5722   5732   5734     1  0.0000000  1.2552000  3
   5724   5723   5726   5729     1  0.0000000  0.6508444  3
   5724   5723   5726   5727     1  0.0000000  0.6508444  3
   5724   5723   5726   5728     1  0.0000000  0.6508444  3
   5724   5723   5722   5732     1  0.0000000  1.2552000  3
   5725   5723   5726   5729     1  0.0000000  0.6508444  3
   5725   5723   5726   5727     1  0.0000000  0.6508444  3
   5725   5723   5726   5728     1  0.0000000  0.6508444  3
   5725   5723   5722   5732     1  0.0000000  1.2552000  3
   5727   5726   5729   5730     1  0.0000000  3.3472000  1
   5727   5726   5729   5730     1  0.0000000  0.0000000  2
   5727   5726   5729   5730     1  180.0000771  0.3347200  3
   5727   5726   5729   5731     1  0.0000000  3.3472000  1
   5727   5726   5729   5731     1  0.0000000  0.0000000  2
   5727   5726   5729   5731     1  180.0000771  0.3347200  3
   5728   5726   5729   5730     1  0.0000000  3.3472000  1
   5728   5726   5729   5730     1  0.0000000  0.0000000  2
   5728   5726   5729   5730     1  180.0000771  0.3347200  3
   5728   5726   5729   5731     1  0.0000000  3.3472000  1
   5728   5726   5729   5731     1  0.0000000  0.0000000  2
   5728   5726   5729   5731     1  180.0000771  0.3347200  3
   5733   5732   5735   5738     1  0.0000000  0.6508444  3
   5733   5732   5735   5736     1  0.0000000  0.6508444  3
   5733   5732   5735   5737     1  0.0000000  0.6508444  3
   5734   5732   5735   5738     1  0.0000000  0.6508444  3
   5734   5732   5735   5736     1  0.0000000  0.6508444  3
   5734   5732   5735   5737     1  0.0000000  0.6508444  3
   5736   5735   5738   5739     1  0.0000000  3.3472000  1
   5736   5735   5738   5739     1  0.0000000  0.0000000  2
   5736   5735   5738   5739     1  180.0000771  0.3347200  3
   5736   5735   5738   5740     1  0.0000000  3.3472000  1
   5736   5735   5738   5740     1  0.0000000  0.0000000  2
   5736   5735   5738   5740     1  180.0000771  0.3347200  3
   5737   5735   5738   5739     1  0.0000000  3.3472000  1
   5737   5735   5738   5739     1  0.0000000  0.0000000  2
   5737   5735   5738   5739     1  180.0000771  0.3347200  3
   5737   5735   5738   5740     1  0.0000000  3.3472000  1
   5737   5735   5738   5740     1  0.0000000  0.0000000  2
   5737   5735   5738   5740     1  180.0000771  0.3347200  3
   5742   5745   5748   5749     1  0.0000000  0.6508444  3
   5742   5745   5748   5750     1  0.0000000  0.6508444  3
   5743   5742   5745   5748     1  0.0000000  0.6508444  3
   5743   5742   5745   5746     1  0.0000000  0.6508444  3
   5743   5742   5745   5747     1  0.0000000  0.6508444  3
   5744   5742   5745   5748     1  0.0000000  0.6508444  3
   5744   5742   5745   5746     1  0.0000000  0.6508444  3
   5744   5742   5745   5747     1  0.0000000  0.6508444  3
   5746   5745   5742   5770     1  0.0000000  1.0460000  1
   5746   5745   5742   5770     1  0.0000000  0.0000000  3
   5746   5745   5748   5751     1  0.0000000  0.6508444  3
   5746   5745   5748   5749     1  0.0000000  0.6508444  3
   5746   5745   5748   5750     1  0.0000000  0.6508444  3
   5747   5745   5742   5770     1  0.0000000  1.0460000  1
   5747   5745   5742   5770     1  0.0000000  0.0000000  3
   5747   5745   5748   5751     1  0.0000000  0.6508444  3
   5747   5745   5748   5749     1  0.0000000  0.6508444  3
   5747   5745   5748   5750     1  0.0000000  0.6508444  3
   5748   5751   5752   5753     1  0.0000000  1.2552000  3
   5748   5751   5752   5754     1  0.0000000  1.2552000  3
   5748   5751   5761   5762     1  0.0000000  1.2552000  3
   5748   5751   5761   5763     1  0.0000000  1.2552000  3
   5749   5748   5751   5752     1  0.0000000  1.2552000  3
   5749   5748   5751   5761     1  0.0000000  1.2552000  3
   5750   5748   5751   5752     1  0.0000000  1.2552000  3
   5750   5748   5751   5761     1  0.0000000  1.2552000  3
   5751   5752   5755   5756     1  0.0000000  0.6508444  3
   5751   5752   5755   5757     1  0.0000000  0.6508444  3
   5751   5761   5764   5765     1  0.0000000  0.6508444  3
   5751   5761   5764   5766     1  0.0000000  0.6508444  3
   5752   5751   5761   5762     1  0.0000000  1.2552000  3
   5752   5751   5761   5763     1  0.0000000  1.2552000  3
   5753   5752   5751   5761     1  0.0000000  1.2552000  3
   5753   5752   5755   5758     1  0.0000000  0.6508444  3
   5753   5752   5755   5756     1  0.0000000  0.6508444  3
   5753   5752   5755   5757     1  0.0000000  0.6508444  3
   5754   5752   5751   5761     1  0.0000000  1.2552000  3
   5754   5752   5755   5758     1  0.0000000  0.6508444  3
   5754   5752   5755   5756     1  0.0000000  0.6508444  3
   5754   5752   5755   5757     1  0.0000000  0.6508444  3
   5756   5755   5758   5759     1  0.0000000  3.3472000  1
   5756   5755   5758   5759     1  0.0000000  0.0000000  2
   5756   5755   5758   5759     1  180.0000771  0.3347200  3
   5756   5755   5758   5760     1  0.0000000  3.3472000  1
   5756   5755   5758   5760     1  0.0000000  0.0000000  2
   5756   5755   5758   5760     1  180.0000771  0.3347200  3
   5757   5755   5758   5759     1  0.0000000  3.3472000  1
   5757   5755   5758   5759     1  0.0000000  0.0000000  2
   5757   5755   5758   5759     1  180.0000771  0.3347200  3
   5757   5755   5758   5760     1  0.0000000  3.3472000  1
   5757   5755   5758   5760     1  0.0000000  0.0000000  2
   5757   5755   5758   5760     1  180.0000771  0.3347200  3
   5762   5761   5764   5767     1  0.0000000  0.6508444  3
   5762   5761   5764   5765     1  0.0000000  0.6508444  3
   5762   5761   5764   5766     1  0.0000000  0.6508444  3
   5763   5761   5764   5767     1  0.0000000  0.6508444  3
   5763   5761   5764   5765     1  0.0000000  0.6508444  3
   5763   5761   5764   5766     1  0.0000000  0.6508444  3
   5765   5764   5767   5768     1  0.0000000  3.3472000  1
   5765   5764   5767   5768     1  0.0000000  0.0000000  2
   5765   5764   5767   5768     1  180.0000771  0.3347200  3
   5765   5764   5767   5769     1  0.0000000  3.3472000  1
   5765   5764   5767   5769     1  0.0000000  0.0000000  2
   5765   5764   5767   5769     1  180.0000771  0.3347200  3
   5766   5764   5767   5768     1  0.0000000  3.3472000  1
   5766   5764   5767   5768     1  0.0000000  0.0000000  2
   5766   5764   5767   5768     1  180.0000771  0.3347200  3
   5766   5764   5767   5769     1  0.0000000  3.3472000  1
   5766   5764   5767   5769     1  0.0000000  0.0000000  2
   5766   5764   5767   5769     1  180.0000771  0.3347200  3
   5771   5774   5777   5778     1  0.0000000  0.6508444  3
   5771   5774   5777   5779     1  0.0000000  0.6508444  3
   5772   5771   5774   5777     1  0.0000000  0.6508444  3
   5772   5771   5774   5775     1  0.0000000  0.6508444  3
   5772   5771   5774   5776     1  0.0000000  0.6508444  3
   5773   5771   5774   5777     1  0.0000000  0.6508444  3
   5773   5771   5774   5775     1  0.0000000  0.6508444  3
   5773   5771   5774   5776     1  0.0000000  0.6508444  3
   5775   5774   5777   5780     1  0.0000000  0.6508444  3
   5775   5774   5777   5778     1  0.0000000  0.6508444  3
   5775   5774   5777   5779     1  0.0000000  0.6508444  3
   5775   5774   5771   5799     1  0.0000000  1.0460000  1
   5775   5774   5771   5799     1  0.0000000  0.0000000  3
   5776   5774   5777   5780     1  0.0000000  0.6508444  3
   5776   5774   5777   5778     1  0.0000000  0.6508444  3
   5776   5774   5777   5779     1  0.0000000  0.6508444  3
   5776   5774   5771   5799     1  0.0000000  1.0460000  1
   5776   5774   5771   5799     1  0.0000000  0.0000000  3
   5777   5780   5781   5782     1  0.0000000  1.2552000  3
   5777   5780   5781   5783     1  0.0000000  1.2552000  3
   5777   5780   5790   5791     1  0.0000000  1.2552000  3
   5777   5780   5790   5792     1  0.0000000  1.2552000  3
   5778   5777   5780   5781     1  0.0000000  1.2552000  3
   5778   5777   5780   5790     1  0.0000000  1.2552000  3
   5779   5777   5780   5781     1  0.0000000  1.2552000  3
   5779   5777   5780   5790     1  0.0000000  1.2552000  3
   5780   5781   5784   5785     1  0.0000000  0.6508444  3
   5780   5781   5784   5786     1  0.0000000  0.6508444  3
   5780   5790   5793   5794     1  0.0000000  0.6508444  3
   5780   5790   5793   5795     1  0.0000000  0.6508444  3
   5781   5780   5790   5791     1  0.0000000  1.2552000  3
   5781   5780   5790   5792     1  0.0000000  1.2552000  3
   5782   5781   5784   5787     1  0.0000000  0.6508444  3
   5782   5781   5784   5785     1  0.0000000  0.6508444  3
   5782   5781   5784   5786     1  0.0000000  0.6508444  3
   5782   5781   5780   5790     1  0.0000000  1.2552000  3
   5783   5781   5784   5787     1  0.0000000  0.6508444  3
   5783   5781   5784   5785     1  0.0000000  0.6508444  3
   5783   5781   5784   5786     1  0.0000000  0.6508444  3
   5783   5781   5780   5790     1  0.0000000  1.2552000  3
   5785   5784   5787   5788     1  0.0000000  3.3472000  1
   5785   5784   5787   5788     1  0.0000000  0.0000000  2
   5785   5784   5787   5788     1  180.0000771  0.3347200  3
   5785   5784   5787   5789     1  0.0000000  3.3472000  1
   5785   5784   5787   5789     1  0.0000000  0.0000000  2
   5785   5784   5787   5789     1  180.0000771  0.3347200  3
   5786   5784   5787   5788     1  0.0000000  3.3472000  1
   5786   5784   5787   5788     1  0.0000000  0.0000000  2
   5786   5784   5787   5788     1  180.0000771  0.3347200  3
   5786   5784   5787   5789     1  0.0000000  3.3472000  1
   5786   5784   5787   5789     1  0.0000000  0.0000000  2
   5786   5784   5787   5789     1  180.0000771  0.3347200  3
   5791   5790   5793   5796     1  0.0000000  0.6508444  3
   5791   5790   5793   5794     1  0.0000000  0.6508444  3
   5791   5790   5793   5795     1  0.0000000  0.6508444  3
   5792   5790   5793   5796     1  0.0000000  0.6508444  3
   5792   5790   5793   5794     1  0.0000000  0.6508444  3
   5792   5790   5793   5795     1  0.0000000  0.6508444  3
   5794   5793   5796   5797     1  0.0000000  3.3472000  1
   5794   5793   5796   5797     1  0.0000000  0.0000000  2
   5794   5793   5796   5797     1  180.0000771  0.3347200  3
   5794   5793   5796   5798     1  0.0000000  3.3472000  1
   5794   5793   5796   5798     1  0.0000000  0.0000000  2
   5794   5793   5796   5798     1  180.0000771  0.3347200  3
   5795   5793   5796   5797     1  0.0000000  3.3472000  1
   5795   5793   5796   5797     1  0.0000000  0.0000000  2
   5795   5793   5796   5797     1  180.0000771  0.3347200  3
   5795   5793   5796   5798     1  0.0000000  3.3472000  1
   5795   5793   5796   5798     1  0.0000000  0.0000000  2
   5795   5793   5796   5798     1  180.0000771  0.3347200  3
   5800   5803   5806   5807     1  0.0000000  0.6508444  3
   5800   5803   5806   5808     1  0.0000000  0.6508444  3
   5801   5800   5803   5806     1  0.0000000  0.6508444  3
   5801   5800   5803   5804     1  0.0000000  0.6508444  3
   5801   5800   5803   5805     1  0.0000000  0.6508444  3
   5802   5800   5803   5806     1  0.0000000  0.6508444  3
   5802   5800   5803   5804     1  0.0000000  0.6508444  3
   5802   5800   5803   5805     1  0.0000000  0.6508444  3
   5804   5803   5800   5828     1  0.0000000  1.0460000  1
   5804   5803   5800   5828     1  0.0000000  0.0000000  3
   5804   5803   5806   5809     1  0.0000000  0.6508444  3
   5804   5803   5806   5807     1  0.0000000  0.6508444  3
   5804   5803   5806   5808     1  0.0000000  0.6508444  3
   5805   5803   5800   5828     1  0.0000000  1.0460000  1
   5805   5803   5800   5828     1  0.0000000  0.0000000  3
   5805   5803   5806   5809     1  0.0000000  0.6508444  3
   5805   5803   5806   5807     1  0.0000000  0.6508444  3
   5805   5803   5806   5808     1  0.0000000  0.6508444  3
   5806   5809   5810   5811     1  0.0000000  1.2552000  3
   5806   5809   5810   5812     1  0.0000000  1.2552000  3
   5806   5809   5819   5820     1  0.0000000  1.2552000  3
   5806   5809   5819   5821     1  0.0000000  1.2552000  3
   5807   5806   5809   5810     1  0.0000000  1.2552000  3
   5807   5806   5809   5819     1  0.0000000  1.2552000  3
   5808   5806   5809   5810     1  0.0000000  1.2552000  3
   5808   5806   5809   5819     1  0.0000000  1.2552000  3
   5809   5810   5813   5814     1  0.0000000  0.6508444  3
   5809   5810   5813   5815     1  0.0000000  0.6508444  3
   5809   5819   5822   5823     1  0.0000000  0.6508444  3
   5809   5819   5822   5824     1  0.0000000  0.6508444  3
   5810   5809   5819   5820     1  0.0000000  1.2552000  3
   5810   5809   5819   5821     1  0.0000000  1.2552000  3
   5811   5810   5809   5819     1  0.0000000  1.2552000  3
   5811   5810   5813   5816     1  0.0000000  0.6508444  3
   5811   5810   5813   5814     1  0.0000000  0.6508444  3
   5811   5810   5813   5815     1  0.0000000  0.6508444  3
   5812   5810   5809   5819     1  0.0000000  1.2552000  3
   5812   5810   5813   5816     1  0.0000000  0.6508444  3
   5812   5810   5813   5814     1  0.0000000  0.6508444  3
   5812   5810   5813   5815     1  0.0000000  0.6508444  3
   5814   5813   5816   5817     1  0.0000000  3.3472000  1
   5814   5813   5816   5817     1  0.0000000  0.0000000  2
   5814   5813   5816   5817     1  180.0000771  0.3347200  3
   5814   5813   5816   5818     1  0.0000000  3.3472000  1
   5814   5813   5816   5818     1  0.0000000  0.0000000  2
   5814   5813   5816   5818     1  180.0000771  0.3347200  3
   5815   5813   5816   5817     1  0.0000000  3.3472000  1
   5815   5813   5816   5817     1  0.0000000  0.0000000  2
   5815   5813   5816   5817     1  180.0000771  0.3347200  3
   5815   5813   5816   5818     1  0.0000000  3.3472000  1
   5815   5813   5816   5818     1  0.0000000  0.0000000  2
   5815   5813   5816   5818     1  180.0000771  0.3347200  3
   5820   5819   5822   5825     1  0.0000000  0.6508444  3
   5820   5819   5822   5823     1  0.0000000  0.6508444  3
   5820   5819   5822   5824     1  0.0000000  0.6508444  3
   5821   5819   5822   5825     1  0.0000000  0.6508444  3
   5821   5819   5822   5823     1  0.0000000  0.6508444  3
   5821   5819   5822   5824     1  0.0000000  0.6508444  3
   5823   5822   5825   5826     1  0.0000000  3.3472000  1
   5823   5822   5825   5826     1  0.0000000  0.0000000  2
   5823   5822   5825   5826     1  180.0000771  0.3347200  3
   5823   5822   5825   5827     1  0.0000000  3.3472000  1
   5823   5822   5825   5827     1  0.0000000  0.0000000  2
   5823   5822   5825   5827     1  180.0000771  0.3347200  3
   5824   5822   5825   5826     1  0.0000000  3.3472000  1
   5824   5822   5825   5826     1  0.0000000  0.0000000  2
   5824   5822   5825   5826     1  180.0000771  0.3347200  3
   5824   5822   5825   5827     1  0.0000000  3.3472000  1
   5824   5822   5825   5827     1  0.0000000  0.0000000  2
   5824   5822   5825   5827     1  180.0000771  0.3347200  3
   5829   5832   5835   5836     1  0.0000000  0.6508444  3
   5829   5832   5835   5837     1  0.0000000  0.6508444  3
   5830   5829   5832   5835     1  0.0000000  0.6508444  3
   5830   5829   5832   5833     1  0.0000000  0.6508444  3
   5830   5829   5832   5834     1  0.0000000  0.6508444  3
   5831   5829   5832   5835     1  0.0000000  0.6508444  3
   5831   5829   5832   5833     1  0.0000000  0.6508444  3
   5831   5829   5832   5834     1  0.0000000  0.6508444  3
   5833   5832   5835   5838     1  0.0000000  0.6508444  3
   5833   5832   5835   5836     1  0.0000000  0.6508444  3
   5833   5832   5835   5837     1  0.0000000  0.6508444  3
   5833   5832   5829   5857     1  0.0000000  1.0460000  1
   5833   5832   5829   5857     1  0.0000000  0.0000000  3
   5834   5832   5835   5838     1  0.0000000  0.6508444  3
   5834   5832   5835   5836     1  0.0000000  0.6508444  3
   5834   5832   5835   5837     1  0.0000000  0.6508444  3
   5834   5832   5829   5857     1  0.0000000  1.0460000  1
   5834   5832   5829   5857     1  0.0000000  0.0000000  3
   5835   5838   5839   5840     1  0.0000000  1.2552000  3
   5835   5838   5839   5841     1  0.0000000  1.2552000  3
   5835   5838   5848   5849     1  0.0000000  1.2552000  3
   5835   5838   5848   5850     1  0.0000000  1.2552000  3
   5836   5835   5838   5839     1  0.0000000  1.2552000  3
   5836   5835   5838   5848     1  0.0000000  1.2552000  3
   5837   5835   5838   5839     1  0.0000000  1.2552000  3
   5837   5835   5838   5848     1  0.0000000  1.2552000  3
   5838   5839   5842   5843     1  0.0000000  0.6508444  3
   5838   5839   5842   5844     1  0.0000000  0.6508444  3
   5838   5848   5851   5852     1  0.0000000  0.6508444  3
   5838   5848   5851   5853     1  0.0000000  0.6508444  3
   5839   5838   5848   5849     1  0.0000000  1.2552000  3
   5839   5838   5848   5850     1  0.0000000  1.2552000  3
   5840   5839   5842   5845     1  0.0000000  0.6508444  3
   5840   5839   5842   5843     1  0.0000000  0.6508444  3
   5840   5839   5842   5844     1  0.0000000  0.6508444  3
   5840   5839   5838   5848     1  0.0000000  1.2552000  3
   5841   5839   5842   5845     1  0.0000000  0.6508444  3
   5841   5839   5842   5843     1  0.0000000  0.6508444  3
   5841   5839   5842   5844     1  0.0000000  0.6508444  3
   5841   5839   5838   5848     1  0.0000000  1.2552000  3
   5843   5842   5845   5846     1  0.0000000  3.3472000  1
   5843   5842   5845   5846     1  0.0000000  0.0000000  2
   5843   5842   5845   5846     1  180.0000771  0.3347200  3
   5843   5842   5845   5847     1  0.0000000  3.3472000  1
   5843   5842   5845   5847     1  0.0000000  0.0000000  2
   5843   5842   5845   5847     1  180.0000771  0.3347200  3
   5844   5842   5845   5846     1  0.0000000  3.3472000  1
   5844   5842   5845   5846     1  0.0000000  0.0000000  2
   5844   5842   5845   5846     1  180.0000771  0.3347200  3
   5844   5842   5845   5847     1  0.0000000  3.3472000  1
   5844   5842   5845   5847     1  0.0000000  0.0000000  2
   5844   5842   5845   5847     1  180.0000771  0.3347200  3
   5849   5848   5851   5854     1  0.0000000  0.6508444  3
   5849   5848   5851   5852     1  0.0000000  0.6508444  3
   5849   5848   5851   5853     1  0.0000000  0.6508444  3
   5850   5848   5851   5854     1  0.0000000  0.6508444  3
   5850   5848   5851   5852     1  0.0000000  0.6508444  3
   5850   5848   5851   5853     1  0.0000000  0.6508444  3
   5852   5851   5854   5855     1  0.0000000  3.3472000  1
   5852   5851   5854   5855     1  0.0000000  0.0000000  2
   5852   5851   5854   5855     1  180.0000771  0.3347200  3
   5852   5851   5854   5856     1  0.0000000  3.3472000  1
   5852   5851   5854   5856     1  0.0000000  0.0000000  2
   5852   5851   5854   5856     1  180.0000771  0.3347200  3
   5853   5851   5854   5855     1  0.0000000  3.3472000  1
   5853   5851   5854   5855     1  0.0000000  0.0000000  2
   5853   5851   5854   5855     1  180.0000771  0.3347200  3
   5853   5851   5854   5856     1  0.0000000  3.3472000  1
   5853   5851   5854   5856     1  0.0000000  0.0000000  2
   5853   5851   5854   5856     1  180.0000771  0.3347200  3
   5858   5861   5864   5865     1  0.0000000  0.6508444  3
   5858   5861   5864   5866     1  0.0000000  0.6508444  3
   5859   5858   5861   5864     1  0.0000000  0.6508444  3
   5859   5858   5861   5862     1  0.0000000  0.6508444  3
   5859   5858   5861   5863     1  0.0000000  0.6508444  3
   5860   5858   5861   5864     1  0.0000000  0.6508444  3
   5860   5858   5861   5862     1  0.0000000  0.6508444  3
   5860   5858   5861   5863     1  0.0000000  0.6508444  3
   5862   5861   5858   5886     1  0.0000000  1.0460000  1
   5862   5861   5858   5886     1  0.0000000  0.0000000  3
   5862   5861   5864   5867     1  0.0000000  0.6508444  3
   5862   5861   5864   5865     1  0.0000000  0.6508444  3
   5862   5861   5864   5866     1  0.0000000  0.6508444  3
   5863   5861   5858   5886     1  0.0000000  1.0460000  1
   5863   5861   5858   5886     1  0.0000000  0.0000000  3
   5863   5861   5864   5867     1  0.0000000  0.6508444  3
   5863   5861   5864   5865     1  0.0000000  0.6508444  3
   5863   5861   5864   5866     1  0.0000000  0.6508444  3
   5864   5867   5868   5869     1  0.0000000  1.2552000  3
   5864   5867   5868   5870     1  0.0000000  1.2552000  3
   5864   5867   5877   5878     1  0.0000000  1.2552000  3
   5864   5867   5877   5879     1  0.0000000  1.2552000  3
   5865   5864   5867   5868     1  0.0000000  1.2552000  3
   5865   5864   5867   5877     1  0.0000000  1.2552000  3
   5866   5864   5867   5868     1  0.0000000  1.2552000  3
   5866   5864   5867   5877     1  0.0000000  1.2552000  3
   5867   5868   5871   5872     1  0.0000000  0.6508444  3
   5867   5868   5871   5873     1  0.0000000  0.6508444  3
   5867   5877   5880   5881     1  0.0000000  0.6508444  3
   5867   5877   5880   5882     1  0.0000000  0.6508444  3
   5868   5867   5877   5878     1  0.0000000  1.2552000  3
   5868   5867   5877   5879     1  0.0000000  1.2552000  3
   5869   5868   5867   5877     1  0.0000000  1.2552000  3
   5869   5868   5871   5874     1  0.0000000  0.6508444  3
   5869   5868   5871   5872     1  0.0000000  0.6508444  3
   5869   5868   5871   5873     1  0.0000000  0.6508444  3
   5870   5868   5867   5877     1  0.0000000  1.2552000  3
   5870   5868   5871   5874     1  0.0000000  0.6508444  3
   5870   5868   5871   5872     1  0.0000000  0.6508444  3
   5870   5868   5871   5873     1  0.0000000  0.6508444  3
   5872   5871   5874   5875     1  0.0000000  3.3472000  1
   5872   5871   5874   5875     1  0.0000000  0.0000000  2
   5872   5871   5874   5875     1  180.0000771  0.3347200  3
   5872   5871   5874   5876     1  0.0000000  3.3472000  1
   5872   5871   5874   5876     1  0.0000000  0.0000000  2
   5872   5871   5874   5876     1  180.0000771  0.3347200  3
   5873   5871   5874   5875     1  0.0000000  3.3472000  1
   5873   5871   5874   5875     1  0.0000000  0.0000000  2
   5873   5871   5874   5875     1  180.0000771  0.3347200  3
   5873   5871   5874   5876     1  0.0000000  3.3472000  1
   5873   5871   5874   5876     1  0.0000000  0.0000000  2
   5873   5871   5874   5876     1  180.0000771  0.3347200  3
   5878   5877   5880   5883     1  0.0000000  0.6508444  3
   5878   5877   5880   5881     1  0.0000000  0.6508444  3
   5878   5877   5880   5882     1  0.0000000  0.6508444  3
   5879   5877   5880   5883     1  0.0000000  0.6508444  3
   5879   5877   5880   5881     1  0.0000000  0.6508444  3
   5879   5877   5880   5882     1  0.0000000  0.6508444  3
   5881   5880   5883   5884     1  0.0000000  3.3472000  1
   5881   5880   5883   5884     1  0.0000000  0.0000000  2
   5881   5880   5883   5884     1  180.0000771  0.3347200  3
   5881   5880   5883   5885     1  0.0000000  3.3472000  1
   5881   5880   5883   5885     1  0.0000000  0.0000000  2
   5881   5880   5883   5885     1  180.0000771  0.3347200  3
   5882   5880   5883   5884     1  0.0000000  3.3472000  1
   5882   5880   5883   5884     1  0.0000000  0.0000000  2
   5882   5880   5883   5884     1  180.0000771  0.3347200  3
   5882   5880   5883   5885     1  0.0000000  3.3472000  1
   5882   5880   5883   5885     1  0.0000000  0.0000000  2
   5882   5880   5883   5885     1  180.0000771  0.3347200  3
   5887   5890   5893   5894     1  0.0000000  0.6508444  3
   5887   5890   5893   5895     1  0.0000000  0.6508444  3
   5888   5887   5890   5893     1  0.0000000  0.6508444  3
   5888   5887   5890   5891     1  0.0000000  0.6508444  3
   5888   5887   5890   5892     1  0.0000000  0.6508444  3
   5889   5887   5890   5893     1  0.0000000  0.6508444  3
   5889   5887   5890   5891     1  0.0000000  0.6508444  3
   5889   5887   5890   5892     1  0.0000000  0.6508444  3
   5891   5890   5893   5896     1  0.0000000  0.6508444  3
   5891   5890   5893   5894     1  0.0000000  0.6508444  3
   5891   5890   5893   5895     1  0.0000000  0.6508444  3
   5891   5890   5887   5915     1  0.0000000  1.0460000  1
   5891   5890   5887   5915     1  0.0000000  0.0000000  3
   5892   5890   5893   5896     1  0.0000000  0.6508444  3
   5892   5890   5893   5894     1  0.0000000  0.6508444  3
   5892   5890   5893   5895     1  0.0000000  0.6508444  3
   5892   5890   5887   5915     1  0.0000000  1.0460000  1
   5892   5890   5887   5915     1  0.0000000  0.0000000  3
   5893   5896   5897   5898     1  0.0000000  1.2552000  3
   5893   5896   5897   5899     1  0.0000000  1.2552000  3
   5893   5896   5906   5907     1  0.0000000  1.2552000  3
   5893   5896   5906   5908     1  0.0000000  1.2552000  3
   5894   5893   5896   5897     1  0.0000000  1.2552000  3
   5894   5893   5896   5906     1  0.0000000  1.2552000  3
   5895   5893   5896   5897     1  0.0000000  1.2552000  3
   5895   5893   5896   5906     1  0.0000000  1.2552000  3
   5896   5897   5900   5901     1  0.0000000  0.6508444  3
   5896   5897   5900   5902     1  0.0000000  0.6508444  3
   5896   5906   5909   5910     1  0.0000000  0.6508444  3
   5896   5906   5909   5911     1  0.0000000  0.6508444  3
   5897   5896   5906   5907     1  0.0000000  1.2552000  3
   5897   5896   5906   5908     1  0.0000000  1.2552000  3
   5898   5897   5900   5903     1  0.0000000  0.6508444  3
   5898   5897   5900   5901     1  0.0000000  0.6508444  3
   5898   5897   5900   5902     1  0.0000000  0.6508444  3
   5898   5897   5896   5906     1  0.0000000  1.2552000  3
   5899   5897   5900   5903     1  0.0000000  0.6508444  3
   5899   5897   5900   5901     1  0.0000000  0.6508444  3
   5899   5897   5900   5902     1  0.0000000  0.6508444  3
   5899   5897   5896   5906     1  0.0000000  1.2552000  3
   5901   5900   5903   5904     1  0.0000000  3.3472000  1
   5901   5900   5903   5904     1  0.0000000  0.0000000  2
   5901   5900   5903   5904     1  180.0000771  0.3347200  3
   5901   5900   5903   5905     1  0.0000000  3.3472000  1
   5901   5900   5903   5905     1  0.0000000  0.0000000  2
   5901   5900   5903   5905     1  180.0000771  0.3347200  3
   5902   5900   5903   5904     1  0.0000000  3.3472000  1
   5902   5900   5903   5904     1  0.0000000  0.0000000  2
   5902   5900   5903   5904     1  180.0000771  0.3347200  3
   5902   5900   5903   5905     1  0.0000000  3.3472000  1
   5902   5900   5903   5905     1  0.0000000  0.0000000  2
   5902   5900   5903   5905     1  180.0000771  0.3347200  3
   5907   5906   5909   5912     1  0.0000000  0.6508444  3
   5907   5906   5909   5910     1  0.0000000  0.6508444  3
   5907   5906   5909   5911     1  0.0000000  0.6508444  3
   5908   5906   5909   5912     1  0.0000000  0.6508444  3
   5908   5906   5909   5910     1  0.0000000  0.6508444  3
   5908   5906   5909   5911     1  0.0000000  0.6508444  3
   5910   5909   5912   5913     1  0.0000000  3.3472000  1
   5910   5909   5912   5913     1  0.0000000  0.0000000  2
   5910   5909   5912   5913     1  180.0000771  0.3347200  3
   5910   5909   5912   5914     1  0.0000000  3.3472000  1
   5910   5909   5912   5914     1  0.0000000  0.0000000  2
   5910   5909   5912   5914     1  180.0000771  0.3347200  3
   5911   5909   5912   5913     1  0.0000000  3.3472000  1
   5911   5909   5912   5913     1  0.0000000  0.0000000  2
   5911   5909   5912   5913     1  180.0000771  0.3347200  3
   5911   5909   5912   5914     1  0.0000000  3.3472000  1
   5911   5909   5912   5914     1  0.0000000  0.0000000  2
   5911   5909   5912   5914     1  180.0000771  0.3347200  3
   5916   5919   5922   5923     1  0.0000000  0.6508444  3
   5916   5919   5922   5924     1  0.0000000  0.6508444  3
   5917   5916   5919   5922     1  0.0000000  0.6508444  3
   5917   5916   5919   5920     1  0.0000000  0.6508444  3
   5917   5916   5919   5921     1  0.0000000  0.6508444  3
   5918   5916   5919   5922     1  0.0000000  0.6508444  3
   5918   5916   5919   5920     1  0.0000000  0.6508444  3
   5918   5916   5919   5921     1  0.0000000  0.6508444  3
   5920   5919   5916   5944     1  0.0000000  1.0460000  1
   5920   5919   5916   5944     1  0.0000000  0.0000000  3
   5920   5919   5922   5925     1  0.0000000  0.6508444  3
   5920   5919   5922   5923     1  0.0000000  0.6508444  3
   5920   5919   5922   5924     1  0.0000000  0.6508444  3
   5921   5919   5916   5944     1  0.0000000  1.0460000  1
   5921   5919   5916   5944     1  0.0000000  0.0000000  3
   5921   5919   5922   5925     1  0.0000000  0.6508444  3
   5921   5919   5922   5923     1  0.0000000  0.6508444  3
   5921   5919   5922   5924     1  0.0000000  0.6508444  3
   5922   5925   5926   5927     1  0.0000000  1.2552000  3
   5922   5925   5926   5928     1  0.0000000  1.2552000  3
   5922   5925   5935   5936     1  0.0000000  1.2552000  3
   5922   5925   5935   5937     1  0.0000000  1.2552000  3
   5923   5922   5925   5926     1  0.0000000  1.2552000  3
   5923   5922   5925   5935     1  0.0000000  1.2552000  3
   5924   5922   5925   5926     1  0.0000000  1.2552000  3
   5924   5922   5925   5935     1  0.0000000  1.2552000  3
   5925   5926   5929   5930     1  0.0000000  0.6508444  3
   5925   5926   5929   5931     1  0.0000000  0.6508444  3
   5925   5935   5938   5939     1  0.0000000  0.6508444  3
   5925   5935   5938   5940     1  0.0000000  0.6508444  3
   5926   5925   5935   5936     1  0.0000000  1.2552000  3
   5926   5925   5935   5937     1  0.0000000  1.2552000  3
   5927   5926   5925   5935     1  0.0000000  1.2552000  3
   5927   5926   5929   5932     1  0.0000000  0.6508444  3
   5927   5926   5929   5930     1  0.0000000  0.6508444  3
   5927   5926   5929   5931     1  0.0000000  0.6508444  3
   5928   5926   5925   5935     1  0.0000000  1.2552000  3
   5928   5926   5929   5932     1  0.0000000  0.6508444  3
   5928   5926   5929   5930     1  0.0000000  0.6508444  3
   5928   5926   5929   5931     1  0.0000000  0.6508444  3
   5930   5929   5932   5933     1  0.0000000  3.3472000  1
   5930   5929   5932   5933     1  0.0000000  0.0000000  2
   5930   5929   5932   5933     1  180.0000771  0.3347200  3
   5930   5929   5932   5934     1  0.0000000  3.3472000  1
   5930   5929   5932   5934     1  0.0000000  0.0000000  2
   5930   5929   5932   5934     1  180.0000771  0.3347200  3
   5931   5929   5932   5933     1  0.0000000  3.3472000  1
   5931   5929   5932   5933     1  0.0000000  0.0000000  2
   5931   5929   5932   5933     1  180.0000771  0.3347200  3
   5931   5929   5932   5934     1  0.0000000  3.3472000  1
   5931   5929   5932   5934     1  0.0000000  0.0000000  2
   5931   5929   5932   5934     1  180.0000771  0.3347200  3
   5936   5935   5938   5941     1  0.0000000  0.6508444  3
   5936   5935   5938   5939     1  0.0000000  0.6508444  3
   5936   5935   5938   5940     1  0.0000000  0.6508444  3
   5937   5935   5938   5941     1  0.0000000  0.6508444  3
   5937   5935   5938   5939     1  0.0000000  0.6508444  3
   5937   5935   5938   5940     1  0.0000000  0.6508444  3
   5939   5938   5941   5942     1  0.0000000  3.3472000  1
   5939   5938   5941   5942     1  0.0000000  0.0000000  2
   5939   5938   5941   5942     1  180.0000771  0.3347200  3
   5939   5938   5941   5943     1  0.0000000  3.3472000  1
   5939   5938   5941   5943     1  0.0000000  0.0000000  2
   5939   5938   5941   5943     1  180.0000771  0.3347200  3
   5940   5938   5941   5942     1  0.0000000  3.3472000  1
   5940   5938   5941   5942     1  0.0000000  0.0000000  2
   5940   5938   5941   5942     1  180.0000771  0.3347200  3
   5940   5938   5941   5943     1  0.0000000  3.3472000  1
   5940   5938   5941   5943     1  0.0000000  0.0000000  2
   5940   5938   5941   5943     1  180.0000771  0.3347200  3
   5945   5948   5951   5952     1  0.0000000  0.6508444  3
   5945   5948   5951   5953     1  0.0000000  0.6508444  3
   5946   5945   5948   5951     1  0.0000000  0.6508444  3
   5946   5945   5948   5949     1  0.0000000  0.6508444  3
   5946   5945   5948   5950     1  0.0000000  0.6508444  3
   5947   5945   5948   5951     1  0.0000000  0.6508444  3
   5947   5945   5948   5949     1  0.0000000  0.6508444  3
   5947   5945   5948   5950     1  0.0000000  0.6508444  3
   5949   5948   5951   5954     1  0.0000000  0.6508444  3
   5949   5948   5951   5952     1  0.0000000  0.6508444  3
   5949   5948   5951   5953     1  0.0000000  0.6508444  3
   5949   5948   5945   5973     1  0.0000000  1.0460000  1
   5949   5948   5945   5973     1  0.0000000  0.0000000  3
   5950   5948   5951   5954     1  0.0000000  0.6508444  3
   5950   5948   5951   5952     1  0.0000000  0.6508444  3
   5950   5948   5951   5953     1  0.0000000  0.6508444  3
   5950   5948   5945   5973     1  0.0000000  1.0460000  1
   5950   5948   5945   5973     1  0.0000000  0.0000000  3
   5951   5954   5955   5956     1  0.0000000  1.2552000  3
   5951   5954   5955   5957     1  0.0000000  1.2552000  3
   5951   5954   5964   5965     1  0.0000000  1.2552000  3
   5951   5954   5964   5966     1  0.0000000  1.2552000  3
   5952   5951   5954   5955     1  0.0000000  1.2552000  3
   5952   5951   5954   5964     1  0.0000000  1.2552000  3
   5953   5951   5954   5955     1  0.0000000  1.2552000  3
   5953   5951   5954   5964     1  0.0000000  1.2552000  3
   5954   5955   5958   5959     1  0.0000000  0.6508444  3
   5954   5955   5958   5960     1  0.0000000  0.6508444  3
   5954   5964   5967   5968     1  0.0000000  0.6508444  3
   5954   5964   5967   5969     1  0.0000000  0.6508444  3
   5955   5954   5964   5965     1  0.0000000  1.2552000  3
   5955   5954   5964   5966     1  0.0000000  1.2552000  3
   5956   5955   5958   5961     1  0.0000000  0.6508444  3
   5956   5955   5958   5959     1  0.0000000  0.6508444  3
   5956   5955   5958   5960     1  0.0000000  0.6508444  3
   5956   5955   5954   5964     1  0.0000000  1.2552000  3
   5957   5955   5958   5961     1  0.0000000  0.6508444  3
   5957   5955   5958   5959     1  0.0000000  0.6508444  3
   5957   5955   5958   5960     1  0.0000000  0.6508444  3
   5957   5955   5954   5964     1  0.0000000  1.2552000  3
   5959   5958   5961   5962     1  0.0000000  3.3472000  1
   5959   5958   5961   5962     1  0.0000000  0.0000000  2
   5959   5958   5961   5962     1  180.0000771  0.3347200  3
   5959   5958   5961   5963     1  0.0000000  3.3472000  1
   5959   5958   5961   5963     1  0.0000000  0.0000000  2
   5959   5958   5961   5963     1  180.0000771  0.3347200  3
   5960   5958   5961   5962     1  0.0000000  3.3472000  1
   5960   5958   5961   5962     1  0.0000000  0.0000000  2
   5960   5958   5961   5962     1  180.0000771  0.3347200  3
   5960   5958   5961   5963     1  0.0000000  3.3472000  1
   5960   5958   5961   5963     1  0.0000000  0.0000000  2
   5960   5958   5961   5963     1  180.0000771  0.3347200  3
   5965   5964   5967   5970     1  0.0000000  0.6508444  3
   5965   5964   5967   5968     1  0.0000000  0.6508444  3
   5965   5964   5967   5969     1  0.0000000  0.6508444  3
   5966   5964   5967   5970     1  0.0000000  0.6508444  3
   5966   5964   5967   5968     1  0.0000000  0.6508444  3
   5966   5964   5967   5969     1  0.0000000  0.6508444  3
   5968   5967   5970   5971     1  0.0000000  3.3472000  1
   5968   5967   5970   5971     1  0.0000000  0.0000000  2
   5968   5967   5970   5971     1  180.0000771  0.3347200  3
   5968   5967   5970   5972     1  0.0000000  3.3472000  1
   5968   5967   5970   5972     1  0.0000000  0.0000000  2
   5968   5967   5970   5972     1  180.0000771  0.3347200  3
   5969   5967   5970   5971     1  0.0000000  3.3472000  1
   5969   5967   5970   5971     1  0.0000000  0.0000000  2
   5969   5967   5970   5971     1  180.0000771  0.3347200  3
   5969   5967   5970   5972     1  0.0000000  3.3472000  1
   5969   5967   5970   5972     1  0.0000000  0.0000000  2
   5969   5967   5970   5972     1  180.0000771  0.3347200  3
   5974   5977   5980   5981     1  0.0000000  0.6508444  3
   5974   5977   5980   5982     1  0.0000000  0.6508444  3
   5975   5974   5977   5980     1  0.0000000  0.6508444  3
   5975   5974   5977   5978     1  0.0000000  0.6508444  3
   5975   5974   5977   5979     1  0.0000000  0.6508444  3
   5976   5974   5977   5980     1  0.0000000  0.6508444  3
   5976   5974   5977   5978     1  0.0000000  0.6508444  3
   5976   5974   5977   5979     1  0.0000000  0.6508444  3
   5978   5977   5974   6002     1  0.0000000  1.0460000  1
   5978   5977   5974   6002     1  0.0000000  0.0000000  3
   5978   5977   5980   5983     1  0.0000000  0.6508444  3
   5978   5977   5980   5981     1  0.0000000  0.6508444  3
   5978   5977   5980   5982     1  0.0000000  0.6508444  3
   5979   5977   5974   6002     1  0.0000000  1.0460000  1
   5979   5977   5974   6002     1  0.0000000  0.0000000  3
   5979   5977   5980   5983     1  0.0000000  0.6508444  3
   5979   5977   5980   5981     1  0.0000000  0.6508444  3
   5979   5977   5980   5982     1  0.0000000  0.6508444  3
   5980   5983   5984   5985     1  0.0000000  1.2552000  3
   5980   5983   5984   5986     1  0.0000000  1.2552000  3
   5980   5983   5993   5994     1  0.0000000  1.2552000  3
   5980   5983   5993   5995     1  0.0000000  1.2552000  3
   5981   5980   5983   5984     1  0.0000000  1.2552000  3
   5981   5980   5983   5993     1  0.0000000  1.2552000  3
   5982   5980   5983   5984     1  0.0000000  1.2552000  3
   5982   5980   5983   5993     1  0.0000000  1.2552000  3
   5983   5984   5987   5988     1  0.0000000  0.6508444  3
   5983   5984   5987   5989     1  0.0000000  0.6508444  3
   5983   5993   5996   5997     1  0.0000000  0.6508444  3
   5983   5993   5996   5998     1  0.0000000  0.6508444  3
   5984   5983   5993   5994     1  0.0000000  1.2552000  3
   5984   5983   5993   5995     1  0.0000000  1.2552000  3
   5985   5984   5983   5993     1  0.0000000  1.2552000  3
   5985   5984   5987   5990     1  0.0000000  0.6508444  3
   5985   5984   5987   5988     1  0.0000000  0.6508444  3
   5985   5984   5987   5989     1  0.0000000  0.6508444  3
   5986   5984   5983   5993     1  0.0000000  1.2552000  3
   5986   5984   5987   5990     1  0.0000000  0.6508444  3
   5986   5984   5987   5988     1  0.0000000  0.6508444  3
   5986   5984   5987   5989     1  0.0000000  0.6508444  3
   5988   5987   5990   5991     1  0.0000000  3.3472000  1
   5988   5987   5990   5991     1  0.0000000  0.0000000  2
   5988   5987   5990   5991     1  180.0000771  0.3347200  3
   5988   5987   5990   5992     1  0.0000000  3.3472000  1
   5988   5987   5990   5992     1  0.0000000  0.0000000  2
   5988   5987   5990   5992     1  180.0000771  0.3347200  3
   5989   5987   5990   5991     1  0.0000000  3.3472000  1
   5989   5987   5990   5991     1  0.0000000  0.0000000  2
   5989   5987   5990   5991     1  180.0000771  0.3347200  3
   5989   5987   5990   5992     1  0.0000000  3.3472000  1
   5989   5987   5990   5992     1  0.0000000  0.0000000  2
   5989   5987   5990   5992     1  180.0000771  0.3347200  3
   5994   5993   5996   5999     1  0.0000000  0.6508444  3
   5994   5993   5996   5997     1  0.0000000  0.6508444  3
   5994   5993   5996   5998     1  0.0000000  0.6508444  3
   5995   5993   5996   5999     1  0.0000000  0.6508444  3
   5995   5993   5996   5997     1  0.0000000  0.6508444  3
   5995   5993   5996   5998     1  0.0000000  0.6508444  3
   5997   5996   5999   6000     1  0.0000000  3.3472000  1
   5997   5996   5999   6000     1  0.0000000  0.0000000  2
   5997   5996   5999   6000     1  180.0000771  0.3347200  3
   5997   5996   5999   6001     1  0.0000000  3.3472000  1
   5997   5996   5999   6001     1  0.0000000  0.0000000  2
   5997   5996   5999   6001     1  180.0000771  0.3347200  3
   5998   5996   5999   6000     1  0.0000000  3.3472000  1
   5998   5996   5999   6000     1  0.0000000  0.0000000  2
   5998   5996   5999   6000     1  180.0000771  0.3347200  3
   5998   5996   5999   6001     1  0.0000000  3.3472000  1
   5998   5996   5999   6001     1  0.0000000  0.0000000  2
   5998   5996   5999   6001     1  180.0000771  0.3347200  3
   6003   6006   6009   6010     1  0.0000000  0.6508444  3
   6003   6006   6009   6011     1  0.0000000  0.6508444  3
   6004   6003   6006   6009     1  0.0000000  0.6508444  3
   6004   6003   6006   6007     1  0.0000000  0.6508444  3
   6004   6003   6006   6008     1  0.0000000  0.6508444  3
   6005   6003   6006   6009     1  0.0000000  0.6508444  3
   6005   6003   6006   6007     1  0.0000000  0.6508444  3
   6005   6003   6006   6008     1  0.0000000  0.6508444  3
   6007   6006   6009   6012     1  0.0000000  0.6508444  3
   6007   6006   6009   6010     1  0.0000000  0.6508444  3
   6007   6006   6009   6011     1  0.0000000  0.6508444  3
   6007   6006   6003   6031     1  0.0000000  1.0460000  1
   6007   6006   6003   6031     1  0.0000000  0.0000000  3
   6008   6006   6009   6012     1  0.0000000  0.6508444  3
   6008   6006   6009   6010     1  0.0000000  0.6508444  3
   6008   6006   6009   6011     1  0.0000000  0.6508444  3
   6008   6006   6003   6031     1  0.0000000  1.0460000  1
   6008   6006   6003   6031     1  0.0000000  0.0000000  3
   6009   6012   6013   6014     1  0.0000000  1.2552000  3
   6009   6012   6013   6015     1  0.0000000  1.2552000  3
   6009   6012   6022   6023     1  0.0000000  1.2552000  3
   6009   6012   6022   6024     1  0.0000000  1.2552000  3
   6010   6009   6012   6013     1  0.0000000  1.2552000  3
   6010   6009   6012   6022     1  0.0000000  1.2552000  3
   6011   6009   6012   6013     1  0.0000000  1.2552000  3
   6011   6009   6012   6022     1  0.0000000  1.2552000  3
   6012   6013   6016   6017     1  0.0000000  0.6508444  3
   6012   6013   6016   6018     1  0.0000000  0.6508444  3
   6012   6022   6025   6026     1  0.0000000  0.6508444  3
   6012   6022   6025   6027     1  0.0000000  0.6508444  3
   6013   6012   6022   6023     1  0.0000000  1.2552000  3
   6013   6012   6022   6024     1  0.0000000  1.2552000  3
   6014   6013   6016   6019     1  0.0000000  0.6508444  3
   6014   6013   6016   6017     1  0.0000000  0.6508444  3
   6014   6013   6016   6018     1  0.0000000  0.6508444  3
   6014   6013   6012   6022     1  0.0000000  1.2552000  3
   6015   6013   6016   6019     1  0.0000000  0.6508444  3
   6015   6013   6016   6017     1  0.0000000  0.6508444  3
   6015   6013   6016   6018     1  0.0000000  0.6508444  3
   6015   6013   6012   6022     1  0.0000000  1.2552000  3
   6017   6016   6019   6020     1  0.0000000  3.3472000  1
   6017   6016   6019   6020     1  0.0000000  0.0000000  2
   6017   6016   6019   6020     1  180.0000771  0.3347200  3
   6017   6016   6019   6021     1  0.0000000  3.3472000  1
   6017   6016   6019   6021     1  0.0000000  0.0000000  2
   6017   6016   6019   6021     1  180.0000771  0.3347200  3
   6018   6016   6019   6020     1  0.0000000  3.3472000  1
   6018   6016   6019   6020     1  0.0000000  0.0000000  2
   6018   6016   6019   6020     1  180.0000771  0.3347200  3
   6018   6016   6019   6021     1  0.0000000  3.3472000  1
   6018   6016   6019   6021     1  0.0000000  0.0000000  2
   6018   6016   6019   6021     1  180.0000771  0.3347200  3
   6023   6022   6025   6028     1  0.0000000  0.6508444  3
   6023   6022   6025   6026     1  0.0000000  0.6508444  3
   6023   6022   6025   6027     1  0.0000000  0.6508444  3
   6024   6022   6025   6028     1  0.0000000  0.6508444  3
   6024   6022   6025   6026     1  0.0000000  0.6508444  3
   6024   6022   6025   6027     1  0.0000000  0.6508444  3
   6026   6025   6028   6029     1  0.0000000  3.3472000  1
   6026   6025   6028   6029     1  0.0000000  0.0000000  2
   6026   6025   6028   6029     1  180.0000771  0.3347200  3
   6026   6025   6028   6030     1  0.0000000  3.3472000  1
   6026   6025   6028   6030     1  0.0000000  0.0000000  2
   6026   6025   6028   6030     1  180.0000771  0.3347200  3
   6027   6025   6028   6029     1  0.0000000  3.3472000  1
   6027   6025   6028   6029     1  0.0000000  0.0000000  2
   6027   6025   6028   6029     1  180.0000771  0.3347200  3
   6027   6025   6028   6030     1  0.0000000  3.3472000  1
   6027   6025   6028   6030     1  0.0000000  0.0000000  2
   6027   6025   6028   6030     1  180.0000771  0.3347200  3
   6032   6035   6038   6039     1  0.0000000  0.6508444  3
   6032   6035   6038   6040     1  0.0000000  0.6508444  3
   6033   6032   6035   6038     1  0.0000000  0.6508444  3
   6033   6032   6035   6036     1  0.0000000  0.6508444  3
   6033   6032   6035   6037     1  0.0000000  0.6508444  3
   6034   6032   6035   6038     1  0.0000000  0.6508444  3
   6034   6032   6035   6036     1  0.0000000  0.6508444  3
   6034   6032   6035   6037     1  0.0000000  0.6508444  3
   6036   6035   6032   6060     1  0.0000000  1.0460000  1
   6036   6035   6032   6060     1  0.0000000  0.0000000  3
   6036   6035   6038   6041     1  0.0000000  0.6508444  3
   6036   6035   6038   6039     1  0.0000000  0.6508444  3
   6036   6035   6038   6040     1  0.0000000  0.6508444  3
   6037   6035   6032   6060     1  0.0000000  1.0460000  1
   6037   6035   6032   6060     1  0.0000000  0.0000000  3
   6037   6035   6038   6041     1  0.0000000  0.6508444  3
   6037   6035   6038   6039     1  0.0000000  0.6508444  3
   6037   6035   6038   6040     1  0.0000000  0.6508444  3
   6038   6041   6042   6043     1  0.0000000  1.2552000  3
   6038   6041   6042   6044     1  0.0000000  1.2552000  3
   6038   6041   6051   6052     1  0.0000000  1.2552000  3
   6038   6041   6051   6053     1  0.0000000  1.2552000  3
   6039   6038   6041   6042     1  0.0000000  1.2552000  3
   6039   6038   6041   6051     1  0.0000000  1.2552000  3
   6040   6038   6041   6042     1  0.0000000  1.2552000  3
   6040   6038   6041   6051     1  0.0000000  1.2552000  3
   6041   6042   6045   6046     1  0.0000000  0.6508444  3
   6041   6042   6045   6047     1  0.0000000  0.6508444  3
   6041   6051   6054   6055     1  0.0000000  0.6508444  3
   6041   6051   6054   6056     1  0.0000000  0.6508444  3
   6042   6041   6051   6052     1  0.0000000  1.2552000  3
   6042   6041   6051   6053     1  0.0000000  1.2552000  3
   6043   6042   6041   6051     1  0.0000000  1.2552000  3
   6043   6042   6045   6048     1  0.0000000  0.6508444  3
   6043   6042   6045   6046     1  0.0000000  0.6508444  3
   6043   6042   6045   6047     1  0.0000000  0.6508444  3
   6044   6042   6041   6051     1  0.0000000  1.2552000  3
   6044   6042   6045   6048     1  0.0000000  0.6508444  3
   6044   6042   6045   6046     1  0.0000000  0.6508444  3
   6044   6042   6045   6047     1  0.0000000  0.6508444  3
   6046   6045   6048   6049     1  0.0000000  3.3472000  1
   6046   6045   6048   6049     1  0.0000000  0.0000000  2
   6046   6045   6048   6049     1  180.0000771  0.3347200  3
   6046   6045   6048   6050     1  0.0000000  3.3472000  1
   6046   6045   6048   6050     1  0.0000000  0.0000000  2
   6046   6045   6048   6050     1  180.0000771  0.3347200  3
   6047   6045   6048   6049     1  0.0000000  3.3472000  1
   6047   6045   6048   6049     1  0.0000000  0.0000000  2
   6047   6045   6048   6049     1  180.0000771  0.3347200  3
   6047   6045   6048   6050     1  0.0000000  3.3472000  1
   6047   6045   6048   6050     1  0.0000000  0.0000000  2
   6047   6045   6048   6050     1  180.0000771  0.3347200  3
   6052   6051   6054   6057     1  0.0000000  0.6508444  3
   6052   6051   6054   6055     1  0.0000000  0.6508444  3
   6052   6051   6054   6056     1  0.0000000  0.6508444  3
   6053   6051   6054   6057     1  0.0000000  0.6508444  3
   6053   6051   6054   6055     1  0.0000000  0.6508444  3
   6053   6051   6054   6056     1  0.0000000  0.6508444  3
   6055   6054   6057   6058     1  0.0000000  3.3472000  1
   6055   6054   6057   6058     1  0.0000000  0.0000000  2
   6055   6054   6057   6058     1  180.0000771  0.3347200  3
   6055   6054   6057   6059     1  0.0000000  3.3472000  1
   6055   6054   6057   6059     1  0.0000000  0.0000000  2
   6055   6054   6057   6059     1  180.0000771  0.3347200  3
   6056   6054   6057   6058     1  0.0000000  3.3472000  1
   6056   6054   6057   6058     1  0.0000000  0.0000000  2
   6056   6054   6057   6058     1  180.0000771  0.3347200  3
   6056   6054   6057   6059     1  0.0000000  3.3472000  1
   6056   6054   6057   6059     1  0.0000000  0.0000000  2
   6056   6054   6057   6059     1  180.0000771  0.3347200  3
   6061   6064   6067   6068     1  0.0000000  0.6508444  3
   6061   6064   6067   6069     1  0.0000000  0.6508444  3
   6062   6061   6064   6067     1  0.0000000  0.6508444  3
   6062   6061   6064   6065     1  0.0000000  0.6508444  3
   6062   6061   6064   6066     1  0.0000000  0.6508444  3
   6063   6061   6064   6067     1  0.0000000  0.6508444  3
   6063   6061   6064   6065     1  0.0000000  0.6508444  3
   6063   6061   6064   6066     1  0.0000000  0.6508444  3
   6065   6064   6067   6070     1  0.0000000  0.6508444  3
   6065   6064   6067   6068     1  0.0000000  0.6508444  3
   6065   6064   6067   6069     1  0.0000000  0.6508444  3
   6065   6064   6061   6089     1  0.0000000  1.0460000  1
   6065   6064   6061   6089     1  0.0000000  0.0000000  3
   6066   6064   6067   6070     1  0.0000000  0.6508444  3
   6066   6064   6067   6068     1  0.0000000  0.6508444  3
   6066   6064   6067   6069     1  0.0000000  0.6508444  3
   6066   6064   6061   6089     1  0.0000000  1.0460000  1
   6066   6064   6061   6089     1  0.0000000  0.0000000  3
   6067   6070   6071   6072     1  0.0000000  1.2552000  3
   6067   6070   6071   6073     1  0.0000000  1.2552000  3
   6067   6070   6080   6081     1  0.0000000  1.2552000  3
   6067   6070   6080   6082     1  0.0000000  1.2552000  3
   6068   6067   6070   6071     1  0.0000000  1.2552000  3
   6068   6067   6070   6080     1  0.0000000  1.2552000  3
   6069   6067   6070   6071     1  0.0000000  1.2552000  3
   6069   6067   6070   6080     1  0.0000000  1.2552000  3
   6070   6071   6074   6075     1  0.0000000  0.6508444  3
   6070   6071   6074   6076     1  0.0000000  0.6508444  3
   6070   6080   6083   6084     1  0.0000000  0.6508444  3
   6070   6080   6083   6085     1  0.0000000  0.6508444  3
   6071   6070   6080   6081     1  0.0000000  1.2552000  3
   6071   6070   6080   6082     1  0.0000000  1.2552000  3
   6072   6071   6074   6077     1  0.0000000  0.6508444  3
   6072   6071   6074   6075     1  0.0000000  0.6508444  3
   6072   6071   6074   6076     1  0.0000000  0.6508444  3
   6072   6071   6070   6080     1  0.0000000  1.2552000  3
   6073   6071   6074   6077     1  0.0000000  0.6508444  3
   6073   6071   6074   6075     1  0.0000000  0.6508444  3
   6073   6071   6074   6076     1  0.0000000  0.6508444  3
   6073   6071   6070   6080     1  0.0000000  1.2552000  3
   6075   6074   6077   6078     1  0.0000000  3.3472000  1
   6075   6074   6077   6078     1  0.0000000  0.0000000  2
   6075   6074   6077   6078     1  180.0000771  0.3347200  3
   6075   6074   6077   6079     1  0.0000000  3.3472000  1
   6075   6074   6077   6079     1  0.0000000  0.0000000  2
   6075   6074   6077   6079     1  180.0000771  0.3347200  3
   6076   6074   6077   6078     1  0.0000000  3.3472000  1
   6076   6074   6077   6078     1  0.0000000  0.0000000  2
   6076   6074   6077   6078     1  180.0000771  0.3347200  3
   6076   6074   6077   6079     1  0.0000000  3.3472000  1
   6076   6074   6077   6079     1  0.0000000  0.0000000  2
   6076   6074   6077   6079     1  180.0000771  0.3347200  3
   6081   6080   6083   6086     1  0.0000000  0.6508444  3
   6081   6080   6083   6084     1  0.0000000  0.6508444  3
   6081   6080   6083   6085     1  0.0000000  0.6508444  3
   6082   6080   6083   6086     1  0.0000000  0.6508444  3
   6082   6080   6083   6084     1  0.0000000  0.6508444  3
   6082   6080   6083   6085     1  0.0000000  0.6508444  3
   6084   6083   6086   6087     1  0.0000000  3.3472000  1
   6084   6083   6086   6087     1  0.0000000  0.0000000  2
   6084   6083   6086   6087     1  180.0000771  0.3347200  3
   6084   6083   6086   6088     1  0.0000000  3.3472000  1
   6084   6083   6086   6088     1  0.0000000  0.0000000  2
   6084   6083   6086   6088     1  180.0000771  0.3347200  3
   6085   6083   6086   6087     1  0.0000000  3.3472000  1
   6085   6083   6086   6087     1  0.0000000  0.0000000  2
   6085   6083   6086   6087     1  180.0000771  0.3347200  3
   6085   6083   6086   6088     1  0.0000000  3.3472000  1
   6085   6083   6086   6088     1  0.0000000  0.0000000  2
   6085   6083   6086   6088     1  180.0000771  0.3347200  3
   6090   6093   6096   6097     1  0.0000000  0.6508444  3
   6090   6093   6096   6098     1  0.0000000  0.6508444  3
   6091   6090   6093   6096     1  0.0000000  0.6508444  3
   6091   6090   6093   6094     1  0.0000000  0.6508444  3
   6091   6090   6093   6095     1  0.0000000  0.6508444  3
   6092   6090   6093   6096     1  0.0000000  0.6508444  3
   6092   6090   6093   6094     1  0.0000000  0.6508444  3
   6092   6090   6093   6095     1  0.0000000  0.6508444  3
   6094   6093   6090   6118     1  0.0000000  1.0460000  1
   6094   6093   6090   6118     1  0.0000000  0.0000000  3
   6094   6093   6096   6099     1  0.0000000  0.6508444  3
   6094   6093   6096   6097     1  0.0000000  0.6508444  3
   6094   6093   6096   6098     1  0.0000000  0.6508444  3
   6095   6093   6090   6118     1  0.0000000  1.0460000  1
   6095   6093   6090   6118     1  0.0000000  0.0000000  3
   6095   6093   6096   6099     1  0.0000000  0.6508444  3
   6095   6093   6096   6097     1  0.0000000  0.6508444  3
   6095   6093   6096   6098     1  0.0000000  0.6508444  3
   6096   6099   6100   6101     1  0.0000000  1.2552000  3
   6096   6099   6100   6102     1  0.0000000  1.2552000  3
   6096   6099   6109   6110     1  0.0000000  1.2552000  3
   6096   6099   6109   6111     1  0.0000000  1.2552000  3
   6097   6096   6099   6100     1  0.0000000  1.2552000  3
   6097   6096   6099   6109     1  0.0000000  1.2552000  3
   6098   6096   6099   6100     1  0.0000000  1.2552000  3
   6098   6096   6099   6109     1  0.0000000  1.2552000  3
   6099   6100   6103   6104     1  0.0000000  0.6508444  3
   6099   6100   6103   6105     1  0.0000000  0.6508444  3
   6099   6109   6112   6113     1  0.0000000  0.6508444  3
   6099   6109   6112   6114     1  0.0000000  0.6508444  3
   6100   6099   6109   6110     1  0.0000000  1.2552000  3
   6100   6099   6109   6111     1  0.0000000  1.2552000  3
   6101   6100   6099   6109     1  0.0000000  1.2552000  3
   6101   6100   6103   6106     1  0.0000000  0.6508444  3
   6101   6100   6103   6104     1  0.0000000  0.6508444  3
   6101   6100   6103   6105     1  0.0000000  0.6508444  3
   6102   6100   6099   6109     1  0.0000000  1.2552000  3
   6102   6100   6103   6106     1  0.0000000  0.6508444  3
   6102   6100   6103   6104     1  0.0000000  0.6508444  3
   6102   6100   6103   6105     1  0.0000000  0.6508444  3
   6104   6103   6106   6107     1  0.0000000  3.3472000  1
   6104   6103   6106   6107     1  0.0000000  0.0000000  2
   6104   6103   6106   6107     1  180.0000771  0.3347200  3
   6104   6103   6106   6108     1  0.0000000  3.3472000  1
   6104   6103   6106   6108     1  0.0000000  0.0000000  2
   6104   6103   6106   6108     1  180.0000771  0.3347200  3
   6105   6103   6106   6107     1  0.0000000  3.3472000  1
   6105   6103   6106   6107     1  0.0000000  0.0000000  2
   6105   6103   6106   6107     1  180.0000771  0.3347200  3
   6105   6103   6106   6108     1  0.0000000  3.3472000  1
   6105   6103   6106   6108     1  0.0000000  0.0000000  2
   6105   6103   6106   6108     1  180.0000771  0.3347200  3
   6110   6109   6112   6115     1  0.0000000  0.6508444  3
   6110   6109   6112   6113     1  0.0000000  0.6508444  3
   6110   6109   6112   6114     1  0.0000000  0.6508444  3
   6111   6109   6112   6115     1  0.0000000  0.6508444  3
   6111   6109   6112   6113     1  0.0000000  0.6508444  3
   6111   6109   6112   6114     1  0.0000000  0.6508444  3
   6113   6112   6115   6116     1  0.0000000  3.3472000  1
   6113   6112   6115   6116     1  0.0000000  0.0000000  2
   6113   6112   6115   6116     1  180.0000771  0.3347200  3
   6113   6112   6115   6117     1  0.0000000  3.3472000  1
   6113   6112   6115   6117     1  0.0000000  0.0000000  2
   6113   6112   6115   6117     1  180.0000771  0.3347200  3
   6114   6112   6115   6116     1  0.0000000  3.3472000  1
   6114   6112   6115   6116     1  0.0000000  0.0000000  2
   6114   6112   6115   6116     1  180.0000771  0.3347200  3
   6114   6112   6115   6117     1  0.0000000  3.3472000  1
   6114   6112   6115   6117     1  0.0000000  0.0000000  2
   6114   6112   6115   6117     1  180.0000771  0.3347200  3
   6119   6122   6125   6126     1  0.0000000  0.6508444  3
   6119   6122   6125   6127     1  0.0000000  0.6508444  3
   6120   6119   6122   6125     1  0.0000000  0.6508444  3
   6120   6119   6122   6123     1  0.0000000  0.6508444  3
   6120   6119   6122   6124     1  0.0000000  0.6508444  3
   6121   6119   6122   6125     1  0.0000000  0.6508444  3
   6121   6119   6122   6123     1  0.0000000  0.6508444  3
   6121   6119   6122   6124     1  0.0000000  0.6508444  3
   6123   6122   6125   6128     1  0.0000000  0.6508444  3
   6123   6122   6125   6126     1  0.0000000  0.6508444  3
   6123   6122   6125   6127     1  0.0000000  0.6508444  3
   6123   6122   6119   6147     1  0.0000000  1.0460000  1
   6123   6122   6119   6147     1  0.0000000  0.0000000  3
   6124   6122   6125   6128     1  0.0000000  0.6508444  3
   6124   6122   6125   6126     1  0.0000000  0.6508444  3
   6124   6122   6125   6127     1  0.0000000  0.6508444  3
   6124   6122   6119   6147     1  0.0000000  1.0460000  1
   6124   6122   6119   6147     1  0.0000000  0.0000000  3
   6125   6128   6129   6130     1  0.0000000  1.2552000  3
   6125   6128   6129   6131     1  0.0000000  1.2552000  3
   6125   6128   6138   6139     1  0.0000000  1.2552000  3
   6125   6128   6138   6140     1  0.0000000  1.2552000  3
   6126   6125   6128   6129     1  0.0000000  1.2552000  3
   6126   6125   6128   6138     1  0.0000000  1.2552000  3
   6127   6125   6128   6129     1  0.0000000  1.2552000  3
   6127   6125   6128   6138     1  0.0000000  1.2552000  3
   6128   6129   6132   6133     1  0.0000000  0.6508444  3
   6128   6129   6132   6134     1  0.0000000  0.6508444  3
   6128   6138   6141   6142     1  0.0000000  0.6508444  3
   6128   6138   6141   6143     1  0.0000000  0.6508444  3
   6129   6128   6138   6139     1  0.0000000  1.2552000  3
   6129   6128   6138   6140     1  0.0000000  1.2552000  3
   6130   6129   6132   6135     1  0.0000000  0.6508444  3
   6130   6129   6132   6133     1  0.0000000  0.6508444  3
   6130   6129   6132   6134     1  0.0000000  0.6508444  3
   6130   6129   6128   6138     1  0.0000000  1.2552000  3
   6131   6129   6132   6135     1  0.0000000  0.6508444  3
   6131   6129   6132   6133     1  0.0000000  0.6508444  3
   6131   6129   6132   6134     1  0.0000000  0.6508444  3
   6131   6129   6128   6138     1  0.0000000  1.2552000  3
   6133   6132   6135   6136     1  0.0000000  3.3472000  1
   6133   6132   6135   6136     1  0.0000000  0.0000000  2
   6133   6132   6135   6136     1  180.0000771  0.3347200  3
   6133   6132   6135   6137     1  0.0000000  3.3472000  1
   6133   6132   6135   6137     1  0.0000000  0.0000000  2
   6133   6132   6135   6137     1  180.0000771  0.3347200  3
   6134   6132   6135   6136     1  0.0000000  3.3472000  1
   6134   6132   6135   6136     1  0.0000000  0.0000000  2
   6134   6132   6135   6136     1  180.0000771  0.3347200  3
   6134   6132   6135   6137     1  0.0000000  3.3472000  1
   6134   6132   6135   6137     1  0.0000000  0.0000000  2
   6134   6132   6135   6137     1  180.0000771  0.3347200  3
   6139   6138   6141   6144     1  0.0000000  0.6508444  3
   6139   6138   6141   6142     1  0.0000000  0.6508444  3
   6139   6138   6141   6143     1  0.0000000  0.6508444  3
   6140   6138   6141   6144     1  0.0000000  0.6508444  3
   6140   6138   6141   6142     1  0.0000000  0.6508444  3
   6140   6138   6141   6143     1  0.0000000  0.6508444  3
   6142   6141   6144   6145     1  0.0000000  3.3472000  1
   6142   6141   6144   6145     1  0.0000000  0.0000000  2
   6142   6141   6144   6145     1  180.0000771  0.3347200  3
   6142   6141   6144   6146     1  0.0000000  3.3472000  1
   6142   6141   6144   6146     1  0.0000000  0.0000000  2
   6142   6141   6144   6146     1  180.0000771  0.3347200  3
   6143   6141   6144   6145     1  0.0000000  3.3472000  1
   6143   6141   6144   6145     1  0.0000000  0.0000000  2
   6143   6141   6144   6145     1  180.0000771  0.3347200  3
   6143   6141   6144   6146     1  0.0000000  3.3472000  1
   6143   6141   6144   6146     1  0.0000000  0.0000000  2
   6143   6141   6144   6146     1  180.0000771  0.3347200  3
   6148   6151   6154   6155     1  0.0000000  0.6508444  3
   6148   6151   6154   6156     1  0.0000000  0.6508444  3
   6149   6148   6151   6154     1  0.0000000  0.6508444  3
   6149   6148   6151   6152     1  0.0000000  0.6508444  3
   6149   6148   6151   6153     1  0.0000000  0.6508444  3
   6150   6148   6151   6154     1  0.0000000  0.6508444  3
   6150   6148   6151   6152     1  0.0000000  0.6508444  3
   6150   6148   6151   6153     1  0.0000000  0.6508444  3
   6152   6151   6148   6176     1  0.0000000  1.0460000  1
   6152   6151   6148   6176     1  0.0000000  0.0000000  3
   6152   6151   6154   6157     1  0.0000000  0.6508444  3
   6152   6151   6154   6155     1  0.0000000  0.6508444  3
   6152   6151   6154   6156     1  0.0000000  0.6508444  3
   6153   6151   6148   6176     1  0.0000000  1.0460000  1
   6153   6151   6148   6176     1  0.0000000  0.0000000  3
   6153   6151   6154   6157     1  0.0000000  0.6508444  3
   6153   6151   6154   6155     1  0.0000000  0.6508444  3
   6153   6151   6154   6156     1  0.0000000  0.6508444  3
   6154   6157   6158   6159     1  0.0000000  1.2552000  3
   6154   6157   6158   6160     1  0.0000000  1.2552000  3
   6154   6157   6167   6168     1  0.0000000  1.2552000  3
   6154   6157   6167   6169     1  0.0000000  1.2552000  3
   6155   6154   6157   6158     1  0.0000000  1.2552000  3
   6155   6154   6157   6167     1  0.0000000  1.2552000  3
   6156   6154   6157   6158     1  0.0000000  1.2552000  3
   6156   6154   6157   6167     1  0.0000000  1.2552000  3
   6157   6158   6161   6162     1  0.0000000  0.6508444  3
   6157   6158   6161   6163     1  0.0000000  0.6508444  3
   6157   6167   6170   6171     1  0.0000000  0.6508444  3
   6157   6167   6170   6172     1  0.0000000  0.6508444  3
   6158   6157   6167   6168     1  0.0000000  1.2552000  3
   6158   6157   6167   6169     1  0.0000000  1.2552000  3
   6159   6158   6157   6167     1  0.0000000  1.2552000  3
   6159   6158   6161   6164     1  0.0000000  0.6508444  3
   6159   6158   6161   6162     1  0.0000000  0.6508444  3
   6159   6158   6161   6163     1  0.0000000  0.6508444  3
   6160   6158   6157   6167     1  0.0000000  1.2552000  3
   6160   6158   6161   6164     1  0.0000000  0.6508444  3
   6160   6158   6161   6162     1  0.0000000  0.6508444  3
   6160   6158   6161   6163     1  0.0000000  0.6508444  3
   6162   6161   6164   6165     1  0.0000000  3.3472000  1
   6162   6161   6164   6165     1  0.0000000  0.0000000  2
   6162   6161   6164   6165     1  180.0000771  0.3347200  3
   6162   6161   6164   6166     1  0.0000000  3.3472000  1
   6162   6161   6164   6166     1  0.0000000  0.0000000  2
   6162   6161   6164   6166     1  180.0000771  0.3347200  3
   6163   6161   6164   6165     1  0.0000000  3.3472000  1
   6163   6161   6164   6165     1  0.0000000  0.0000000  2
   6163   6161   6164   6165     1  180.0000771  0.3347200  3
   6163   6161   6164   6166     1  0.0000000  3.3472000  1
   6163   6161   6164   6166     1  0.0000000  0.0000000  2
   6163   6161   6164   6166     1  180.0000771  0.3347200  3
   6168   6167   6170   6173     1  0.0000000  0.6508444  3
   6168   6167   6170   6171     1  0.0000000  0.6508444  3
   6168   6167   6170   6172     1  0.0000000  0.6508444  3
   6169   6167   6170   6173     1  0.0000000  0.6508444  3
   6169   6167   6170   6171     1  0.0000000  0.6508444  3
   6169   6167   6170   6172     1  0.0000000  0.6508444  3
   6171   6170   6173   6174     1  0.0000000  3.3472000  1
   6171   6170   6173   6174     1  0.0000000  0.0000000  2
   6171   6170   6173   6174     1  180.0000771  0.3347200  3
   6171   6170   6173   6175     1  0.0000000  3.3472000  1
   6171   6170   6173   6175     1  0.0000000  0.0000000  2
   6171   6170   6173   6175     1  180.0000771  0.3347200  3
   6172   6170   6173   6174     1  0.0000000  3.3472000  1
   6172   6170   6173   6174     1  0.0000000  0.0000000  2
   6172   6170   6173   6174     1  180.0000771  0.3347200  3
   6172   6170   6173   6175     1  0.0000000  3.3472000  1
   6172   6170   6173   6175     1  0.0000000  0.0000000  2
   6172   6170   6173   6175     1  180.0000771  0.3347200  3
   6177   6180   6183   6184     1  0.0000000  0.6508444  3
   6177   6180   6183   6185     1  0.0000000  0.6508444  3
   6178   6177   6180   6183     1  0.0000000  0.6508444  3
   6178   6177   6180   6181     1  0.0000000  0.6508444  3
   6178   6177   6180   6182     1  0.0000000  0.6508444  3
   6179   6177   6180   6183     1  0.0000000  0.6508444  3
   6179   6177   6180   6181     1  0.0000000  0.6508444  3
   6179   6177   6180   6182     1  0.0000000  0.6508444  3
   6181   6180   6183   6186     1  0.0000000  0.6508444  3
   6181   6180   6183   6184     1  0.0000000  0.6508444  3
   6181   6180   6183   6185     1  0.0000000  0.6508444  3
   6181   6180   6177   6205     1  0.0000000  1.0460000  1
   6181   6180   6177   6205     1  0.0000000  0.0000000  3
   6182   6180   6183   6186     1  0.0000000  0.6508444  3
   6182   6180   6183   6184     1  0.0000000  0.6508444  3
   6182   6180   6183   6185     1  0.0000000  0.6508444  3
   6182   6180   6177   6205     1  0.0000000  1.0460000  1
   6182   6180   6177   6205     1  0.0000000  0.0000000  3
   6183   6186   6187   6188     1  0.0000000  1.2552000  3
   6183   6186   6187   6189     1  0.0000000  1.2552000  3
   6183   6186   6196   6197     1  0.0000000  1.2552000  3
   6183   6186   6196   6198     1  0.0000000  1.2552000  3
   6184   6183   6186   6187     1  0.0000000  1.2552000  3
   6184   6183   6186   6196     1  0.0000000  1.2552000  3
   6185   6183   6186   6187     1  0.0000000  1.2552000  3
   6185   6183   6186   6196     1  0.0000000  1.2552000  3
   6186   6187   6190   6191     1  0.0000000  0.6508444  3
   6186   6187   6190   6192     1  0.0000000  0.6508444  3
   6186   6196   6199   6200     1  0.0000000  0.6508444  3
   6186   6196   6199   6201     1  0.0000000  0.6508444  3
   6187   6186   6196   6197     1  0.0000000  1.2552000  3
   6187   6186   6196   6198     1  0.0000000  1.2552000  3
   6188   6187   6190   6193     1  0.0000000  0.6508444  3
   6188   6187   6190   6191     1  0.0000000  0.6508444  3
   6188   6187   6190   6192     1  0.0000000  0.6508444  3
   6188   6187   6186   6196     1  0.0000000  1.2552000  3
   6189   6187   6190   6193     1  0.0000000  0.6508444  3
   6189   6187   6190   6191     1  0.0000000  0.6508444  3
   6189   6187   6190   6192     1  0.0000000  0.6508444  3
   6189   6187   6186   6196     1  0.0000000  1.2552000  3
   6191   6190   6193   6194     1  0.0000000  3.3472000  1
   6191   6190   6193   6194     1  0.0000000  0.0000000  2
   6191   6190   6193   6194     1  180.0000771  0.3347200  3
   6191   6190   6193   6195     1  0.0000000  3.3472000  1
   6191   6190   6193   6195     1  0.0000000  0.0000000  2
   6191   6190   6193   6195     1  180.0000771  0.3347200  3
   6192   6190   6193   6194     1  0.0000000  3.3472000  1
   6192   6190   6193   6194     1  0.0000000  0.0000000  2
   6192   6190   6193   6194     1  180.0000771  0.3347200  3
   6192   6190   6193   6195     1  0.0000000  3.3472000  1
   6192   6190   6193   6195     1  0.0000000  0.0000000  2
   6192   6190   6193   6195     1  180.0000771  0.3347200  3
   6197   6196   6199   6202     1  0.0000000  0.6508444  3
   6197   6196   6199   6200     1  0.0000000  0.6508444  3
   6197   6196   6199   6201     1  0.0000000  0.6508444  3
   6198   6196   6199   6202     1  0.0000000  0.6508444  3
   6198   6196   6199   6200     1  0.0000000  0.6508444  3
   6198   6196   6199   6201     1  0.0000000  0.6508444  3
   6200   6199   6202   6203     1  0.0000000  3.3472000  1
   6200   6199   6202   6203     1  0.0000000  0.0000000  2
   6200   6199   6202   6203     1  180.0000771  0.3347200  3
   6200   6199   6202   6204     1  0.0000000  3.3472000  1
   6200   6199   6202   6204     1  0.0000000  0.0000000  2
   6200   6199   6202   6204     1  180.0000771  0.3347200  3
   6201   6199   6202   6203     1  0.0000000  3.3472000  1
   6201   6199   6202   6203     1  0.0000000  0.0000000  2
   6201   6199   6202   6203     1  180.0000771  0.3347200  3
   6201   6199   6202   6204     1  0.0000000  3.3472000  1
   6201   6199   6202   6204     1  0.0000000  0.0000000  2
   6201   6199   6202   6204     1  180.0000771  0.3347200  3
   6206   6209   6212   6213     1  0.0000000  0.6508444  3
   6206   6209   6212   6214     1  0.0000000  0.6508444  3
   6207   6206   6209   6212     1  0.0000000  0.6508444  3
   6207   6206   6209   6210     1  0.0000000  0.6508444  3
   6207   6206   6209   6211     1  0.0000000  0.6508444  3
   6208   6206   6209   6212     1  0.0000000  0.6508444  3
   6208   6206   6209   6210     1  0.0000000  0.6508444  3
   6208   6206   6209   6211     1  0.0000000  0.6508444  3
   6210   6209   6206   6234     1  0.0000000  1.0460000  1
   6210   6209   6206   6234     1  0.0000000  0.0000000  3
   6210   6209   6212   6215     1  0.0000000  0.6508444  3
   6210   6209   6212   6213     1  0.0000000  0.6508444  3
   6210   6209   6212   6214     1  0.0000000  0.6508444  3
   6211   6209   6206   6234     1  0.0000000  1.0460000  1
   6211   6209   6206   6234     1  0.0000000  0.0000000  3
   6211   6209   6212   6215     1  0.0000000  0.6508444  3
   6211   6209   6212   6213     1  0.0000000  0.6508444  3
   6211   6209   6212   6214     1  0.0000000  0.6508444  3
   6212   6215   6216   6217     1  0.0000000  1.2552000  3
   6212   6215   6216   6218     1  0.0000000  1.2552000  3
   6212   6215   6225   6226     1  0.0000000  1.2552000  3
   6212   6215   6225   6227     1  0.0000000  1.2552000  3
   6213   6212   6215   6216     1  0.0000000  1.2552000  3
   6213   6212   6215   6225     1  0.0000000  1.2552000  3
   6214   6212   6215   6216     1  0.0000000  1.2552000  3
   6214   6212   6215   6225     1  0.0000000  1.2552000  3
   6215   6216   6219   6220     1  0.0000000  0.6508444  3
   6215   6216   6219   6221     1  0.0000000  0.6508444  3
   6215   6225   6228   6229     1  0.0000000  0.6508444  3
   6215   6225   6228   6230     1  0.0000000  0.6508444  3
   6216   6215   6225   6226     1  0.0000000  1.2552000  3
   6216   6215   6225   6227     1  0.0000000  1.2552000  3
   6217   6216   6215   6225     1  0.0000000  1.2552000  3
   6217   6216   6219   6222     1  0.0000000  0.6508444  3
   6217   6216   6219   6220     1  0.0000000  0.6508444  3
   6217   6216   6219   6221     1  0.0000000  0.6508444  3
   6218   6216   6215   6225     1  0.0000000  1.2552000  3
   6218   6216   6219   6222     1  0.0000000  0.6508444  3
   6218   6216   6219   6220     1  0.0000000  0.6508444  3
   6218   6216   6219   6221     1  0.0000000  0.6508444  3
   6220   6219   6222   6223     1  0.0000000  3.3472000  1
   6220   6219   6222   6223     1  0.0000000  0.0000000  2
   6220   6219   6222   6223     1  180.0000771  0.3347200  3
   6220   6219   6222   6224     1  0.0000000  3.3472000  1
   6220   6219   6222   6224     1  0.0000000  0.0000000  2
   6220   6219   6222   6224     1  180.0000771  0.3347200  3
   6221   6219   6222   6223     1  0.0000000  3.3472000  1
   6221   6219   6222   6223     1  0.0000000  0.0000000  2
   6221   6219   6222   6223     1  180.0000771  0.3347200  3
   6221   6219   6222   6224     1  0.0000000  3.3472000  1
   6221   6219   6222   6224     1  0.0000000  0.0000000  2
   6221   6219   6222   6224     1  180.0000771  0.3347200  3
   6226   6225   6228   6231     1  0.0000000  0.6508444  3
   6226   6225   6228   6229     1  0.0000000  0.6508444  3
   6226   6225   6228   6230     1  0.0000000  0.6508444  3
   6227   6225   6228   6231     1  0.0000000  0.6508444  3
   6227   6225   6228   6229     1  0.0000000  0.6508444  3
   6227   6225   6228   6230     1  0.0000000  0.6508444  3
   6229   6228   6231   6232     1  0.0000000  3.3472000  1
   6229   6228   6231   6232     1  0.0000000  0.0000000  2
   6229   6228   6231   6232     1  180.0000771  0.3347200  3
   6229   6228   6231   6233     1  0.0000000  3.3472000  1
   6229   6228   6231   6233     1  0.0000000  0.0000000  2
   6229   6228   6231   6233     1  180.0000771  0.3347200  3
   6230   6228   6231   6232     1  0.0000000  3.3472000  1
   6230   6228   6231   6232     1  0.0000000  0.0000000  2
   6230   6228   6231   6232     1  180.0000771  0.3347200  3
   6230   6228   6231   6233     1  0.0000000  3.3472000  1
   6230   6228   6231   6233     1  0.0000000  0.0000000  2
   6230   6228   6231   6233     1  180.0000771  0.3347200  3
   6235   6238   6241   6242     1  0.0000000  0.6508444  3
   6235   6238   6241   6243     1  0.0000000  0.6508444  3
   6236   6235   6238   6241     1  0.0000000  0.6508444  3
   6236   6235   6238   6239     1  0.0000000  0.6508444  3
   6236   6235   6238   6240     1  0.0000000  0.6508444  3
   6237   6235   6238   6241     1  0.0000000  0.6508444  3
   6237   6235   6238   6239     1  0.0000000  0.6508444  3
   6237   6235   6238   6240     1  0.0000000  0.6508444  3
   6239   6238   6241   6244     1  0.0000000  0.6508444  3
   6239   6238   6241   6242     1  0.0000000  0.6508444  3
   6239   6238   6241   6243     1  0.0000000  0.6508444  3
   6239   6238   6235   6263     1  0.0000000  1.0460000  1
   6239   6238   6235   6263     1  0.0000000  0.0000000  3
   6240   6238   6241   6244     1  0.0000000  0.6508444  3
   6240   6238   6241   6242     1  0.0000000  0.6508444  3
   6240   6238   6241   6243     1  0.0000000  0.6508444  3
   6240   6238   6235   6263     1  0.0000000  1.0460000  1
   6240   6238   6235   6263     1  0.0000000  0.0000000  3
   6241   6244   6245   6246     1  0.0000000  1.2552000  3
   6241   6244   6245   6247     1  0.0000000  1.2552000  3
   6241   6244   6254   6255     1  0.0000000  1.2552000  3
   6241   6244   6254   6256     1  0.0000000  1.2552000  3
   6242   6241   6244   6245     1  0.0000000  1.2552000  3
   6242   6241   6244   6254     1  0.0000000  1.2552000  3
   6243   6241   6244   6245     1  0.0000000  1.2552000  3
   6243   6241   6244   6254     1  0.0000000  1.2552000  3
   6244   6245   6248   6249     1  0.0000000  0.6508444  3
   6244   6245   6248   6250     1  0.0000000  0.6508444  3
   6244   6254   6257   6258     1  0.0000000  0.6508444  3
   6244   6254   6257   6259     1  0.0000000  0.6508444  3
   6245   6244   6254   6255     1  0.0000000  1.2552000  3
   6245   6244   6254   6256     1  0.0000000  1.2552000  3
   6246   6245   6248   6251     1  0.0000000  0.6508444  3
   6246   6245   6248   6249     1  0.0000000  0.6508444  3
   6246   6245   6248   6250     1  0.0000000  0.6508444  3
   6246   6245   6244   6254     1  0.0000000  1.2552000  3
   6247   6245   6248   6251     1  0.0000000  0.6508444  3
   6247   6245   6248   6249     1  0.0000000  0.6508444  3
   6247   6245   6248   6250     1  0.0000000  0.6508444  3
   6247   6245   6244   6254     1  0.0000000  1.2552000  3
   6249   6248   6251   6252     1  0.0000000  3.3472000  1
   6249   6248   6251   6252     1  0.0000000  0.0000000  2
   6249   6248   6251   6252     1  180.0000771  0.3347200  3
   6249   6248   6251   6253     1  0.0000000  3.3472000  1
   6249   6248   6251   6253     1  0.0000000  0.0000000  2
   6249   6248   6251   6253     1  180.0000771  0.3347200  3
   6250   6248   6251   6252     1  0.0000000  3.3472000  1
   6250   6248   6251   6252     1  0.0000000  0.0000000  2
   6250   6248   6251   6252     1  180.0000771  0.3347200  3
   6250   6248   6251   6253     1  0.0000000  3.3472000  1
   6250   6248   6251   6253     1  0.0000000  0.0000000  2
   6250   6248   6251   6253     1  180.0000771  0.3347200  3
   6255   6254   6257   6260     1  0.0000000  0.6508444  3
   6255   6254   6257   6258     1  0.0000000  0.6508444  3
   6255   6254   6257   6259     1  0.0000000  0.6508444  3
   6256   6254   6257   6260     1  0.0000000  0.6508444  3
   6256   6254   6257   6258     1  0.0000000  0.6508444  3
   6256   6254   6257   6259     1  0.0000000  0.6508444  3
   6258   6257   6260   6261     1  0.0000000  3.3472000  1
   6258   6257   6260   6261     1  0.0000000  0.0000000  2
   6258   6257   6260   6261     1  180.0000771  0.3347200  3
   6258   6257   6260   6262     1  0.0000000  3.3472000  1
   6258   6257   6260   6262     1  0.0000000  0.0000000  2
   6258   6257   6260   6262     1  180.0000771  0.3347200  3
   6259   6257   6260   6261     1  0.0000000  3.3472000  1
   6259   6257   6260   6261     1  0.0000000  0.0000000  2
   6259   6257   6260   6261     1  180.0000771  0.3347200  3
   6259   6257   6260   6262     1  0.0000000  3.3472000  1
   6259   6257   6260   6262     1  0.0000000  0.0000000  2
   6259   6257   6260   6262     1  180.0000771  0.3347200  3
   6264   6267   6270   6271     1  0.0000000  0.6508444  3
   6264   6267   6270   6272     1  0.0000000  0.6508444  3
   6265   6264   6267   6270     1  0.0000000  0.6508444  3
   6265   6264   6267   6268     1  0.0000000  0.6508444  3
   6265   6264   6267   6269     1  0.0000000  0.6508444  3
   6266   6264   6267   6270     1  0.0000000  0.6508444  3
   6266   6264   6267   6268     1  0.0000000  0.6508444  3
   6266   6264   6267   6269     1  0.0000000  0.6508444  3
   6268   6267   6264   6292     1  0.0000000  1.0460000  1
   6268   6267   6264   6292     1  0.0000000  0.0000000  3
   6268   6267   6270   6273     1  0.0000000  0.6508444  3
   6268   6267   6270   6271     1  0.0000000  0.6508444  3
   6268   6267   6270   6272     1  0.0000000  0.6508444  3
   6269   6267   6264   6292     1  0.0000000  1.0460000  1
   6269   6267   6264   6292     1  0.0000000  0.0000000  3
   6269   6267   6270   6273     1  0.0000000  0.6508444  3
   6269   6267   6270   6271     1  0.0000000  0.6508444  3
   6269   6267   6270   6272     1  0.0000000  0.6508444  3
   6270   6273   6274   6275     1  0.0000000  1.2552000  3
   6270   6273   6274   6276     1  0.0000000  1.2552000  3
   6270   6273   6283   6284     1  0.0000000  1.2552000  3
   6270   6273   6283   6285     1  0.0000000  1.2552000  3
   6271   6270   6273   6274     1  0.0000000  1.2552000  3
   6271   6270   6273   6283     1  0.0000000  1.2552000  3
   6272   6270   6273   6274     1  0.0000000  1.2552000  3
   6272   6270   6273   6283     1  0.0000000  1.2552000  3
   6273   6274   6277   6278     1  0.0000000  0.6508444  3
   6273   6274   6277   6279     1  0.0000000  0.6508444  3
   6273   6283   6286   6287     1  0.0000000  0.6508444  3
   6273   6283   6286   6288     1  0.0000000  0.6508444  3
   6274   6273   6283   6284     1  0.0000000  1.2552000  3
   6274   6273   6283   6285     1  0.0000000  1.2552000  3
   6275   6274   6273   6283     1  0.0000000  1.2552000  3
   6275   6274   6277   6280     1  0.0000000  0.6508444  3
   6275   6274   6277   6278     1  0.0000000  0.6508444  3
   6275   6274   6277   6279     1  0.0000000  0.6508444  3
   6276   6274   6273   6283     1  0.0000000  1.2552000  3
   6276   6274   6277   6280     1  0.0000000  0.6508444  3
   6276   6274   6277   6278     1  0.0000000  0.6508444  3
   6276   6274   6277   6279     1  0.0000000  0.6508444  3
   6278   6277   6280   6281     1  0.0000000  3.3472000  1
   6278   6277   6280   6281     1  0.0000000  0.0000000  2
   6278   6277   6280   6281     1  180.0000771  0.3347200  3
   6278   6277   6280   6282     1  0.0000000  3.3472000  1
   6278   6277   6280   6282     1  0.0000000  0.0000000  2
   6278   6277   6280   6282     1  180.0000771  0.3347200  3
   6279   6277   6280   6281     1  0.0000000  3.3472000  1
   6279   6277   6280   6281     1  0.0000000  0.0000000  2
   6279   6277   6280   6281     1  180.0000771  0.3347200  3
   6279   6277   6280   6282     1  0.0000000  3.3472000  1
   6279   6277   6280   6282     1  0.0000000  0.0000000  2
   6279   6277   6280   6282     1  180.0000771  0.3347200  3
   6284   6283   6286   6289     1  0.0000000  0.6508444  3
   6284   6283   6286   6287     1  0.0000000  0.6508444  3
   6284   6283   6286   6288     1  0.0000000  0.6508444  3
   6285   6283   6286   6289     1  0.0000000  0.6508444  3
   6285   6283   6286   6287     1  0.0000000  0.6508444  3
   6285   6283   6286   6288     1  0.0000000  0.6508444  3
   6287   6286   6289   6290     1  0.0000000  3.3472000  1
   6287   6286   6289   6290     1  0.0000000  0.0000000  2
   6287   6286   6289   6290     1  180.0000771  0.3347200  3
   6287   6286   6289   6291     1  0.0000000  3.3472000  1
   6287   6286   6289   6291     1  0.0000000  0.0000000  2
   6287   6286   6289   6291     1  180.0000771  0.3347200  3
   6288   6286   6289   6290     1  0.0000000  3.3472000  1
   6288   6286   6289   6290     1  0.0000000  0.0000000  2
   6288   6286   6289   6290     1  180.0000771  0.3347200  3
   6288   6286   6289   6291     1  0.0000000  3.3472000  1
   6288   6286   6289   6291     1  0.0000000  0.0000000  2
   6288   6286   6289   6291     1  180.0000771  0.3347200  3
   6293   6296   6299   6300     1  0.0000000  0.6508444  3
   6293   6296   6299   6301     1  0.0000000  0.6508444  3
   6294   6293   6296   6299     1  0.0000000  0.6508444  3
   6294   6293   6296   6297     1  0.0000000  0.6508444  3
   6294   6293   6296   6298     1  0.0000000  0.6508444  3
   6295   6293   6296   6299     1  0.0000000  0.6508444  3
   6295   6293   6296   6297     1  0.0000000  0.6508444  3
   6295   6293   6296   6298     1  0.0000000  0.6508444  3
   6297   6296   6299   6302     1  0.0000000  0.6508444  3
   6297   6296   6299   6300     1  0.0000000  0.6508444  3
   6297   6296   6299   6301     1  0.0000000  0.6508444  3
   6297   6296   6293   6321     1  0.0000000  1.0460000  1
   6297   6296   6293   6321     1  0.0000000  0.0000000  3
   6298   6296   6299   6302     1  0.0000000  0.6508444  3
   6298   6296   6299   6300     1  0.0000000  0.6508444  3
   6298   6296   6299   6301     1  0.0000000  0.6508444  3
   6298   6296   6293   6321     1  0.0000000  1.0460000  1
   6298   6296   6293   6321     1  0.0000000  0.0000000  3
   6299   6302   6303   6304     1  0.0000000  1.2552000  3
   6299   6302   6303   6305     1  0.0000000  1.2552000  3
   6299   6302   6312   6313     1  0.0000000  1.2552000  3
   6299   6302   6312   6314     1  0.0000000  1.2552000  3
   6300   6299   6302   6303     1  0.0000000  1.2552000  3
   6300   6299   6302   6312     1  0.0000000  1.2552000  3
   6301   6299   6302   6303     1  0.0000000  1.2552000  3
   6301   6299   6302   6312     1  0.0000000  1.2552000  3
   6302   6303   6306   6307     1  0.0000000  0.6508444  3
   6302   6303   6306   6308     1  0.0000000  0.6508444  3
   6302   6312   6315   6316     1  0.0000000  0.6508444  3
   6302   6312   6315   6317     1  0.0000000  0.6508444  3
   6303   6302   6312   6313     1  0.0000000  1.2552000  3
   6303   6302   6312   6314     1  0.0000000  1.2552000  3
   6304   6303   6306   6309     1  0.0000000  0.6508444  3
   6304   6303   6306   6307     1  0.0000000  0.6508444  3
   6304   6303   6306   6308     1  0.0000000  0.6508444  3
   6304   6303   6302   6312     1  0.0000000  1.2552000  3
   6305   6303   6306   6309     1  0.0000000  0.6508444  3
   6305   6303   6306   6307     1  0.0000000  0.6508444  3
   6305   6303   6306   6308     1  0.0000000  0.6508444  3
   6305   6303   6302   6312     1  0.0000000  1.2552000  3
   6307   6306   6309   6310     1  0.0000000  3.3472000  1
   6307   6306   6309   6310     1  0.0000000  0.0000000  2
   6307   6306   6309   6310     1  180.0000771  0.3347200  3
   6307   6306   6309   6311     1  0.0000000  3.3472000  1
   6307   6306   6309   6311     1  0.0000000  0.0000000  2
   6307   6306   6309   6311     1  180.0000771  0.3347200  3
   6308   6306   6309   6310     1  0.0000000  3.3472000  1
   6308   6306   6309   6310     1  0.0000000  0.0000000  2
   6308   6306   6309   6310     1  180.0000771  0.3347200  3
   6308   6306   6309   6311     1  0.0000000  3.3472000  1
   6308   6306   6309   6311     1  0.0000000  0.0000000  2
   6308   6306   6309   6311     1  180.0000771  0.3347200  3
   6313   6312   6315   6318     1  0.0000000  0.6508444  3
   6313   6312   6315   6316     1  0.0000000  0.6508444  3
   6313   6312   6315   6317     1  0.0000000  0.6508444  3
   6314   6312   6315   6318     1  0.0000000  0.6508444  3
   6314   6312   6315   6316     1  0.0000000  0.6508444  3
   6314   6312   6315   6317     1  0.0000000  0.6508444  3
   6316   6315   6318   6319     1  0.0000000  3.3472000  1
   6316   6315   6318   6319     1  0.0000000  0.0000000  2
   6316   6315   6318   6319     1  180.0000771  0.3347200  3
   6316   6315   6318   6320     1  0.0000000  3.3472000  1
   6316   6315   6318   6320     1  0.0000000  0.0000000  2
   6316   6315   6318   6320     1  180.0000771  0.3347200  3
   6317   6315   6318   6319     1  0.0000000  3.3472000  1
   6317   6315   6318   6319     1  0.0000000  0.0000000  2
   6317   6315   6318   6319     1  180.0000771  0.3347200  3
   6317   6315   6318   6320     1  0.0000000  3.3472000  1
   6317   6315   6318   6320     1  0.0000000  0.0000000  2
   6317   6315   6318   6320     1  180.0000771  0.3347200  3
   6322   6325   6328   6329     1  0.0000000  0.6508444  3
   6322   6325   6328   6330     1  0.0000000  0.6508444  3
   6323   6322   6325   6328     1  0.0000000  0.6508444  3
   6323   6322   6325   6326     1  0.0000000  0.6508444  3
   6323   6322   6325   6327     1  0.0000000  0.6508444  3
   6324   6322   6325   6328     1  0.0000000  0.6508444  3
   6324   6322   6325   6326     1  0.0000000  0.6508444  3
   6324   6322   6325   6327     1  0.0000000  0.6508444  3
   6326   6325   6322   6350     1  0.0000000  1.0460000  1
   6326   6325   6322   6350     1  0.0000000  0.0000000  3
   6326   6325   6328   6331     1  0.0000000  0.6508444  3
   6326   6325   6328   6329     1  0.0000000  0.6508444  3
   6326   6325   6328   6330     1  0.0000000  0.6508444  3
   6327   6325   6322   6350     1  0.0000000  1.0460000  1
   6327   6325   6322   6350     1  0.0000000  0.0000000  3
   6327   6325   6328   6331     1  0.0000000  0.6508444  3
   6327   6325   6328   6329     1  0.0000000  0.6508444  3
   6327   6325   6328   6330     1  0.0000000  0.6508444  3
   6328   6331   6332   6333     1  0.0000000  1.2552000  3
   6328   6331   6332   6334     1  0.0000000  1.2552000  3
   6328   6331   6341   6342     1  0.0000000  1.2552000  3
   6328   6331   6341   6343     1  0.0000000  1.2552000  3
   6329   6328   6331   6332     1  0.0000000  1.2552000  3
   6329   6328   6331   6341     1  0.0000000  1.2552000  3
   6330   6328   6331   6332     1  0.0000000  1.2552000  3
   6330   6328   6331   6341     1  0.0000000  1.2552000  3
   6331   6332   6335   6336     1  0.0000000  0.6508444  3
   6331   6332   6335   6337     1  0.0000000  0.6508444  3
   6331   6341   6344   6345     1  0.0000000  0.6508444  3
   6331   6341   6344   6346     1  0.0000000  0.6508444  3
   6332   6331   6341   6342     1  0.0000000  1.2552000  3
   6332   6331   6341   6343     1  0.0000000  1.2552000  3
   6333   6332   6331   6341     1  0.0000000  1.2552000  3
   6333   6332   6335   6338     1  0.0000000  0.6508444  3
   6333   6332   6335   6336     1  0.0000000  0.6508444  3
   6333   6332   6335   6337     1  0.0000000  0.6508444  3
   6334   6332   6331   6341     1  0.0000000  1.2552000  3
   6334   6332   6335   6338     1  0.0000000  0.6508444  3
   6334   6332   6335   6336     1  0.0000000  0.6508444  3
   6334   6332   6335   6337     1  0.0000000  0.6508444  3
   6336   6335   6338   6339     1  0.0000000  3.3472000  1
   6336   6335   6338   6339     1  0.0000000  0.0000000  2
   6336   6335   6338   6339     1  180.0000771  0.3347200  3
   6336   6335   6338   6340     1  0.0000000  3.3472000  1
   6336   6335   6338   6340     1  0.0000000  0.0000000  2
   6336   6335   6338   6340     1  180.0000771  0.3347200  3
   6337   6335   6338   6339     1  0.0000000  3.3472000  1
   6337   6335   6338   6339     1  0.0000000  0.0000000  2
   6337   6335   6338   6339     1  180.0000771  0.3347200  3
   6337   6335   6338   6340     1  0.0000000  3.3472000  1
   6337   6335   6338   6340     1  0.0000000  0.0000000  2
   6337   6335   6338   6340     1  180.0000771  0.3347200  3
   6342   6341   6344   6347     1  0.0000000  0.6508444  3
   6342   6341   6344   6345     1  0.0000000  0.6508444  3
   6342   6341   6344   6346     1  0.0000000  0.6508444  3
   6343   6341   6344   6347     1  0.0000000  0.6508444  3
   6343   6341   6344   6345     1  0.0000000  0.6508444  3
   6343   6341   6344   6346     1  0.0000000  0.6508444  3
   6345   6344   6347   6348     1  0.0000000  3.3472000  1
   6345   6344   6347   6348     1  0.0000000  0.0000000  2
   6345   6344   6347   6348     1  180.0000771  0.3347200  3
   6345   6344   6347   6349     1  0.0000000  3.3472000  1
   6345   6344   6347   6349     1  0.0000000  0.0000000  2
   6345   6344   6347   6349     1  180.0000771  0.3347200  3
   6346   6344   6347   6348     1  0.0000000  3.3472000  1
   6346   6344   6347   6348     1  0.0000000  0.0000000  2
   6346   6344   6347   6348     1  180.0000771  0.3347200  3
   6346   6344   6347   6349     1  0.0000000  3.3472000  1
   6346   6344   6347   6349     1  0.0000000  0.0000000  2
   6346   6344   6347   6349     1  180.0000771  0.3347200  3
   6351   6354   6357   6358     1  0.0000000  0.6508444  3
   6351   6354   6357   6359     1  0.0000000  0.6508444  3
   6352   6351   6354   6357     1  0.0000000  0.6508444  3
   6352   6351   6354   6355     1  0.0000000  0.6508444  3
   6352   6351   6354   6356     1  0.0000000  0.6508444  3
   6353   6351   6354   6357     1  0.0000000  0.6508444  3
   6353   6351   6354   6355     1  0.0000000  0.6508444  3
   6353   6351   6354   6356     1  0.0000000  0.6508444  3
   6355   6354   6357   6360     1  0.0000000  0.6508444  3
   6355   6354   6357   6358     1  0.0000000  0.6508444  3
   6355   6354   6357   6359     1  0.0000000  0.6508444  3
   6355   6354   6351   6379     1  0.0000000  1.0460000  1
   6355   6354   6351   6379     1  0.0000000  0.0000000  3
   6356   6354   6357   6360     1  0.0000000  0.6508444  3
   6356   6354   6357   6358     1  0.0000000  0.6508444  3
   6356   6354   6357   6359     1  0.0000000  0.6508444  3
   6356   6354   6351   6379     1  0.0000000  1.0460000  1
   6356   6354   6351   6379     1  0.0000000  0.0000000  3
   6357   6360   6361   6362     1  0.0000000  1.2552000  3
   6357   6360   6361   6363     1  0.0000000  1.2552000  3
   6357   6360   6370   6371     1  0.0000000  1.2552000  3
   6357   6360   6370   6372     1  0.0000000  1.2552000  3
   6358   6357   6360   6361     1  0.0000000  1.2552000  3
   6358   6357   6360   6370     1  0.0000000  1.2552000  3
   6359   6357   6360   6361     1  0.0000000  1.2552000  3
   6359   6357   6360   6370     1  0.0000000  1.2552000  3
   6360   6361   6364   6365     1  0.0000000  0.6508444  3
   6360   6361   6364   6366     1  0.0000000  0.6508444  3
   6360   6370   6373   6374     1  0.0000000  0.6508444  3
   6360   6370   6373   6375     1  0.0000000  0.6508444  3
   6361   6360   6370   6371     1  0.0000000  1.2552000  3
   6361   6360   6370   6372     1  0.0000000  1.2552000  3
   6362   6361   6364   6367     1  0.0000000  0.6508444  3
   6362   6361   6364   6365     1  0.0000000  0.6508444  3
   6362   6361   6364   6366     1  0.0000000  0.6508444  3
   6362   6361   6360   6370     1  0.0000000  1.2552000  3
   6363   6361   6364   6367     1  0.0000000  0.6508444  3
   6363   6361   6364   6365     1  0.0000000  0.6508444  3
   6363   6361   6364   6366     1  0.0000000  0.6508444  3
   6363   6361   6360   6370     1  0.0000000  1.2552000  3
   6365   6364   6367   6368     1  0.0000000  3.3472000  1
   6365   6364   6367   6368     1  0.0000000  0.0000000  2
   6365   6364   6367   6368     1  180.0000771  0.3347200  3
   6365   6364   6367   6369     1  0.0000000  3.3472000  1
   6365   6364   6367   6369     1  0.0000000  0.0000000  2
   6365   6364   6367   6369     1  180.0000771  0.3347200  3
   6366   6364   6367   6368     1  0.0000000  3.3472000  1
   6366   6364   6367   6368     1  0.0000000  0.0000000  2
   6366   6364   6367   6368     1  180.0000771  0.3347200  3
   6366   6364   6367   6369     1  0.0000000  3.3472000  1
   6366   6364   6367   6369     1  0.0000000  0.0000000  2
   6366   6364   6367   6369     1  180.0000771  0.3347200  3
   6371   6370   6373   6376     1  0.0000000  0.6508444  3
   6371   6370   6373   6374     1  0.0000000  0.6508444  3
   6371   6370   6373   6375     1  0.0000000  0.6508444  3
   6372   6370   6373   6376     1  0.0000000  0.6508444  3
   6372   6370   6373   6374     1  0.0000000  0.6508444  3
   6372   6370   6373   6375     1  0.0000000  0.6508444  3
   6374   6373   6376   6377     1  0.0000000  3.3472000  1
   6374   6373   6376   6377     1  0.0000000  0.0000000  2
   6374   6373   6376   6377     1  180.0000771  0.3347200  3
   6374   6373   6376   6378     1  0.0000000  3.3472000  1
   6374   6373   6376   6378     1  0.0000000  0.0000000  2
   6374   6373   6376   6378     1  180.0000771  0.3347200  3
   6375   6373   6376   6377     1  0.0000000  3.3472000  1
   6375   6373   6376   6377     1  0.0000000  0.0000000  2
   6375   6373   6376   6377     1  180.0000771  0.3347200  3
   6375   6373   6376   6378     1  0.0000000  3.3472000  1
   6375   6373   6376   6378     1  0.0000000  0.0000000  2
   6375   6373   6376   6378     1  180.0000771  0.3347200  3
   6380   6383   6386   6387     1  0.0000000  0.6508444  3
   6380   6383   6386   6388     1  0.0000000  0.6508444  3
   6381   6380   6383   6386     1  0.0000000  0.6508444  3
   6381   6380   6383   6384     1  0.0000000  0.6508444  3
   6381   6380   6383   6385     1  0.0000000  0.6508444  3
   6382   6380   6383   6386     1  0.0000000  0.6508444  3
   6382   6380   6383   6384     1  0.0000000  0.6508444  3
   6382   6380   6383   6385     1  0.0000000  0.6508444  3
   6384   6383   6380   6408     1  0.0000000  1.0460000  1
   6384   6383   6380   6408     1  0.0000000  0.0000000  3
   6384   6383   6386   6389     1  0.0000000  0.6508444  3
   6384   6383   6386   6387     1  0.0000000  0.6508444  3
   6384   6383   6386   6388     1  0.0000000  0.6508444  3
   6385   6383   6380   6408     1  0.0000000  1.0460000  1
   6385   6383   6380   6408     1  0.0000000  0.0000000  3
   6385   6383   6386   6389     1  0.0000000  0.6508444  3
   6385   6383   6386   6387     1  0.0000000  0.6508444  3
   6385   6383   6386   6388     1  0.0000000  0.6508444  3
   6386   6389   6390   6391     1  0.0000000  1.2552000  3
   6386   6389   6390   6392     1  0.0000000  1.2552000  3
   6386   6389   6399   6400     1  0.0000000  1.2552000  3
   6386   6389   6399   6401     1  0.0000000  1.2552000  3
   6387   6386   6389   6390     1  0.0000000  1.2552000  3
   6387   6386   6389   6399     1  0.0000000  1.2552000  3
   6388   6386   6389   6390     1  0.0000000  1.2552000  3
   6388   6386   6389   6399     1  0.0000000  1.2552000  3
   6389   6390   6393   6394     1  0.0000000  0.6508444  3
   6389   6390   6393   6395     1  0.0000000  0.6508444  3
   6389   6399   6402   6403     1  0.0000000  0.6508444  3
   6389   6399   6402   6404     1  0.0000000  0.6508444  3
   6390   6389   6399   6400     1  0.0000000  1.2552000  3
   6390   6389   6399   6401     1  0.0000000  1.2552000  3
   6391   6390   6389   6399     1  0.0000000  1.2552000  3
   6391   6390   6393   6396     1  0.0000000  0.6508444  3
   6391   6390   6393   6394     1  0.0000000  0.6508444  3
   6391   6390   6393   6395     1  0.0000000  0.6508444  3
   6392   6390   6389   6399     1  0.0000000  1.2552000  3
   6392   6390   6393   6396     1  0.0000000  0.6508444  3
   6392   6390   6393   6394     1  0.0000000  0.6508444  3
   6392   6390   6393   6395     1  0.0000000  0.6508444  3
   6394   6393   6396   6397     1  0.0000000  3.3472000  1
   6394   6393   6396   6397     1  0.0000000  0.0000000  2
   6394   6393   6396   6397     1  180.0000771  0.3347200  3
   6394   6393   6396   6398     1  0.0000000  3.3472000  1
   6394   6393   6396   6398     1  0.0000000  0.0000000  2
   6394   6393   6396   6398     1  180.0000771  0.3347200  3
   6395   6393   6396   6397     1  0.0000000  3.3472000  1
   6395   6393   6396   6397     1  0.0000000  0.0000000  2
   6395   6393   6396   6397     1  180.0000771  0.3347200  3
   6395   6393   6396   6398     1  0.0000000  3.3472000  1
   6395   6393   6396   6398     1  0.0000000  0.0000000  2
   6395   6393   6396   6398     1  180.0000771  0.3347200  3
   6400   6399   6402   6405     1  0.0000000  0.6508444  3
   6400   6399   6402   6403     1  0.0000000  0.6508444  3
   6400   6399   6402   6404     1  0.0000000  0.6508444  3
   6401   6399   6402   6405     1  0.0000000  0.6508444  3
   6401   6399   6402   6403     1  0.0000000  0.6508444  3
   6401   6399   6402   6404     1  0.0000000  0.6508444  3
   6403   6402   6405   6406     1  0.0000000  3.3472000  1
   6403   6402   6405   6406     1  0.0000000  0.0000000  2
   6403   6402   6405   6406     1  180.0000771  0.3347200  3
   6403   6402   6405   6407     1  0.0000000  3.3472000  1
   6403   6402   6405   6407     1  0.0000000  0.0000000  2
   6403   6402   6405   6407     1  180.0000771  0.3347200  3
   6404   6402   6405   6406     1  0.0000000  3.3472000  1
   6404   6402   6405   6406     1  0.0000000  0.0000000  2
   6404   6402   6405   6406     1  180.0000771  0.3347200  3
   6404   6402   6405   6407     1  0.0000000  3.3472000  1
   6404   6402   6405   6407     1  0.0000000  0.0000000  2
   6404   6402   6405   6407     1  180.0000771  0.3347200  3
   6409   6412   6415   6416     1  0.0000000  0.6508444  3
   6409   6412   6415   6417     1  0.0000000  0.6508444  3
   6410   6409   6412   6415     1  0.0000000  0.6508444  3
   6410   6409   6412   6413     1  0.0000000  0.6508444  3
   6410   6409   6412   6414     1  0.0000000  0.6508444  3
   6411   6409   6412   6415     1  0.0000000  0.6508444  3
   6411   6409   6412   6413     1  0.0000000  0.6508444  3
   6411   6409   6412   6414     1  0.0000000  0.6508444  3
   6413   6412   6415   6418     1  0.0000000  0.6508444  3
   6413   6412   6415   6416     1  0.0000000  0.6508444  3
   6413   6412   6415   6417     1  0.0000000  0.6508444  3
   6413   6412   6409   6437     1  0.0000000  1.0460000  1
   6413   6412   6409   6437     1  0.0000000  0.0000000  3
   6414   6412   6415   6418     1  0.0000000  0.6508444  3
   6414   6412   6415   6416     1  0.0000000  0.6508444  3
   6414   6412   6415   6417     1  0.0000000  0.6508444  3
   6414   6412   6409   6437     1  0.0000000  1.0460000  1
   6414   6412   6409   6437     1  0.0000000  0.0000000  3
   6415   6418   6419   6420     1  0.0000000  1.2552000  3
   6415   6418   6419   6421     1  0.0000000  1.2552000  3
   6415   6418   6428   6429     1  0.0000000  1.2552000  3
   6415   6418   6428   6430     1  0.0000000  1.2552000  3
   6416   6415   6418   6419     1  0.0000000  1.2552000  3
   6416   6415   6418   6428     1  0.0000000  1.2552000  3
   6417   6415   6418   6419     1  0.0000000  1.2552000  3
   6417   6415   6418   6428     1  0.0000000  1.2552000  3
   6418   6419   6422   6423     1  0.0000000  0.6508444  3
   6418   6419   6422   6424     1  0.0000000  0.6508444  3
   6418   6428   6431   6432     1  0.0000000  0.6508444  3
   6418   6428   6431   6433     1  0.0000000  0.6508444  3
   6419   6418   6428   6429     1  0.0000000  1.2552000  3
   6419   6418   6428   6430     1  0.0000000  1.2552000  3
   6420   6419   6422   6425     1  0.0000000  0.6508444  3
   6420   6419   6422   6423     1  0.0000000  0.6508444  3
   6420   6419   6422   6424     1  0.0000000  0.6508444  3
   6420   6419   6418   6428     1  0.0000000  1.2552000  3
   6421   6419   6422   6425     1  0.0000000  0.6508444  3
   6421   6419   6422   6423     1  0.0000000  0.6508444  3
   6421   6419   6422   6424     1  0.0000000  0.6508444  3
   6421   6419   6418   6428     1  0.0000000  1.2552000  3
   6423   6422   6425   6426     1  0.0000000  3.3472000  1
   6423   6422   6425   6426     1  0.0000000  0.0000000  2
   6423   6422   6425   6426     1  180.0000771  0.3347200  3
   6423   6422   6425   6427     1  0.0000000  3.3472000  1
   6423   6422   6425   6427     1  0.0000000  0.0000000  2
   6423   6422   6425   6427     1  180.0000771  0.3347200  3
   6424   6422   6425   6426     1  0.0000000  3.3472000  1
   6424   6422   6425   6426     1  0.0000000  0.0000000  2
   6424   6422   6425   6426     1  180.0000771  0.3347200  3
   6424   6422   6425   6427     1  0.0000000  3.3472000  1
   6424   6422   6425   6427     1  0.0000000  0.0000000  2
   6424   6422   6425   6427     1  180.0000771  0.3347200  3
   6429   6428   6431   6434     1  0.0000000  0.6508444  3
   6429   6428   6431   6432     1  0.0000000  0.6508444  3
   6429   6428   6431   6433     1  0.0000000  0.6508444  3
   6430   6428   6431   6434     1  0.0000000  0.6508444  3
   6430   6428   6431   6432     1  0.0000000  0.6508444  3
   6430   6428   6431   6433     1  0.0000000  0.6508444  3
   6432   6431   6434   6435     1  0.0000000  3.3472000  1
   6432   6431   6434   6435     1  0.0000000  0.0000000  2
   6432   6431   6434   6435     1  180.0000771  0.3347200  3
   6432   6431   6434   6436     1  0.0000000  3.3472000  1
   6432   6431   6434   6436     1  0.0000000  0.0000000  2
   6432   6431   6434   6436     1  180.0000771  0.3347200  3
   6433   6431   6434   6435     1  0.0000000  3.3472000  1
   6433   6431   6434   6435     1  0.0000000  0.0000000  2
   6433   6431   6434   6435     1  180.0000771  0.3347200  3
   6433   6431   6434   6436     1  0.0000000  3.3472000  1
   6433   6431   6434   6436     1  0.0000000  0.0000000  2
   6433   6431   6434   6436     1  180.0000771  0.3347200  3
   6438   6441   6444   6445     1  0.0000000  0.6508444  3
   6438   6441   6444   6446     1  0.0000000  0.6508444  3
   6439   6438   6441   6444     1  0.0000000  0.6508444  3
   6439   6438   6441   6442     1  0.0000000  0.6508444  3
   6439   6438   6441   6443     1  0.0000000  0.6508444  3
   6440   6438   6441   6444     1  0.0000000  0.6508444  3
   6440   6438   6441   6442     1  0.0000000  0.6508444  3
   6440   6438   6441   6443     1  0.0000000  0.6508444  3
   6442   6441   6438   6466     1  0.0000000  1.0460000  1
   6442   6441   6438   6466     1  0.0000000  0.0000000  3
   6442   6441   6444   6447     1  0.0000000  0.6508444  3
   6442   6441   6444   6445     1  0.0000000  0.6508444  3
   6442   6441   6444   6446     1  0.0000000  0.6508444  3
   6443   6441   6438   6466     1  0.0000000  1.0460000  1
   6443   6441   6438   6466     1  0.0000000  0.0000000  3
   6443   6441   6444   6447     1  0.0000000  0.6508444  3
   6443   6441   6444   6445     1  0.0000000  0.6508444  3
   6443   6441   6444   6446     1  0.0000000  0.6508444  3
   6444   6447   6448   6449     1  0.0000000  1.2552000  3
   6444   6447   6448   6450     1  0.0000000  1.2552000  3
   6444   6447   6457   6458     1  0.0000000  1.2552000  3
   6444   6447   6457   6459     1  0.0000000  1.2552000  3
   6445   6444   6447   6448     1  0.0000000  1.2552000  3
   6445   6444   6447   6457     1  0.0000000  1.2552000  3
   6446   6444   6447   6448     1  0.0000000  1.2552000  3
   6446   6444   6447   6457     1  0.0000000  1.2552000  3
   6447   6448   6451   6452     1  0.0000000  0.6508444  3
   6447   6448   6451   6453     1  0.0000000  0.6508444  3
   6447   6457   6460   6461     1  0.0000000  0.6508444  3
   6447   6457   6460   6462     1  0.0000000  0.6508444  3
   6448   6447   6457   6458     1  0.0000000  1.2552000  3
   6448   6447   6457   6459     1  0.0000000  1.2552000  3
   6449   6448   6447   6457     1  0.0000000  1.2552000  3
   6449   6448   6451   6454     1  0.0000000  0.6508444  3
   6449   6448   6451   6452     1  0.0000000  0.6508444  3
   6449   6448   6451   6453     1  0.0000000  0.6508444  3
   6450   6448   6447   6457     1  0.0000000  1.2552000  3
   6450   6448   6451   6454     1  0.0000000  0.6508444  3
   6450   6448   6451   6452     1  0.0000000  0.6508444  3
   6450   6448   6451   6453     1  0.0000000  0.6508444  3
   6452   6451   6454   6455     1  0.0000000  3.3472000  1
   6452   6451   6454   6455     1  0.0000000  0.0000000  2
   6452   6451   6454   6455     1  180.0000771  0.3347200  3
   6452   6451   6454   6456     1  0.0000000  3.3472000  1
   6452   6451   6454   6456     1  0.0000000  0.0000000  2
   6452   6451   6454   6456     1  180.0000771  0.3347200  3
   6453   6451   6454   6455     1  0.0000000  3.3472000  1
   6453   6451   6454   6455     1  0.0000000  0.0000000  2
   6453   6451   6454   6455     1  180.0000771  0.3347200  3
   6453   6451   6454   6456     1  0.0000000  3.3472000  1
   6453   6451   6454   6456     1  0.0000000  0.0000000  2
   6453   6451   6454   6456     1  180.0000771  0.3347200  3
   6458   6457   6460   6463     1  0.0000000  0.6508444  3
   6458   6457   6460   6461     1  0.0000000  0.6508444  3
   6458   6457   6460   6462     1  0.0000000  0.6508444  3
   6459   6457   6460   6463     1  0.0000000  0.6508444  3
   6459   6457   6460   6461     1  0.0000000  0.6508444  3
   6459   6457   6460   6462     1  0.0000000  0.6508444  3
   6461   6460   6463   6464     1  0.0000000  3.3472000  1
   6461   6460   6463   6464     1  0.0000000  0.0000000  2
   6461   6460   6463   6464     1  180.0000771  0.3347200  3
   6461   6460   6463   6465     1  0.0000000  3.3472000  1
   6461   6460   6463   6465     1  0.0000000  0.0000000  2
   6461   6460   6463   6465     1  180.0000771  0.3347200  3
   6462   6460   6463   6464     1  0.0000000  3.3472000  1
   6462   6460   6463   6464     1  0.0000000  0.0000000  2
   6462   6460   6463   6464     1  180.0000771  0.3347200  3
   6462   6460   6463   6465     1  0.0000000  3.3472000  1
   6462   6460   6463   6465     1  0.0000000  0.0000000  2
   6462   6460   6463   6465     1  180.0000771  0.3347200  3
   6467   6470   6473   6474     1  0.0000000  0.6508444  3
   6467   6470   6473   6475     1  0.0000000  0.6508444  3
   6468   6467   6470   6473     1  0.0000000  0.6508444  3
   6468   6467   6470   6471     1  0.0000000  0.6508444  3
   6468   6467   6470   6472     1  0.0000000  0.6508444  3
   6469   6467   6470   6473     1  0.0000000  0.6508444  3
   6469   6467   6470   6471     1  0.0000000  0.6508444  3
   6469   6467   6470   6472     1  0.0000000  0.6508444  3
   6471   6470   6473   6476     1  0.0000000  0.6508444  3
   6471   6470   6473   6474     1  0.0000000  0.6508444  3
   6471   6470   6473   6475     1  0.0000000  0.6508444  3
   6471   6470   6467   6495     1  0.0000000  1.0460000  1
   6471   6470   6467   6495     1  0.0000000  0.0000000  3
   6472   6470   6473   6476     1  0.0000000  0.6508444  3
   6472   6470   6473   6474     1  0.0000000  0.6508444  3
   6472   6470   6473   6475     1  0.0000000  0.6508444  3
   6472   6470   6467   6495     1  0.0000000  1.0460000  1
   6472   6470   6467   6495     1  0.0000000  0.0000000  3
   6473   6476   6477   6478     1  0.0000000  1.2552000  3
   6473   6476   6477   6479     1  0.0000000  1.2552000  3
   6473   6476   6486   6487     1  0.0000000  1.2552000  3
   6473   6476   6486   6488     1  0.0000000  1.2552000  3
   6474   6473   6476   6477     1  0.0000000  1.2552000  3
   6474   6473   6476   6486     1  0.0000000  1.2552000  3
   6475   6473   6476   6477     1  0.0000000  1.2552000  3
   6475   6473   6476   6486     1  0.0000000  1.2552000  3
   6476   6477   6480   6481     1  0.0000000  0.6508444  3
   6476   6477   6480   6482     1  0.0000000  0.6508444  3
   6476   6486   6489   6490     1  0.0000000  0.6508444  3
   6476   6486   6489   6491     1  0.0000000  0.6508444  3
   6477   6476   6486   6487     1  0.0000000  1.2552000  3
   6477   6476   6486   6488     1  0.0000000  1.2552000  3
   6478   6477   6480   6483     1  0.0000000  0.6508444  3
   6478   6477   6480   6481     1  0.0000000  0.6508444  3
   6478   6477   6480   6482     1  0.0000000  0.6508444  3
   6478   6477   6476   6486     1  0.0000000  1.2552000  3
   6479   6477   6480   6483     1  0.0000000  0.6508444  3
   6479   6477   6480   6481     1  0.0000000  0.6508444  3
   6479   6477   6480   6482     1  0.0000000  0.6508444  3
   6479   6477   6476   6486     1  0.0000000  1.2552000  3
   6481   6480   6483   6484     1  0.0000000  3.3472000  1
   6481   6480   6483   6484     1  0.0000000  0.0000000  2
   6481   6480   6483   6484     1  180.0000771  0.3347200  3
   6481   6480   6483   6485     1  0.0000000  3.3472000  1
   6481   6480   6483   6485     1  0.0000000  0.0000000  2
   6481   6480   6483   6485     1  180.0000771  0.3347200  3
   6482   6480   6483   6484     1  0.0000000  3.3472000  1
   6482   6480   6483   6484     1  0.0000000  0.0000000  2
   6482   6480   6483   6484     1  180.0000771  0.3347200  3
   6482   6480   6483   6485     1  0.0000000  3.3472000  1
   6482   6480   6483   6485     1  0.0000000  0.0000000  2
   6482   6480   6483   6485     1  180.0000771  0.3347200  3
   6487   6486   6489   6492     1  0.0000000  0.6508444  3
   6487   6486   6489   6490     1  0.0000000  0.6508444  3
   6487   6486   6489   6491     1  0.0000000  0.6508444  3
   6488   6486   6489   6492     1  0.0000000  0.6508444  3
   6488   6486   6489   6490     1  0.0000000  0.6508444  3
   6488   6486   6489   6491     1  0.0000000  0.6508444  3
   6490   6489   6492   6493     1  0.0000000  3.3472000  1
   6490   6489   6492   6493     1  0.0000000  0.0000000  2
   6490   6489   6492   6493     1  180.0000771  0.3347200  3
   6490   6489   6492   6494     1  0.0000000  3.3472000  1
   6490   6489   6492   6494     1  0.0000000  0.0000000  2
   6490   6489   6492   6494     1  180.0000771  0.3347200  3
   6491   6489   6492   6493     1  0.0000000  3.3472000  1
   6491   6489   6492   6493     1  0.0000000  0.0000000  2
   6491   6489   6492   6493     1  180.0000771  0.3347200  3
   6491   6489   6492   6494     1  0.0000000  3.3472000  1
   6491   6489   6492   6494     1  0.0000000  0.0000000  2
   6491   6489   6492   6494     1  180.0000771  0.3347200  3
   6496   6499   6502   6503     1  0.0000000  0.6508444  3
   6496   6499   6502   6504     1  0.0000000  0.6508444  3
   6497   6496   6499   6502     1  0.0000000  0.6508444  3
   6497   6496   6499   6500     1  0.0000000  0.6508444  3
   6497   6496   6499   6501     1  0.0000000  0.6508444  3
   6498   6496   6499   6502     1  0.0000000  0.6508444  3
   6498   6496   6499   6500     1  0.0000000  0.6508444  3
   6498   6496   6499   6501     1  0.0000000  0.6508444  3
   6500   6499   6496   6524     1  0.0000000  1.0460000  1
   6500   6499   6496   6524     1  0.0000000  0.0000000  3
   6500   6499   6502   6505     1  0.0000000  0.6508444  3
   6500   6499   6502   6503     1  0.0000000  0.6508444  3
   6500   6499   6502   6504     1  0.0000000  0.6508444  3
   6501   6499   6496   6524     1  0.0000000  1.0460000  1
   6501   6499   6496   6524     1  0.0000000  0.0000000  3
   6501   6499   6502   6505     1  0.0000000  0.6508444  3
   6501   6499   6502   6503     1  0.0000000  0.6508444  3
   6501   6499   6502   6504     1  0.0000000  0.6508444  3
   6502   6505   6506   6507     1  0.0000000  1.2552000  3
   6502   6505   6506   6508     1  0.0000000  1.2552000  3
   6502   6505   6515   6516     1  0.0000000  1.2552000  3
   6502   6505   6515   6517     1  0.0000000  1.2552000  3
   6503   6502   6505   6506     1  0.0000000  1.2552000  3
   6503   6502   6505   6515     1  0.0000000  1.2552000  3
   6504   6502   6505   6506     1  0.0000000  1.2552000  3
   6504   6502   6505   6515     1  0.0000000  1.2552000  3
   6505   6506   6509   6510     1  0.0000000  0.6508444  3
   6505   6506   6509   6511     1  0.0000000  0.6508444  3
   6505   6515   6518   6519     1  0.0000000  0.6508444  3
   6505   6515   6518   6520     1  0.0000000  0.6508444  3
   6506   6505   6515   6516     1  0.0000000  1.2552000  3
   6506   6505   6515   6517     1  0.0000000  1.2552000  3
   6507   6506   6505   6515     1  0.0000000  1.2552000  3
   6507   6506   6509   6512     1  0.0000000  0.6508444  3
   6507   6506   6509   6510     1  0.0000000  0.6508444  3
   6507   6506   6509   6511     1  0.0000000  0.6508444  3
   6508   6506   6505   6515     1  0.0000000  1.2552000  3
   6508   6506   6509   6512     1  0.0000000  0.6508444  3
   6508   6506   6509   6510     1  0.0000000  0.6508444  3
   6508   6506   6509   6511     1  0.0000000  0.6508444  3
   6510   6509   6512   6513     1  0.0000000  3.3472000  1
   6510   6509   6512   6513     1  0.0000000  0.0000000  2
   6510   6509   6512   6513     1  180.0000771  0.3347200  3
   6510   6509   6512   6514     1  0.0000000  3.3472000  1
   6510   6509   6512   6514     1  0.0000000  0.0000000  2
   6510   6509   6512   6514     1  180.0000771  0.3347200  3
   6511   6509   6512   6513     1  0.0000000  3.3472000  1
   6511   6509   6512   6513     1  0.0000000  0.0000000  2
   6511   6509   6512   6513     1  180.0000771  0.3347200  3
   6511   6509   6512   6514     1  0.0000000  3.3472000  1
   6511   6509   6512   6514     1  0.0000000  0.0000000  2
   6511   6509   6512   6514     1  180.0000771  0.3347200  3
   6516   6515   6518   6521     1  0.0000000  0.6508444  3
   6516   6515   6518   6519     1  0.0000000  0.6508444  3
   6516   6515   6518   6520     1  0.0000000  0.6508444  3
   6517   6515   6518   6521     1  0.0000000  0.6508444  3
   6517   6515   6518   6519     1  0.0000000  0.6508444  3
   6517   6515   6518   6520     1  0.0000000  0.6508444  3
   6519   6518   6521   6522     1  0.0000000  3.3472000  1
   6519   6518   6521   6522     1  0.0000000  0.0000000  2
   6519   6518   6521   6522     1  180.0000771  0.3347200  3
   6519   6518   6521   6523     1  0.0000000  3.3472000  1
   6519   6518   6521   6523     1  0.0000000  0.0000000  2
   6519   6518   6521   6523     1  180.0000771  0.3347200  3
   6520   6518   6521   6522     1  0.0000000  3.3472000  1
   6520   6518   6521   6522     1  0.0000000  0.0000000  2
   6520   6518   6521   6522     1  180.0000771  0.3347200  3
   6520   6518   6521   6523     1  0.0000000  3.3472000  1
   6520   6518   6521   6523     1  0.0000000  0.0000000  2
   6520   6518   6521   6523     1  180.0000771  0.3347200  3
   6525   6528   6531   6532     1  0.0000000  0.6508444  3
   6525   6528   6531   6533     1  0.0000000  0.6508444  3
   6526   6525   6528   6531     1  0.0000000  0.6508444  3
   6526   6525   6528   6529     1  0.0000000  0.6508444  3
   6526   6525   6528   6530     1  0.0000000  0.6508444  3
   6527   6525   6528   6531     1  0.0000000  0.6508444  3
   6527   6525   6528   6529     1  0.0000000  0.6508444  3
   6527   6525   6528   6530     1  0.0000000  0.6508444  3
   6529   6528   6531   6534     1  0.0000000  0.6508444  3
   6529   6528   6531   6532     1  0.0000000  0.6508444  3
   6529   6528   6531   6533     1  0.0000000  0.6508444  3
   6529   6528   6525   6553     1  0.0000000  1.0460000  1
   6529   6528   6525   6553     1  0.0000000  0.0000000  3
   6530   6528   6531   6534     1  0.0000000  0.6508444  3
   6530   6528   6531   6532     1  0.0000000  0.6508444  3
   6530   6528   6531   6533     1  0.0000000  0.6508444  3
   6530   6528   6525   6553     1  0.0000000  1.0460000  1
   6530   6528   6525   6553     1  0.0000000  0.0000000  3
   6531   6534   6535   6536     1  0.0000000  1.2552000  3
   6531   6534   6535   6537     1  0.0000000  1.2552000  3
   6531   6534   6544   6545     1  0.0000000  1.2552000  3
   6531   6534   6544   6546     1  0.0000000  1.2552000  3
   6532   6531   6534   6535     1  0.0000000  1.2552000  3
   6532   6531   6534   6544     1  0.0000000  1.2552000  3
   6533   6531   6534   6535     1  0.0000000  1.2552000  3
   6533   6531   6534   6544     1  0.0000000  1.2552000  3
   6534   6535   6538   6539     1  0.0000000  0.6508444  3
   6534   6535   6538   6540     1  0.0000000  0.6508444  3
   6534   6544   6547   6548     1  0.0000000  0.6508444  3
   6534   6544   6547   6549     1  0.0000000  0.6508444  3
   6535   6534   6544   6545     1  0.0000000  1.2552000  3
   6535   6534   6544   6546     1  0.0000000  1.2552000  3
   6536   6535   6538   6541     1  0.0000000  0.6508444  3
   6536   6535   6538   6539     1  0.0000000  0.6508444  3
   6536   6535   6538   6540     1  0.0000000  0.6508444  3
   6536   6535   6534   6544     1  0.0000000  1.2552000  3
   6537   6535   6538   6541     1  0.0000000  0.6508444  3
   6537   6535   6538   6539     1  0.0000000  0.6508444  3
   6537   6535   6538   6540     1  0.0000000  0.6508444  3
   6537   6535   6534   6544     1  0.0000000  1.2552000  3
   6539   6538   6541   6542     1  0.0000000  3.3472000  1
   6539   6538   6541   6542     1  0.0000000  0.0000000  2
   6539   6538   6541   6542     1  180.0000771  0.3347200  3
   6539   6538   6541   6543     1  0.0000000  3.3472000  1
   6539   6538   6541   6543     1  0.0000000  0.0000000  2
   6539   6538   6541   6543     1  180.0000771  0.3347200  3
   6540   6538   6541   6542     1  0.0000000  3.3472000  1
   6540   6538   6541   6542     1  0.0000000  0.0000000  2
   6540   6538   6541   6542     1  180.0000771  0.3347200  3
   6540   6538   6541   6543     1  0.0000000  3.3472000  1
   6540   6538   6541   6543     1  0.0000000  0.0000000  2
   6540   6538   6541   6543     1  180.0000771  0.3347200  3
   6545   6544   6547   6550     1  0.0000000  0.6508444  3
   6545   6544   6547   6548     1  0.0000000  0.6508444  3
   6545   6544   6547   6549     1  0.0000000  0.6508444  3
   6546   6544   6547   6550     1  0.0000000  0.6508444  3
   6546   6544   6547   6548     1  0.0000000  0.6508444  3
   6546   6544   6547   6549     1  0.0000000  0.6508444  3
   6548   6547   6550   6551     1  0.0000000  3.3472000  1
   6548   6547   6550   6551     1  0.0000000  0.0000000  2
   6548   6547   6550   6551     1  180.0000771  0.3347200  3
   6548   6547   6550   6552     1  0.0000000  3.3472000  1
   6548   6547   6550   6552     1  0.0000000  0.0000000  2
   6548   6547   6550   6552     1  180.0000771  0.3347200  3
   6549   6547   6550   6551     1  0.0000000  3.3472000  1
   6549   6547   6550   6551     1  0.0000000  0.0000000  2
   6549   6547   6550   6551     1  180.0000771  0.3347200  3
   6549   6547   6550   6552     1  0.0000000  3.3472000  1
   6549   6547   6550   6552     1  0.0000000  0.0000000  2
   6549   6547   6550   6552     1  180.0000771  0.3347200  3
   6554   6557   6560   6561     1  0.0000000  0.6508444  3
   6554   6557   6560   6562     1  0.0000000  0.6508444  3
   6555   6554   6557   6560     1  0.0000000  0.6508444  3
   6555   6554   6557   6558     1  0.0000000  0.6508444  3
   6555   6554   6557   6559     1  0.0000000  0.6508444  3
   6556   6554   6557   6560     1  0.0000000  0.6508444  3
   6556   6554   6557   6558     1  0.0000000  0.6508444  3
   6556   6554   6557   6559     1  0.0000000  0.6508444  3
   6558   6557   6554   6582     1  0.0000000  1.0460000  1
   6558   6557   6554   6582     1  0.0000000  0.0000000  3
   6558   6557   6560   6563     1  0.0000000  0.6508444  3
   6558   6557   6560   6561     1  0.0000000  0.6508444  3
   6558   6557   6560   6562     1  0.0000000  0.6508444  3
   6559   6557   6554   6582     1  0.0000000  1.0460000  1
   6559   6557   6554   6582     1  0.0000000  0.0000000  3
   6559   6557   6560   6563     1  0.0000000  0.6508444  3
   6559   6557   6560   6561     1  0.0000000  0.6508444  3
   6559   6557   6560   6562     1  0.0000000  0.6508444  3
   6560   6563   6564   6565     1  0.0000000  1.2552000  3
   6560   6563   6564   6566     1  0.0000000  1.2552000  3
   6560   6563   6573   6574     1  0.0000000  1.2552000  3
   6560   6563   6573   6575     1  0.0000000  1.2552000  3
   6561   6560   6563   6564     1  0.0000000  1.2552000  3
   6561   6560   6563   6573     1  0.0000000  1.2552000  3
   6562   6560   6563   6564     1  0.0000000  1.2552000  3
   6562   6560   6563   6573     1  0.0000000  1.2552000  3
   6563   6564   6567   6568     1  0.0000000  0.6508444  3
   6563   6564   6567   6569     1  0.0000000  0.6508444  3
   6563   6573   6576   6577     1  0.0000000  0.6508444  3
   6563   6573   6576   6578     1  0.0000000  0.6508444  3
   6564   6563   6573   6574     1  0.0000000  1.2552000  3
   6564   6563   6573   6575     1  0.0000000  1.2552000  3
   6565   6564   6563   6573     1  0.0000000  1.2552000  3
   6565   6564   6567   6570     1  0.0000000  0.6508444  3
   6565   6564   6567   6568     1  0.0000000  0.6508444  3
   6565   6564   6567   6569     1  0.0000000  0.6508444  3
   6566   6564   6563   6573     1  0.0000000  1.2552000  3
   6566   6564   6567   6570     1  0.0000000  0.6508444  3
   6566   6564   6567   6568     1  0.0000000  0.6508444  3
   6566   6564   6567   6569     1  0.0000000  0.6508444  3
   6568   6567   6570   6571     1  0.0000000  3.3472000  1
   6568   6567   6570   6571     1  0.0000000  0.0000000  2
   6568   6567   6570   6571     1  180.0000771  0.3347200  3
   6568   6567   6570   6572     1  0.0000000  3.3472000  1
   6568   6567   6570   6572     1  0.0000000  0.0000000  2
   6568   6567   6570   6572     1  180.0000771  0.3347200  3
   6569   6567   6570   6571     1  0.0000000  3.3472000  1
   6569   6567   6570   6571     1  0.0000000  0.0000000  2
   6569   6567   6570   6571     1  180.0000771  0.3347200  3
   6569   6567   6570   6572     1  0.0000000  3.3472000  1
   6569   6567   6570   6572     1  0.0000000  0.0000000  2
   6569   6567   6570   6572     1  180.0000771  0.3347200  3
   6574   6573   6576   6579     1  0.0000000  0.6508444  3
   6574   6573   6576   6577     1  0.0000000  0.6508444  3
   6574   6573   6576   6578     1  0.0000000  0.6508444  3
   6575   6573   6576   6579     1  0.0000000  0.6508444  3
   6575   6573   6576   6577     1  0.0000000  0.6508444  3
   6575   6573   6576   6578     1  0.0000000  0.6508444  3
   6577   6576   6579   6580     1  0.0000000  3.3472000  1
   6577   6576   6579   6580     1  0.0000000  0.0000000  2
   6577   6576   6579   6580     1  180.0000771  0.3347200  3
   6577   6576   6579   6581     1  0.0000000  3.3472000  1
   6577   6576   6579   6581     1  0.0000000  0.0000000  2
   6577   6576   6579   6581     1  180.0000771  0.3347200  3
   6578   6576   6579   6580     1  0.0000000  3.3472000  1
   6578   6576   6579   6580     1  0.0000000  0.0000000  2
   6578   6576   6579   6580     1  180.0000771  0.3347200  3
   6578   6576   6579   6581     1  0.0000000  3.3472000  1
   6578   6576   6579   6581     1  0.0000000  0.0000000  2
   6578   6576   6579   6581     1  180.0000771  0.3347200  3
   6583   6586   6589   6590     1  0.0000000  0.6508444  3
   6583   6586   6589   6591     1  0.0000000  0.6508444  3
   6584   6583   6586   6589     1  0.0000000  0.6508444  3
   6584   6583   6586   6587     1  0.0000000  0.6508444  3
   6584   6583   6586   6588     1  0.0000000  0.6508444  3
   6585   6583   6586   6589     1  0.0000000  0.6508444  3
   6585   6583   6586   6587     1  0.0000000  0.6508444  3
   6585   6583   6586   6588     1  0.0000000  0.6508444  3
   6587   6586   6589   6592     1  0.0000000  0.6508444  3
   6587   6586   6589   6590     1  0.0000000  0.6508444  3
   6587   6586   6589   6591     1  0.0000000  0.6508444  3
   6587   6586   6583   6611     1  0.0000000  1.0460000  1
   6587   6586   6583   6611     1  0.0000000  0.0000000  3
   6588   6586   6589   6592     1  0.0000000  0.6508444  3
   6588   6586   6589   6590     1  0.0000000  0.6508444  3
   6588   6586   6589   6591     1  0.0000000  0.6508444  3
   6588   6586   6583   6611     1  0.0000000  1.0460000  1
   6588   6586   6583   6611     1  0.0000000  0.0000000  3
   6589   6592   6593   6594     1  0.0000000  1.2552000  3
   6589   6592   6593   6595     1  0.0000000  1.2552000  3
   6589   6592   6602   6603     1  0.0000000  1.2552000  3
   6589   6592   6602   6604     1  0.0000000  1.2552000  3
   6590   6589   6592   6593     1  0.0000000  1.2552000  3
   6590   6589   6592   6602     1  0.0000000  1.2552000  3
   6591   6589   6592   6593     1  0.0000000  1.2552000  3
   6591   6589   6592   6602     1  0.0000000  1.2552000  3
   6592   6593   6596   6597     1  0.0000000  0.6508444  3
   6592   6593   6596   6598     1  0.0000000  0.6508444  3
   6592   6602   6605   6606     1  0.0000000  0.6508444  3
   6592   6602   6605   6607     1  0.0000000  0.6508444  3
   6593   6592   6602   6603     1  0.0000000  1.2552000  3
   6593   6592   6602   6604     1  0.0000000  1.2552000  3
   6594   6593   6596   6599     1  0.0000000  0.6508444  3
   6594   6593   6596   6597     1  0.0000000  0.6508444  3
   6594   6593   6596   6598     1  0.0000000  0.6508444  3
   6594   6593   6592   6602     1  0.0000000  1.2552000  3
   6595   6593   6596   6599     1  0.0000000  0.6508444  3
   6595   6593   6596   6597     1  0.0000000  0.6508444  3
   6595   6593   6596   6598     1  0.0000000  0.6508444  3
   6595   6593   6592   6602     1  0.0000000  1.2552000  3
   6597   6596   6599   6600     1  0.0000000  3.3472000  1
   6597   6596   6599   6600     1  0.0000000  0.0000000  2
   6597   6596   6599   6600     1  180.0000771  0.3347200  3
   6597   6596   6599   6601     1  0.0000000  3.3472000  1
   6597   6596   6599   6601     1  0.0000000  0.0000000  2
   6597   6596   6599   6601     1  180.0000771  0.3347200  3
   6598   6596   6599   6600     1  0.0000000  3.3472000  1
   6598   6596   6599   6600     1  0.0000000  0.0000000  2
   6598   6596   6599   6600     1  180.0000771  0.3347200  3
   6598   6596   6599   6601     1  0.0000000  3.3472000  1
   6598   6596   6599   6601     1  0.0000000  0.0000000  2
   6598   6596   6599   6601     1  180.0000771  0.3347200  3
   6603   6602   6605   6608     1  0.0000000  0.6508444  3
   6603   6602   6605   6606     1  0.0000000  0.6508444  3
   6603   6602   6605   6607     1  0.0000000  0.6508444  3
   6604   6602   6605   6608     1  0.0000000  0.6508444  3
   6604   6602   6605   6606     1  0.0000000  0.6508444  3
   6604   6602   6605   6607     1  0.0000000  0.6508444  3
   6606   6605   6608   6609     1  0.0000000  3.3472000  1
   6606   6605   6608   6609     1  0.0000000  0.0000000  2
   6606   6605   6608   6609     1  180.0000771  0.3347200  3
   6606   6605   6608   6610     1  0.0000000  3.3472000  1
   6606   6605   6608   6610     1  0.0000000  0.0000000  2
   6606   6605   6608   6610     1  180.0000771  0.3347200  3
   6607   6605   6608   6609     1  0.0000000  3.3472000  1
   6607   6605   6608   6609     1  0.0000000  0.0000000  2
   6607   6605   6608   6609     1  180.0000771  0.3347200  3
   6607   6605   6608   6610     1  0.0000000  3.3472000  1
   6607   6605   6608   6610     1  0.0000000  0.0000000  2
   6607   6605   6608   6610     1  180.0000771  0.3347200  3
   6612   6615   6618   6619     1  0.0000000  0.6508444  3
   6612   6615   6618   6620     1  0.0000000  0.6508444  3
   6613   6612   6615   6618     1  0.0000000  0.6508444  3
   6613   6612   6615   6616     1  0.0000000  0.6508444  3
   6613   6612   6615   6617     1  0.0000000  0.6508444  3
   6614   6612   6615   6618     1  0.0000000  0.6508444  3
   6614   6612   6615   6616     1  0.0000000  0.6508444  3
   6614   6612   6615   6617     1  0.0000000  0.6508444  3
   6616   6615   6612   6640     1  0.0000000  1.0460000  1
   6616   6615   6612   6640     1  0.0000000  0.0000000  3
   6616   6615   6618   6621     1  0.0000000  0.6508444  3
   6616   6615   6618   6619     1  0.0000000  0.6508444  3
   6616   6615   6618   6620     1  0.0000000  0.6508444  3
   6617   6615   6612   6640     1  0.0000000  1.0460000  1
   6617   6615   6612   6640     1  0.0000000  0.0000000  3
   6617   6615   6618   6621     1  0.0000000  0.6508444  3
   6617   6615   6618   6619     1  0.0000000  0.6508444  3
   6617   6615   6618   6620     1  0.0000000  0.6508444  3
   6618   6621   6622   6623     1  0.0000000  1.2552000  3
   6618   6621   6622   6624     1  0.0000000  1.2552000  3
   6618   6621   6631   6632     1  0.0000000  1.2552000  3
   6618   6621   6631   6633     1  0.0000000  1.2552000  3
   6619   6618   6621   6622     1  0.0000000  1.2552000  3
   6619   6618   6621   6631     1  0.0000000  1.2552000  3
   6620   6618   6621   6622     1  0.0000000  1.2552000  3
   6620   6618   6621   6631     1  0.0000000  1.2552000  3
   6621   6622   6625   6626     1  0.0000000  0.6508444  3
   6621   6622   6625   6627     1  0.0000000  0.6508444  3
   6621   6631   6634   6635     1  0.0000000  0.6508444  3
   6621   6631   6634   6636     1  0.0000000  0.6508444  3
   6622   6621   6631   6632     1  0.0000000  1.2552000  3
   6622   6621   6631   6633     1  0.0000000  1.2552000  3
   6623   6622   6621   6631     1  0.0000000  1.2552000  3
   6623   6622   6625   6628     1  0.0000000  0.6508444  3
   6623   6622   6625   6626     1  0.0000000  0.6508444  3
   6623   6622   6625   6627     1  0.0000000  0.6508444  3
   6624   6622   6621   6631     1  0.0000000  1.2552000  3
   6624   6622   6625   6628     1  0.0000000  0.6508444  3
   6624   6622   6625   6626     1  0.0000000  0.6508444  3
   6624   6622   6625   6627     1  0.0000000  0.6508444  3
   6626   6625   6628   6629     1  0.0000000  3.3472000  1
   6626   6625   6628   6629     1  0.0000000  0.0000000  2
   6626   6625   6628   6629     1  180.0000771  0.3347200  3
   6626   6625   6628   6630     1  0.0000000  3.3472000  1
   6626   6625   6628   6630     1  0.0000000  0.0000000  2
   6626   6625   6628   6630     1  180.0000771  0.3347200  3
   6627   6625   6628   6629     1  0.0000000  3.3472000  1
   6627   6625   6628   6629     1  0.0000000  0.0000000  2
   6627   6625   6628   6629     1  180.0000771  0.3347200  3
   6627   6625   6628   6630     1  0.0000000  3.3472000  1
   6627   6625   6628   6630     1  0.0000000  0.0000000  2
   6627   6625   6628   6630     1  180.0000771  0.3347200  3
   6632   6631   6634   6637     1  0.0000000  0.6508444  3
   6632   6631   6634   6635     1  0.0000000  0.6508444  3
   6632   6631   6634   6636     1  0.0000000  0.6508444  3
   6633   6631   6634   6637     1  0.0000000  0.6508444  3
   6633   6631   6634   6635     1  0.0000000  0.6508444  3
   6633   6631   6634   6636     1  0.0000000  0.6508444  3
   6635   6634   6637   6638     1  0.0000000  3.3472000  1
   6635   6634   6637   6638     1  0.0000000  0.0000000  2
   6635   6634   6637   6638     1  180.0000771  0.3347200  3
   6635   6634   6637   6639     1  0.0000000  3.3472000  1
   6635   6634   6637   6639     1  0.0000000  0.0000000  2
   6635   6634   6637   6639     1  180.0000771  0.3347200  3
   6636   6634   6637   6638     1  0.0000000  3.3472000  1
   6636   6634   6637   6638     1  0.0000000  0.0000000  2
   6636   6634   6637   6638     1  180.0000771  0.3347200  3
   6636   6634   6637   6639     1  0.0000000  3.3472000  1
   6636   6634   6637   6639     1  0.0000000  0.0000000  2
   6636   6634   6637   6639     1  180.0000771  0.3347200  3
   6641   6644   6647   6648     1  0.0000000  0.6508444  3
   6641   6644   6647   6649     1  0.0000000  0.6508444  3
   6642   6641   6644   6647     1  0.0000000  0.6508444  3
   6642   6641   6644   6645     1  0.0000000  0.6508444  3
   6642   6641   6644   6646     1  0.0000000  0.6508444  3
   6643   6641   6644   6647     1  0.0000000  0.6508444  3
   6643   6641   6644   6645     1  0.0000000  0.6508444  3
   6643   6641   6644   6646     1  0.0000000  0.6508444  3
   6645   6644   6647   6650     1  0.0000000  0.6508444  3
   6645   6644   6647   6648     1  0.0000000  0.6508444  3
   6645   6644   6647   6649     1  0.0000000  0.6508444  3
   6645   6644   6641   6669     1  0.0000000  1.0460000  1
   6645   6644   6641   6669     1  0.0000000  0.0000000  3
   6646   6644   6647   6650     1  0.0000000  0.6508444  3
   6646   6644   6647   6648     1  0.0000000  0.6508444  3
   6646   6644   6647   6649     1  0.0000000  0.6508444  3
   6646   6644   6641   6669     1  0.0000000  1.0460000  1
   6646   6644   6641   6669     1  0.0000000  0.0000000  3
   6647   6650   6651   6652     1  0.0000000  1.2552000  3
   6647   6650   6651   6653     1  0.0000000  1.2552000  3
   6647   6650   6660   6661     1  0.0000000  1.2552000  3
   6647   6650   6660   6662     1  0.0000000  1.2552000  3
   6648   6647   6650   6651     1  0.0000000  1.2552000  3
   6648   6647   6650   6660     1  0.0000000  1.2552000  3
   6649   6647   6650   6651     1  0.0000000  1.2552000  3
   6649   6647   6650   6660     1  0.0000000  1.2552000  3
   6650   6651   6654   6655     1  0.0000000  0.6508444  3
   6650   6651   6654   6656     1  0.0000000  0.6508444  3
   6650   6660   6663   6664     1  0.0000000  0.6508444  3
   6650   6660   6663   6665     1  0.0000000  0.6508444  3
   6651   6650   6660   6661     1  0.0000000  1.2552000  3
   6651   6650   6660   6662     1  0.0000000  1.2552000  3
   6652   6651   6654   6657     1  0.0000000  0.6508444  3
   6652   6651   6654   6655     1  0.0000000  0.6508444  3
   6652   6651   6654   6656     1  0.0000000  0.6508444  3
   6652   6651   6650   6660     1  0.0000000  1.2552000  3
   6653   6651   6654   6657     1  0.0000000  0.6508444  3
   6653   6651   6654   6655     1  0.0000000  0.6508444  3
   6653   6651   6654   6656     1  0.0000000  0.6508444  3
   6653   6651   6650   6660     1  0.0000000  1.2552000  3
   6655   6654   6657   6658     1  0.0000000  3.3472000  1
   6655   6654   6657   6658     1  0.0000000  0.0000000  2
   6655   6654   6657   6658     1  180.0000771  0.3347200  3
   6655   6654   6657   6659     1  0.0000000  3.3472000  1
   6655   6654   6657   6659     1  0.0000000  0.0000000  2
   6655   6654   6657   6659     1  180.0000771  0.3347200  3
   6656   6654   6657   6658     1  0.0000000  3.3472000  1
   6656   6654   6657   6658     1  0.0000000  0.0000000  2
   6656   6654   6657   6658     1  180.0000771  0.3347200  3
   6656   6654   6657   6659     1  0.0000000  3.3472000  1
   6656   6654   6657   6659     1  0.0000000  0.0000000  2
   6656   6654   6657   6659     1  180.0000771  0.3347200  3
   6661   6660   6663   6666     1  0.0000000  0.6508444  3
   6661   6660   6663   6664     1  0.0000000  0.6508444  3
   6661   6660   6663   6665     1  0.0000000  0.6508444  3
   6662   6660   6663   6666     1  0.0000000  0.6508444  3
   6662   6660   6663   6664     1  0.0000000  0.6508444  3
   6662   6660   6663   6665     1  0.0000000  0.6508444  3
   6664   6663   6666   6667     1  0.0000000  3.3472000  1
   6664   6663   6666   6667     1  0.0000000  0.0000000  2
   6664   6663   6666   6667     1  180.0000771  0.3347200  3
   6664   6663   6666   6668     1  0.0000000  3.3472000  1
   6664   6663   6666   6668     1  0.0000000  0.0000000  2
   6664   6663   6666   6668     1  180.0000771  0.3347200  3
   6665   6663   6666   6667     1  0.0000000  3.3472000  1
   6665   6663   6666   6667     1  0.0000000  0.0000000  2
   6665   6663   6666   6667     1  180.0000771  0.3347200  3
   6665   6663   6666   6668     1  0.0000000  3.3472000  1
   6665   6663   6666   6668     1  0.0000000  0.0000000  2
   6665   6663   6666   6668     1  180.0000771  0.3347200  3
   6670   6673   6676   6677     1  0.0000000  0.6508444  3
   6670   6673   6676   6678     1  0.0000000  0.6508444  3
   6671   6670   6673   6676     1  0.0000000  0.6508444  3
   6671   6670   6673   6674     1  0.0000000  0.6508444  3
   6671   6670   6673   6675     1  0.0000000  0.6508444  3
   6672   6670   6673   6676     1  0.0000000  0.6508444  3
   6672   6670   6673   6674     1  0.0000000  0.6508444  3
   6672   6670   6673   6675     1  0.0000000  0.6508444  3
   6674   6673   6670   6698     1  0.0000000  1.0460000  1
   6674   6673   6670   6698     1  0.0000000  0.0000000  3
   6674   6673   6676   6679     1  0.0000000  0.6508444  3
   6674   6673   6676   6677     1  0.0000000  0.6508444  3
   6674   6673   6676   6678     1  0.0000000  0.6508444  3
   6675   6673   6670   6698     1  0.0000000  1.0460000  1
   6675   6673   6670   6698     1  0.0000000  0.0000000  3
   6675   6673   6676   6679     1  0.0000000  0.6508444  3
   6675   6673   6676   6677     1  0.0000000  0.6508444  3
   6675   6673   6676   6678     1  0.0000000  0.6508444  3
   6676   6679   6680   6681     1  0.0000000  1.2552000  3
   6676   6679   6680   6682     1  0.0000000  1.2552000  3
   6676   6679   6689   6690     1  0.0000000  1.2552000  3
   6676   6679   6689   6691     1  0.0000000  1.2552000  3
   6677   6676   6679   6680     1  0.0000000  1.2552000  3
   6677   6676   6679   6689     1  0.0000000  1.2552000  3
   6678   6676   6679   6680     1  0.0000000  1.2552000  3
   6678   6676   6679   6689     1  0.0000000  1.2552000  3
   6679   6680   6683   6684     1  0.0000000  0.6508444  3
   6679   6680   6683   6685     1  0.0000000  0.6508444  3
   6679   6689   6692   6693     1  0.0000000  0.6508444  3
   6679   6689   6692   6694     1  0.0000000  0.6508444  3
   6680   6679   6689   6690     1  0.0000000  1.2552000  3
   6680   6679   6689   6691     1  0.0000000  1.2552000  3
   6681   6680   6679   6689     1  0.0000000  1.2552000  3
   6681   6680   6683   6686     1  0.0000000  0.6508444  3
   6681   6680   6683   6684     1  0.0000000  0.6508444  3
   6681   6680   6683   6685     1  0.0000000  0.6508444  3
   6682   6680   6679   6689     1  0.0000000  1.2552000  3
   6682   6680   6683   6686     1  0.0000000  0.6508444  3
   6682   6680   6683   6684     1  0.0000000  0.6508444  3
   6682   6680   6683   6685     1  0.0000000  0.6508444  3
   6684   6683   6686   6687     1  0.0000000  3.3472000  1
   6684   6683   6686   6687     1  0.0000000  0.0000000  2
   6684   6683   6686   6687     1  180.0000771  0.3347200  3
   6684   6683   6686   6688     1  0.0000000  3.3472000  1
   6684   6683   6686   6688     1  0.0000000  0.0000000  2
   6684   6683   6686   6688     1  180.0000771  0.3347200  3
   6685   6683   6686   6687     1  0.0000000  3.3472000  1
   6685   6683   6686   6687     1  0.0000000  0.0000000  2
   6685   6683   6686   6687     1  180.0000771  0.3347200  3
   6685   6683   6686   6688     1  0.0000000  3.3472000  1
   6685   6683   6686   6688     1  0.0000000  0.0000000  2
   6685   6683   6686   6688     1  180.0000771  0.3347200  3
   6690   6689   6692   6695     1  0.0000000  0.6508444  3
   6690   6689   6692   6693     1  0.0000000  0.6508444  3
   6690   6689   6692   6694     1  0.0000000  0.6508444  3
   6691   6689   6692   6695     1  0.0000000  0.6508444  3
   6691   6689   6692   6693     1  0.0000000  0.6508444  3
   6691   6689   6692   6694     1  0.0000000  0.6508444  3
   6693   6692   6695   6696     1  0.0000000  3.3472000  1
   6693   6692   6695   6696     1  0.0000000  0.0000000  2
   6693   6692   6695   6696     1  180.0000771  0.3347200  3
   6693   6692   6695   6697     1  0.0000000  3.3472000  1
   6693   6692   6695   6697     1  0.0000000  0.0000000  2
   6693   6692   6695   6697     1  180.0000771  0.3347200  3
   6694   6692   6695   6696     1  0.0000000  3.3472000  1
   6694   6692   6695   6696     1  0.0000000  0.0000000  2
   6694   6692   6695   6696     1  180.0000771  0.3347200  3
   6694   6692   6695   6697     1  0.0000000  3.3472000  1
   6694   6692   6695   6697     1  0.0000000  0.0000000  2
   6694   6692   6695   6697     1  180.0000771  0.3347200  3
   6699   6702   6705   6706     1  0.0000000  0.6508444  3
   6699   6702   6705   6707     1  0.0000000  0.6508444  3
   6700   6699   6702   6705     1  0.0000000  0.6508444  3
   6700   6699   6702   6703     1  0.0000000  0.6508444  3
   6700   6699   6702   6704     1  0.0000000  0.6508444  3
   6701   6699   6702   6705     1  0.0000000  0.6508444  3
   6701   6699   6702   6703     1  0.0000000  0.6508444  3
   6701   6699   6702   6704     1  0.0000000  0.6508444  3
   6703   6702   6705   6708     1  0.0000000  0.6508444  3
   6703   6702   6705   6706     1  0.0000000  0.6508444  3
   6703   6702   6705   6707     1  0.0000000  0.6508444  3
   6703   6702   6699   6727     1  0.0000000  1.0460000  1
   6703   6702   6699   6727     1  0.0000000  0.0000000  3
   6704   6702   6705   6708     1  0.0000000  0.6508444  3
   6704   6702   6705   6706     1  0.0000000  0.6508444  3
   6704   6702   6705   6707     1  0.0000000  0.6508444  3
   6704   6702   6699   6727     1  0.0000000  1.0460000  1
   6704   6702   6699   6727     1  0.0000000  0.0000000  3
   6705   6708   6709   6710     1  0.0000000  1.2552000  3
   6705   6708   6709   6711     1  0.0000000  1.2552000  3
   6705   6708   6718   6719     1  0.0000000  1.2552000  3
   6705   6708   6718   6720     1  0.0000000  1.2552000  3
   6706   6705   6708   6709     1  0.0000000  1.2552000  3
   6706   6705   6708   6718     1  0.0000000  1.2552000  3
   6707   6705   6708   6709     1  0.0000000  1.2552000  3
   6707   6705   6708   6718     1  0.0000000  1.2552000  3
   6708   6709   6712   6713     1  0.0000000  0.6508444  3
   6708   6709   6712   6714     1  0.0000000  0.6508444  3
   6708   6718   6721   6722     1  0.0000000  0.6508444  3
   6708   6718   6721   6723     1  0.0000000  0.6508444  3
   6709   6708   6718   6719     1  0.0000000  1.2552000  3
   6709   6708   6718   6720     1  0.0000000  1.2552000  3
   6710   6709   6712   6715     1  0.0000000  0.6508444  3
   6710   6709   6712   6713     1  0.0000000  0.6508444  3
   6710   6709   6712   6714     1  0.0000000  0.6508444  3
   6710   6709   6708   6718     1  0.0000000  1.2552000  3
   6711   6709   6712   6715     1  0.0000000  0.6508444  3
   6711   6709   6712   6713     1  0.0000000  0.6508444  3
   6711   6709   6712   6714     1  0.0000000  0.6508444  3
   6711   6709   6708   6718     1  0.0000000  1.2552000  3
   6713   6712   6715   6716     1  0.0000000  3.3472000  1
   6713   6712   6715   6716     1  0.0000000  0.0000000  2
   6713   6712   6715   6716     1  180.0000771  0.3347200  3
   6713   6712   6715   6717     1  0.0000000  3.3472000  1
   6713   6712   6715   6717     1  0.0000000  0.0000000  2
   6713   6712   6715   6717     1  180.0000771  0.3347200  3
   6714   6712   6715   6716     1  0.0000000  3.3472000  1
   6714   6712   6715   6716     1  0.0000000  0.0000000  2
   6714   6712   6715   6716     1  180.0000771  0.3347200  3
   6714   6712   6715   6717     1  0.0000000  3.3472000  1
   6714   6712   6715   6717     1  0.0000000  0.0000000  2
   6714   6712   6715   6717     1  180.0000771  0.3347200  3
   6719   6718   6721   6724     1  0.0000000  0.6508444  3
   6719   6718   6721   6722     1  0.0000000  0.6508444  3
   6719   6718   6721   6723     1  0.0000000  0.6508444  3
   6720   6718   6721   6724     1  0.0000000  0.6508444  3
   6720   6718   6721   6722     1  0.0000000  0.6508444  3
   6720   6718   6721   6723     1  0.0000000  0.6508444  3
   6722   6721   6724   6725     1  0.0000000  3.3472000  1
   6722   6721   6724   6725     1  0.0000000  0.0000000  2
   6722   6721   6724   6725     1  180.0000771  0.3347200  3
   6722   6721   6724   6726     1  0.0000000  3.3472000  1
   6722   6721   6724   6726     1  0.0000000  0.0000000  2
   6722   6721   6724   6726     1  180.0000771  0.3347200  3
   6723   6721   6724   6725     1  0.0000000  3.3472000  1
   6723   6721   6724   6725     1  0.0000000  0.0000000  2
   6723   6721   6724   6725     1  180.0000771  0.3347200  3
   6723   6721   6724   6726     1  0.0000000  3.3472000  1
   6723   6721   6724   6726     1  0.0000000  0.0000000  2
   6723   6721   6724   6726     1  180.0000771  0.3347200  3
   6728   6731   6734   6735     1  0.0000000  0.6508444  3
   6728   6731   6734   6736     1  0.0000000  0.6508444  3
   6729   6728   6731   6734     1  0.0000000  0.6508444  3
   6729   6728   6731   6732     1  0.0000000  0.6508444  3
   6729   6728   6731   6733     1  0.0000000  0.6508444  3
   6730   6728   6731   6734     1  0.0000000  0.6508444  3
   6730   6728   6731   6732     1  0.0000000  0.6508444  3
   6730   6728   6731   6733     1  0.0000000  0.6508444  3
   6732   6731   6728   6756     1  0.0000000  1.0460000  1
   6732   6731   6728   6756     1  0.0000000  0.0000000  3
   6732   6731   6734   6737     1  0.0000000  0.6508444  3
   6732   6731   6734   6735     1  0.0000000  0.6508444  3
   6732   6731   6734   6736     1  0.0000000  0.6508444  3
   6733   6731   6728   6756     1  0.0000000  1.0460000  1
   6733   6731   6728   6756     1  0.0000000  0.0000000  3
   6733   6731   6734   6737     1  0.0000000  0.6508444  3
   6733   6731   6734   6735     1  0.0000000  0.6508444  3
   6733   6731   6734   6736     1  0.0000000  0.6508444  3
   6734   6737   6738   6739     1  0.0000000  1.2552000  3
   6734   6737   6738   6740     1  0.0000000  1.2552000  3
   6734   6737   6747   6748     1  0.0000000  1.2552000  3
   6734   6737   6747   6749     1  0.0000000  1.2552000  3
   6735   6734   6737   6738     1  0.0000000  1.2552000  3
   6735   6734   6737   6747     1  0.0000000  1.2552000  3
   6736   6734   6737   6738     1  0.0000000  1.2552000  3
   6736   6734   6737   6747     1  0.0000000  1.2552000  3
   6737   6738   6741   6742     1  0.0000000  0.6508444  3
   6737   6738   6741   6743     1  0.0000000  0.6508444  3
   6737   6747   6750   6751     1  0.0000000  0.6508444  3
   6737   6747   6750   6752     1  0.0000000  0.6508444  3
   6738   6737   6747   6748     1  0.0000000  1.2552000  3
   6738   6737   6747   6749     1  0.0000000  1.2552000  3
   6739   6738   6737   6747     1  0.0000000  1.2552000  3
   6739   6738   6741   6744     1  0.0000000  0.6508444  3
   6739   6738   6741   6742     1  0.0000000  0.6508444  3
   6739   6738   6741   6743     1  0.0000000  0.6508444  3
   6740   6738   6737   6747     1  0.0000000  1.2552000  3
   6740   6738   6741   6744     1  0.0000000  0.6508444  3
   6740   6738   6741   6742     1  0.0000000  0.6508444  3
   6740   6738   6741   6743     1  0.0000000  0.6508444  3
   6742   6741   6744   6745     1  0.0000000  3.3472000  1
   6742   6741   6744   6745     1  0.0000000  0.0000000  2
   6742   6741   6744   6745     1  180.0000771  0.3347200  3
   6742   6741   6744   6746     1  0.0000000  3.3472000  1
   6742   6741   6744   6746     1  0.0000000  0.0000000  2
   6742   6741   6744   6746     1  180.0000771  0.3347200  3
   6743   6741   6744   6745     1  0.0000000  3.3472000  1
   6743   6741   6744   6745     1  0.0000000  0.0000000  2
   6743   6741   6744   6745     1  180.0000771  0.3347200  3
   6743   6741   6744   6746     1  0.0000000  3.3472000  1
   6743   6741   6744   6746     1  0.0000000  0.0000000  2
   6743   6741   6744   6746     1  180.0000771  0.3347200  3
   6748   6747   6750   6753     1  0.0000000  0.6508444  3
   6748   6747   6750   6751     1  0.0000000  0.6508444  3
   6748   6747   6750   6752     1  0.0000000  0.6508444  3
   6749   6747   6750   6753     1  0.0000000  0.6508444  3
   6749   6747   6750   6751     1  0.0000000  0.6508444  3
   6749   6747   6750   6752     1  0.0000000  0.6508444  3
   6751   6750   6753   6754     1  0.0000000  3.3472000  1
   6751   6750   6753   6754     1  0.0000000  0.0000000  2
   6751   6750   6753   6754     1  180.0000771  0.3347200  3
   6751   6750   6753   6755     1  0.0000000  3.3472000  1
   6751   6750   6753   6755     1  0.0000000  0.0000000  2
   6751   6750   6753   6755     1  180.0000771  0.3347200  3
   6752   6750   6753   6754     1  0.0000000  3.3472000  1
   6752   6750   6753   6754     1  0.0000000  0.0000000  2
   6752   6750   6753   6754     1  180.0000771  0.3347200  3
   6752   6750   6753   6755     1  0.0000000  3.3472000  1
   6752   6750   6753   6755     1  0.0000000  0.0000000  2
   6752   6750   6753   6755     1  180.0000771  0.3347200  3
   6757   6760   6763   6764     1  0.0000000  0.6508444  3
   6757   6760   6763   6765     1  0.0000000  0.6508444  3
   6758   6757   6760   6763     1  0.0000000  0.6508444  3
   6758   6757   6760   6761     1  0.0000000  0.6508444  3
   6758   6757   6760   6762     1  0.0000000  0.6508444  3
   6759   6757   6760   6763     1  0.0000000  0.6508444  3
   6759   6757   6760   6761     1  0.0000000  0.6508444  3
   6759   6757   6760   6762     1  0.0000000  0.6508444  3
   6761   6760   6763   6766     1  0.0000000  0.6508444  3
   6761   6760   6763   6764     1  0.0000000  0.6508444  3
   6761   6760   6763   6765     1  0.0000000  0.6508444  3
   6761   6760   6757   6785     1  0.0000000  1.0460000  1
   6761   6760   6757   6785     1  0.0000000  0.0000000  3
   6762   6760   6763   6766     1  0.0000000  0.6508444  3
   6762   6760   6763   6764     1  0.0000000  0.6508444  3
   6762   6760   6763   6765     1  0.0000000  0.6508444  3
   6762   6760   6757   6785     1  0.0000000  1.0460000  1
   6762   6760   6757   6785     1  0.0000000  0.0000000  3
   6763   6766   6767   6768     1  0.0000000  1.2552000  3
   6763   6766   6767   6769     1  0.0000000  1.2552000  3
   6763   6766   6776   6777     1  0.0000000  1.2552000  3
   6763   6766   6776   6778     1  0.0000000  1.2552000  3
   6764   6763   6766   6767     1  0.0000000  1.2552000  3
   6764   6763   6766   6776     1  0.0000000  1.2552000  3
   6765   6763   6766   6767     1  0.0000000  1.2552000  3
   6765   6763   6766   6776     1  0.0000000  1.2552000  3
   6766   6767   6770   6771     1  0.0000000  0.6508444  3
   6766   6767   6770   6772     1  0.0000000  0.6508444  3
   6766   6776   6779   6780     1  0.0000000  0.6508444  3
   6766   6776   6779   6781     1  0.0000000  0.6508444  3
   6767   6766   6776   6777     1  0.0000000  1.2552000  3
   6767   6766   6776   6778     1  0.0000000  1.2552000  3
   6768   6767   6770   6773     1  0.0000000  0.6508444  3
   6768   6767   6770   6771     1  0.0000000  0.6508444  3
   6768   6767   6770   6772     1  0.0000000  0.6508444  3
   6768   6767   6766   6776     1  0.0000000  1.2552000  3
   6769   6767   6770   6773     1  0.0000000  0.6508444  3
   6769   6767   6770   6771     1  0.0000000  0.6508444  3
   6769   6767   6770   6772     1  0.0000000  0.6508444  3
   6769   6767   6766   6776     1  0.0000000  1.2552000  3
   6771   6770   6773   6774     1  0.0000000  3.3472000  1
   6771   6770   6773   6774     1  0.0000000  0.0000000  2
   6771   6770   6773   6774     1  180.0000771  0.3347200  3
   6771   6770   6773   6775     1  0.0000000  3.3472000  1
   6771   6770   6773   6775     1  0.0000000  0.0000000  2
   6771   6770   6773   6775     1  180.0000771  0.3347200  3
   6772   6770   6773   6774     1  0.0000000  3.3472000  1
   6772   6770   6773   6774     1  0.0000000  0.0000000  2
   6772   6770   6773   6774     1  180.0000771  0.3347200  3
   6772   6770   6773   6775     1  0.0000000  3.3472000  1
   6772   6770   6773   6775     1  0.0000000  0.0000000  2
   6772   6770   6773   6775     1  180.0000771  0.3347200  3
   6777   6776   6779   6782     1  0.0000000  0.6508444  3
   6777   6776   6779   6780     1  0.0000000  0.6508444  3
   6777   6776   6779   6781     1  0.0000000  0.6508444  3
   6778   6776   6779   6782     1  0.0000000  0.6508444  3
   6778   6776   6779   6780     1  0.0000000  0.6508444  3
   6778   6776   6779   6781     1  0.0000000  0.6508444  3
   6780   6779   6782   6783     1  0.0000000  3.3472000  1
   6780   6779   6782   6783     1  0.0000000  0.0000000  2
   6780   6779   6782   6783     1  180.0000771  0.3347200  3
   6780   6779   6782   6784     1  0.0000000  3.3472000  1
   6780   6779   6782   6784     1  0.0000000  0.0000000  2
   6780   6779   6782   6784     1  180.0000771  0.3347200  3
   6781   6779   6782   6783     1  0.0000000  3.3472000  1
   6781   6779   6782   6783     1  0.0000000  0.0000000  2
   6781   6779   6782   6783     1  180.0000771  0.3347200  3
   6781   6779   6782   6784     1  0.0000000  3.3472000  1
   6781   6779   6782   6784     1  0.0000000  0.0000000  2
   6781   6779   6782   6784     1  180.0000771  0.3347200  3
   6786   6789   6792   6793     1  0.0000000  0.6508444  3
   6786   6789   6792   6794     1  0.0000000  0.6508444  3
   6787   6786   6789   6792     1  0.0000000  0.6508444  3
   6787   6786   6789   6790     1  0.0000000  0.6508444  3
   6787   6786   6789   6791     1  0.0000000  0.6508444  3
   6788   6786   6789   6792     1  0.0000000  0.6508444  3
   6788   6786   6789   6790     1  0.0000000  0.6508444  3
   6788   6786   6789   6791     1  0.0000000  0.6508444  3
   6790   6789   6786   6814     1  0.0000000  1.0460000  1
   6790   6789   6786   6814     1  0.0000000  0.0000000  3
   6790   6789   6792   6795     1  0.0000000  0.6508444  3
   6790   6789   6792   6793     1  0.0000000  0.6508444  3
   6790   6789   6792   6794     1  0.0000000  0.6508444  3
   6791   6789   6786   6814     1  0.0000000  1.0460000  1
   6791   6789   6786   6814     1  0.0000000  0.0000000  3
   6791   6789   6792   6795     1  0.0000000  0.6508444  3
   6791   6789   6792   6793     1  0.0000000  0.6508444  3
   6791   6789   6792   6794     1  0.0000000  0.6508444  3
   6792   6795   6796   6797     1  0.0000000  1.2552000  3
   6792   6795   6796   6798     1  0.0000000  1.2552000  3
   6792   6795   6805   6806     1  0.0000000  1.2552000  3
   6792   6795   6805   6807     1  0.0000000  1.2552000  3
   6793   6792   6795   6796     1  0.0000000  1.2552000  3
   6793   6792   6795   6805     1  0.0000000  1.2552000  3
   6794   6792   6795   6796     1  0.0000000  1.2552000  3
   6794   6792   6795   6805     1  0.0000000  1.2552000  3
   6795   6796   6799   6800     1  0.0000000  0.6508444  3
   6795   6796   6799   6801     1  0.0000000  0.6508444  3
   6795   6805   6808   6809     1  0.0000000  0.6508444  3
   6795   6805   6808   6810     1  0.0000000  0.6508444  3
   6796   6795   6805   6806     1  0.0000000  1.2552000  3
   6796   6795   6805   6807     1  0.0000000  1.2552000  3
   6797   6796   6795   6805     1  0.0000000  1.2552000  3
   6797   6796   6799   6802     1  0.0000000  0.6508444  3
   6797   6796   6799   6800     1  0.0000000  0.6508444  3
   6797   6796   6799   6801     1  0.0000000  0.6508444  3
   6798   6796   6795   6805     1  0.0000000  1.2552000  3
   6798   6796   6799   6802     1  0.0000000  0.6508444  3
   6798   6796   6799   6800     1  0.0000000  0.6508444  3
   6798   6796   6799   6801     1  0.0000000  0.6508444  3
   6800   6799   6802   6803     1  0.0000000  3.3472000  1
   6800   6799   6802   6803     1  0.0000000  0.0000000  2
   6800   6799   6802   6803     1  180.0000771  0.3347200  3
   6800   6799   6802   6804     1  0.0000000  3.3472000  1
   6800   6799   6802   6804     1  0.0000000  0.0000000  2
   6800   6799   6802   6804     1  180.0000771  0.3347200  3
   6801   6799   6802   6803     1  0.0000000  3.3472000  1
   6801   6799   6802   6803     1  0.0000000  0.0000000  2
   6801   6799   6802   6803     1  180.0000771  0.3347200  3
   6801   6799   6802   6804     1  0.0000000  3.3472000  1
   6801   6799   6802   6804     1  0.0000000  0.0000000  2
   6801   6799   6802   6804     1  180.0000771  0.3347200  3
   6806   6805   6808   6811     1  0.0000000  0.6508444  3
   6806   6805   6808   6809     1  0.0000000  0.6508444  3
   6806   6805   6808   6810     1  0.0000000  0.6508444  3
   6807   6805   6808   6811     1  0.0000000  0.6508444  3
   6807   6805   6808   6809     1  0.0000000  0.6508444  3
   6807   6805   6808   6810     1  0.0000000  0.6508444  3
   6809   6808   6811   6812     1  0.0000000  3.3472000  1
   6809   6808   6811   6812     1  0.0000000  0.0000000  2
   6809   6808   6811   6812     1  180.0000771  0.3347200  3
   6809   6808   6811   6813     1  0.0000000  3.3472000  1
   6809   6808   6811   6813     1  0.0000000  0.0000000  2
   6809   6808   6811   6813     1  180.0000771  0.3347200  3
   6810   6808   6811   6812     1  0.0000000  3.3472000  1
   6810   6808   6811   6812     1  0.0000000  0.0000000  2
   6810   6808   6811   6812     1  180.0000771  0.3347200  3
   6810   6808   6811   6813     1  0.0000000  3.3472000  1
   6810   6808   6811   6813     1  0.0000000  0.0000000  2
   6810   6808   6811   6813     1  180.0000771  0.3347200  3
   6815   6818   6821   6822     1  0.0000000  0.6508444  3
   6815   6818   6821   6823     1  0.0000000  0.6508444  3
   6816   6815   6818   6821     1  0.0000000  0.6508444  3
   6816   6815   6818   6819     1  0.0000000  0.6508444  3
   6816   6815   6818   6820     1  0.0000000  0.6508444  3
   6817   6815   6818   6821     1  0.0000000  0.6508444  3
   6817   6815   6818   6819     1  0.0000000  0.6508444  3
   6817   6815   6818   6820     1  0.0000000  0.6508444  3
   6819   6818   6821   6824     1  0.0000000  0.6508444  3
   6819   6818   6821   6822     1  0.0000000  0.6508444  3
   6819   6818   6821   6823     1  0.0000000  0.6508444  3
   6819   6818   6815   6843     1  0.0000000  1.0460000  1
   6819   6818   6815   6843     1  0.0000000  0.0000000  3
   6820   6818   6821   6824     1  0.0000000  0.6508444  3
   6820   6818   6821   6822     1  0.0000000  0.6508444  3
   6820   6818   6821   6823     1  0.0000000  0.6508444  3
   6820   6818   6815   6843     1  0.0000000  1.0460000  1
   6820   6818   6815   6843     1  0.0000000  0.0000000  3
   6821   6824   6825   6826     1  0.0000000  1.2552000  3
   6821   6824   6825   6827     1  0.0000000  1.2552000  3
   6821   6824   6834   6835     1  0.0000000  1.2552000  3
   6821   6824   6834   6836     1  0.0000000  1.2552000  3
   6822   6821   6824   6825     1  0.0000000  1.2552000  3
   6822   6821   6824   6834     1  0.0000000  1.2552000  3
   6823   6821   6824   6825     1  0.0000000  1.2552000  3
   6823   6821   6824   6834     1  0.0000000  1.2552000  3
   6824   6825   6828   6829     1  0.0000000  0.6508444  3
   6824   6825   6828   6830     1  0.0000000  0.6508444  3
   6824   6834   6837   6838     1  0.0000000  0.6508444  3
   6824   6834   6837   6839     1  0.0000000  0.6508444  3
   6825   6824   6834   6835     1  0.0000000  1.2552000  3
   6825   6824   6834   6836     1  0.0000000  1.2552000  3
   6826   6825   6828   6831     1  0.0000000  0.6508444  3
   6826   6825   6828   6829     1  0.0000000  0.6508444  3
   6826   6825   6828   6830     1  0.0000000  0.6508444  3
   6826   6825   6824   6834     1  0.0000000  1.2552000  3
   6827   6825   6828   6831     1  0.0000000  0.6508444  3
   6827   6825   6828   6829     1  0.0000000  0.6508444  3
   6827   6825   6828   6830     1  0.0000000  0.6508444  3
   6827   6825   6824   6834     1  0.0000000  1.2552000  3
   6829   6828   6831   6832     1  0.0000000  3.3472000  1
   6829   6828   6831   6832     1  0.0000000  0.0000000  2
   6829   6828   6831   6832     1  180.0000771  0.3347200  3
   6829   6828   6831   6833     1  0.0000000  3.3472000  1
   6829   6828   6831   6833     1  0.0000000  0.0000000  2
   6829   6828   6831   6833     1  180.0000771  0.3347200  3
   6830   6828   6831   6832     1  0.0000000  3.3472000  1
   6830   6828   6831   6832     1  0.0000000  0.0000000  2
   6830   6828   6831   6832     1  180.0000771  0.3347200  3
   6830   6828   6831   6833     1  0.0000000  3.3472000  1
   6830   6828   6831   6833     1  0.0000000  0.0000000  2
   6830   6828   6831   6833     1  180.0000771  0.3347200  3
   6835   6834   6837   6840     1  0.0000000  0.6508444  3
   6835   6834   6837   6838     1  0.0000000  0.6508444  3
   6835   6834   6837   6839     1  0.0000000  0.6508444  3
   6836   6834   6837   6840     1  0.0000000  0.6508444  3
   6836   6834   6837   6838     1  0.0000000  0.6508444  3
   6836   6834   6837   6839     1  0.0000000  0.6508444  3
   6838   6837   6840   6841     1  0.0000000  3.3472000  1
   6838   6837   6840   6841     1  0.0000000  0.0000000  2
   6838   6837   6840   6841     1  180.0000771  0.3347200  3
   6838   6837   6840   6842     1  0.0000000  3.3472000  1
   6838   6837   6840   6842     1  0.0000000  0.0000000  2
   6838   6837   6840   6842     1  180.0000771  0.3347200  3
   6839   6837   6840   6841     1  0.0000000  3.3472000  1
   6839   6837   6840   6841     1  0.0000000  0.0000000  2
   6839   6837   6840   6841     1  180.0000771  0.3347200  3
   6839   6837   6840   6842     1  0.0000000  3.3472000  1
   6839   6837   6840   6842     1  0.0000000  0.0000000  2
   6839   6837   6840   6842     1  180.0000771  0.3347200  3
   6844   6847   6850   6851     1  0.0000000  0.6508444  3
   6844   6847   6850   6852     1  0.0000000  0.6508444  3
   6845   6844   6847   6850     1  0.0000000  0.6508444  3
   6845   6844   6847   6848     1  0.0000000  0.6508444  3
   6845   6844   6847   6849     1  0.0000000  0.6508444  3
   6846   6844   6847   6850     1  0.0000000  0.6508444  3
   6846   6844   6847   6848     1  0.0000000  0.6508444  3
   6846   6844   6847   6849     1  0.0000000  0.6508444  3
   6848   6847   6844   6872     1  0.0000000  1.0460000  1
   6848   6847   6844   6872     1  0.0000000  0.0000000  3
   6848   6847   6850   6853     1  0.0000000  0.6508444  3
   6848   6847   6850   6851     1  0.0000000  0.6508444  3
   6848   6847   6850   6852     1  0.0000000  0.6508444  3
   6849   6847   6844   6872     1  0.0000000  1.0460000  1
   6849   6847   6844   6872     1  0.0000000  0.0000000  3
   6849   6847   6850   6853     1  0.0000000  0.6508444  3
   6849   6847   6850   6851     1  0.0000000  0.6508444  3
   6849   6847   6850   6852     1  0.0000000  0.6508444  3
   6850   6853   6854   6855     1  0.0000000  1.2552000  3
   6850   6853   6854   6856     1  0.0000000  1.2552000  3
   6850   6853   6863   6864     1  0.0000000  1.2552000  3
   6850   6853   6863   6865     1  0.0000000  1.2552000  3
   6851   6850   6853   6854     1  0.0000000  1.2552000  3
   6851   6850   6853   6863     1  0.0000000  1.2552000  3
   6852   6850   6853   6854     1  0.0000000  1.2552000  3
   6852   6850   6853   6863     1  0.0000000  1.2552000  3
   6853   6854   6857   6858     1  0.0000000  0.6508444  3
   6853   6854   6857   6859     1  0.0000000  0.6508444  3
   6853   6863   6866   6867     1  0.0000000  0.6508444  3
   6853   6863   6866   6868     1  0.0000000  0.6508444  3
   6854   6853   6863   6864     1  0.0000000  1.2552000  3
   6854   6853   6863   6865     1  0.0000000  1.2552000  3
   6855   6854   6853   6863     1  0.0000000  1.2552000  3
   6855   6854   6857   6860     1  0.0000000  0.6508444  3
   6855   6854   6857   6858     1  0.0000000  0.6508444  3
   6855   6854   6857   6859     1  0.0000000  0.6508444  3
   6856   6854   6853   6863     1  0.0000000  1.2552000  3
   6856   6854   6857   6860     1  0.0000000  0.6508444  3
   6856   6854   6857   6858     1  0.0000000  0.6508444  3
   6856   6854   6857   6859     1  0.0000000  0.6508444  3
   6858   6857   6860   6861     1  0.0000000  3.3472000  1
   6858   6857   6860   6861     1  0.0000000  0.0000000  2
   6858   6857   6860   6861     1  180.0000771  0.3347200  3
   6858   6857   6860   6862     1  0.0000000  3.3472000  1
   6858   6857   6860   6862     1  0.0000000  0.0000000  2
   6858   6857   6860   6862     1  180.0000771  0.3347200  3
   6859   6857   6860   6861     1  0.0000000  3.3472000  1
   6859   6857   6860   6861     1  0.0000000  0.0000000  2
   6859   6857   6860   6861     1  180.0000771  0.3347200  3
   6859   6857   6860   6862     1  0.0000000  3.3472000  1
   6859   6857   6860   6862     1  0.0000000  0.0000000  2
   6859   6857   6860   6862     1  180.0000771  0.3347200  3
   6864   6863   6866   6869     1  0.0000000  0.6508444  3
   6864   6863   6866   6867     1  0.0000000  0.6508444  3
   6864   6863   6866   6868     1  0.0000000  0.6508444  3
   6865   6863   6866   6869     1  0.0000000  0.6508444  3
   6865   6863   6866   6867     1  0.0000000  0.6508444  3
   6865   6863   6866   6868     1  0.0000000  0.6508444  3
   6867   6866   6869   6870     1  0.0000000  3.3472000  1
   6867   6866   6869   6870     1  0.0000000  0.0000000  2
   6867   6866   6869   6870     1  180.0000771  0.3347200  3
   6867   6866   6869   6871     1  0.0000000  3.3472000  1
   6867   6866   6869   6871     1  0.0000000  0.0000000  2
   6867   6866   6869   6871     1  180.0000771  0.3347200  3
   6868   6866   6869   6870     1  0.0000000  3.3472000  1
   6868   6866   6869   6870     1  0.0000000  0.0000000  2
   6868   6866   6869   6870     1  180.0000771  0.3347200  3
   6868   6866   6869   6871     1  0.0000000  3.3472000  1
   6868   6866   6869   6871     1  0.0000000  0.0000000  2
   6868   6866   6869   6871     1  180.0000771  0.3347200  3
   6873   6876   6879   6880     1  0.0000000  0.6508444  3
   6873   6876   6879   6881     1  0.0000000  0.6508444  3
   6874   6873   6876   6879     1  0.0000000  0.6508444  3
   6874   6873   6876   6877     1  0.0000000  0.6508444  3
   6874   6873   6876   6878     1  0.0000000  0.6508444  3
   6875   6873   6876   6879     1  0.0000000  0.6508444  3
   6875   6873   6876   6877     1  0.0000000  0.6508444  3
   6875   6873   6876   6878     1  0.0000000  0.6508444  3
   6877   6876   6879   6882     1  0.0000000  0.6508444  3
   6877   6876   6879   6880     1  0.0000000  0.6508444  3
   6877   6876   6879   6881     1  0.0000000  0.6508444  3
   6877   6876   6873   6901     1  0.0000000  1.0460000  1
   6877   6876   6873   6901     1  0.0000000  0.0000000  3
   6878   6876   6879   6882     1  0.0000000  0.6508444  3
   6878   6876   6879   6880     1  0.0000000  0.6508444  3
   6878   6876   6879   6881     1  0.0000000  0.6508444  3
   6878   6876   6873   6901     1  0.0000000  1.0460000  1
   6878   6876   6873   6901     1  0.0000000  0.0000000  3
   6879   6882   6883   6884     1  0.0000000  1.2552000  3
   6879   6882   6883   6885     1  0.0000000  1.2552000  3
   6879   6882   6892   6893     1  0.0000000  1.2552000  3
   6879   6882   6892   6894     1  0.0000000  1.2552000  3
   6880   6879   6882   6883     1  0.0000000  1.2552000  3
   6880   6879   6882   6892     1  0.0000000  1.2552000  3
   6881   6879   6882   6883     1  0.0000000  1.2552000  3
   6881   6879   6882   6892     1  0.0000000  1.2552000  3
   6882   6883   6886   6887     1  0.0000000  0.6508444  3
   6882   6883   6886   6888     1  0.0000000  0.6508444  3
   6882   6892   6895   6896     1  0.0000000  0.6508444  3
   6882   6892   6895   6897     1  0.0000000  0.6508444  3
   6883   6882   6892   6893     1  0.0000000  1.2552000  3
   6883   6882   6892   6894     1  0.0000000  1.2552000  3
   6884   6883   6886   6889     1  0.0000000  0.6508444  3
   6884   6883   6886   6887     1  0.0000000  0.6508444  3
   6884   6883   6886   6888     1  0.0000000  0.6508444  3
   6884   6883   6882   6892     1  0.0000000  1.2552000  3
   6885   6883   6886   6889     1  0.0000000  0.6508444  3
   6885   6883   6886   6887     1  0.0000000  0.6508444  3
   6885   6883   6886   6888     1  0.0000000  0.6508444  3
   6885   6883   6882   6892     1  0.0000000  1.2552000  3
   6887   6886   6889   6890     1  0.0000000  3.3472000  1
   6887   6886   6889   6890     1  0.0000000  0.0000000  2
   6887   6886   6889   6890     1  180.0000771  0.3347200  3
   6887   6886   6889   6891     1  0.0000000  3.3472000  1
   6887   6886   6889   6891     1  0.0000000  0.0000000  2
   6887   6886   6889   6891     1  180.0000771  0.3347200  3
   6888   6886   6889   6890     1  0.0000000  3.3472000  1
   6888   6886   6889   6890     1  0.0000000  0.0000000  2
   6888   6886   6889   6890     1  180.0000771  0.3347200  3
   6888   6886   6889   6891     1  0.0000000  3.3472000  1
   6888   6886   6889   6891     1  0.0000000  0.0000000  2
   6888   6886   6889   6891     1  180.0000771  0.3347200  3
   6893   6892   6895   6898     1  0.0000000  0.6508444  3
   6893   6892   6895   6896     1  0.0000000  0.6508444  3
   6893   6892   6895   6897     1  0.0000000  0.6508444  3
   6894   6892   6895   6898     1  0.0000000  0.6508444  3
   6894   6892   6895   6896     1  0.0000000  0.6508444  3
   6894   6892   6895   6897     1  0.0000000  0.6508444  3
   6896   6895   6898   6899     1  0.0000000  3.3472000  1
   6896   6895   6898   6899     1  0.0000000  0.0000000  2
   6896   6895   6898   6899     1  180.0000771  0.3347200  3
   6896   6895   6898   6900     1  0.0000000  3.3472000  1
   6896   6895   6898   6900     1  0.0000000  0.0000000  2
   6896   6895   6898   6900     1  180.0000771  0.3347200  3
   6897   6895   6898   6899     1  0.0000000  3.3472000  1
   6897   6895   6898   6899     1  0.0000000  0.0000000  2
   6897   6895   6898   6899     1  180.0000771  0.3347200  3
   6897   6895   6898   6900     1  0.0000000  3.3472000  1
   6897   6895   6898   6900     1  0.0000000  0.0000000  2
   6897   6895   6898   6900     1  180.0000771  0.3347200  3
   6902   6905   6908   6909     1  0.0000000  0.6508444  3
   6902   6905   6908   6910     1  0.0000000  0.6508444  3
   6903   6902   6905   6908     1  0.0000000  0.6508444  3
   6903   6902   6905   6906     1  0.0000000  0.6508444  3
   6903   6902   6905   6907     1  0.0000000  0.6508444  3
   6904   6902   6905   6908     1  0.0000000  0.6508444  3
   6904   6902   6905   6906     1  0.0000000  0.6508444  3
   6904   6902   6905   6907     1  0.0000000  0.6508444  3
   6906   6905   6902   6930     1  0.0000000  1.0460000  1
   6906   6905   6902   6930     1  0.0000000  0.0000000  3
   6906   6905   6908   6911     1  0.0000000  0.6508444  3
   6906   6905   6908   6909     1  0.0000000  0.6508444  3
   6906   6905   6908   6910     1  0.0000000  0.6508444  3
   6907   6905   6902   6930     1  0.0000000  1.0460000  1
   6907   6905   6902   6930     1  0.0000000  0.0000000  3
   6907   6905   6908   6911     1  0.0000000  0.6508444  3
   6907   6905   6908   6909     1  0.0000000  0.6508444  3
   6907   6905   6908   6910     1  0.0000000  0.6508444  3
   6908   6911   6912   6913     1  0.0000000  1.2552000  3
   6908   6911   6912   6914     1  0.0000000  1.2552000  3
   6908   6911   6921   6922     1  0.0000000  1.2552000  3
   6908   6911   6921   6923     1  0.0000000  1.2552000  3
   6909   6908   6911   6912     1  0.0000000  1.2552000  3
   6909   6908   6911   6921     1  0.0000000  1.2552000  3
   6910   6908   6911   6912     1  0.0000000  1.2552000  3
   6910   6908   6911   6921     1  0.0000000  1.2552000  3
   6911   6912   6915   6916     1  0.0000000  0.6508444  3
   6911   6912   6915   6917     1  0.0000000  0.6508444  3
   6911   6921   6924   6925     1  0.0000000  0.6508444  3
   6911   6921   6924   6926     1  0.0000000  0.6508444  3
   6912   6911   6921   6922     1  0.0000000  1.2552000  3
   6912   6911   6921   6923     1  0.0000000  1.2552000  3
   6913   6912   6911   6921     1  0.0000000  1.2552000  3
   6913   6912   6915   6918     1  0.0000000  0.6508444  3
   6913   6912   6915   6916     1  0.0000000  0.6508444  3
   6913   6912   6915   6917     1  0.0000000  0.6508444  3
   6914   6912   6911   6921     1  0.0000000  1.2552000  3
   6914   6912   6915   6918     1  0.0000000  0.6508444  3
   6914   6912   6915   6916     1  0.0000000  0.6508444  3
   6914   6912   6915   6917     1  0.0000000  0.6508444  3
   6916   6915   6918   6919     1  0.0000000  3.3472000  1
   6916   6915   6918   6919     1  0.0000000  0.0000000  2
   6916   6915   6918   6919     1  180.0000771  0.3347200  3
   6916   6915   6918   6920     1  0.0000000  3.3472000  1
   6916   6915   6918   6920     1  0.0000000  0.0000000  2
   6916   6915   6918   6920     1  180.0000771  0.3347200  3
   6917   6915   6918   6919     1  0.0000000  3.3472000  1
   6917   6915   6918   6919     1  0.0000000  0.0000000  2
   6917   6915   6918   6919     1  180.0000771  0.3347200  3
   6917   6915   6918   6920     1  0.0000000  3.3472000  1
   6917   6915   6918   6920     1  0.0000000  0.0000000  2
   6917   6915   6918   6920     1  180.0000771  0.3347200  3
   6922   6921   6924   6927     1  0.0000000  0.6508444  3
   6922   6921   6924   6925     1  0.0000000  0.6508444  3
   6922   6921   6924   6926     1  0.0000000  0.6508444  3
   6923   6921   6924   6927     1  0.0000000  0.6508444  3
   6923   6921   6924   6925     1  0.0000000  0.6508444  3
   6923   6921   6924   6926     1  0.0000000  0.6508444  3
   6925   6924   6927   6928     1  0.0000000  3.3472000  1
   6925   6924   6927   6928     1  0.0000000  0.0000000  2
   6925   6924   6927   6928     1  180.0000771  0.3347200  3
   6925   6924   6927   6929     1  0.0000000  3.3472000  1
   6925   6924   6927   6929     1  0.0000000  0.0000000  2
   6925   6924   6927   6929     1  180.0000771  0.3347200  3
   6926   6924   6927   6928     1  0.0000000  3.3472000  1
   6926   6924   6927   6928     1  0.0000000  0.0000000  2
   6926   6924   6927   6928     1  180.0000771  0.3347200  3
   6926   6924   6927   6929     1  0.0000000  3.3472000  1
   6926   6924   6927   6929     1  0.0000000  0.0000000  2
   6926   6924   6927   6929     1  180.0000771  0.3347200  3
   6931   6934   6937   6938     1  0.0000000  0.6508444  3
   6931   6934   6937   6939     1  0.0000000  0.6508444  3
   6932   6931   6934   6937     1  0.0000000  0.6508444  3
   6932   6931   6934   6935     1  0.0000000  0.6508444  3
   6932   6931   6934   6936     1  0.0000000  0.6508444  3
   6933   6931   6934   6937     1  0.0000000  0.6508444  3
   6933   6931   6934   6935     1  0.0000000  0.6508444  3
   6933   6931   6934   6936     1  0.0000000  0.6508444  3
   6935   6934   6937   6940     1  0.0000000  0.6508444  3
   6935   6934   6937   6938     1  0.0000000  0.6508444  3
   6935   6934   6937   6939     1  0.0000000  0.6508444  3
   6935   6934   6931   6959     1  0.0000000  1.0460000  1
   6935   6934   6931   6959     1  0.0000000  0.0000000  3
   6936   6934   6937   6940     1  0.0000000  0.6508444  3
   6936   6934   6937   6938     1  0.0000000  0.6508444  3
   6936   6934   6937   6939     1  0.0000000  0.6508444  3
   6936   6934   6931   6959     1  0.0000000  1.0460000  1
   6936   6934   6931   6959     1  0.0000000  0.0000000  3
   6937   6940   6941   6942     1  0.0000000  1.2552000  3
   6937   6940   6941   6943     1  0.0000000  1.2552000  3
   6937   6940   6950   6951     1  0.0000000  1.2552000  3
   6937   6940   6950   6952     1  0.0000000  1.2552000  3
   6938   6937   6940   6941     1  0.0000000  1.2552000  3
   6938   6937   6940   6950     1  0.0000000  1.2552000  3
   6939   6937   6940   6941     1  0.0000000  1.2552000  3
   6939   6937   6940   6950     1  0.0000000  1.2552000  3
   6940   6941   6944   6945     1  0.0000000  0.6508444  3
   6940   6941   6944   6946     1  0.0000000  0.6508444  3
   6940   6950   6953   6954     1  0.0000000  0.6508444  3
   6940   6950   6953   6955     1  0.0000000  0.6508444  3
   6941   6940   6950   6951     1  0.0000000  1.2552000  3
   6941   6940   6950   6952     1  0.0000000  1.2552000  3
   6942   6941   6944   6947     1  0.0000000  0.6508444  3
   6942   6941   6944   6945     1  0.0000000  0.6508444  3
   6942   6941   6944   6946     1  0.0000000  0.6508444  3
   6942   6941   6940   6950     1  0.0000000  1.2552000  3
   6943   6941   6944   6947     1  0.0000000  0.6508444  3
   6943   6941   6944   6945     1  0.0000000  0.6508444  3
   6943   6941   6944   6946     1  0.0000000  0.6508444  3
   6943   6941   6940   6950     1  0.0000000  1.2552000  3
   6945   6944   6947   6948     1  0.0000000  3.3472000  1
   6945   6944   6947   6948     1  0.0000000  0.0000000  2
   6945   6944   6947   6948     1  180.0000771  0.3347200  3
   6945   6944   6947   6949     1  0.0000000  3.3472000  1
   6945   6944   6947   6949     1  0.0000000  0.0000000  2
   6945   6944   6947   6949     1  180.0000771  0.3347200  3
   6946   6944   6947   6948     1  0.0000000  3.3472000  1
   6946   6944   6947   6948     1  0.0000000  0.0000000  2
   6946   6944   6947   6948     1  180.0000771  0.3347200  3
   6946   6944   6947   6949     1  0.0000000  3.3472000  1
   6946   6944   6947   6949     1  0.0000000  0.0000000  2
   6946   6944   6947   6949     1  180.0000771  0.3347200  3
   6951   6950   6953   6956     1  0.0000000  0.6508444  3
   6951   6950   6953   6954     1  0.0000000  0.6508444  3
   6951   6950   6953   6955     1  0.0000000  0.6508444  3
   6952   6950   6953   6956     1  0.0000000  0.6508444  3
   6952   6950   6953   6954     1  0.0000000  0.6508444  3
   6952   6950   6953   6955     1  0.0000000  0.6508444  3
   6954   6953   6956   6957     1  0.0000000  3.3472000  1
   6954   6953   6956   6957     1  0.0000000  0.0000000  2
   6954   6953   6956   6957     1  180.0000771  0.3347200  3
   6954   6953   6956   6958     1  0.0000000  3.3472000  1
   6954   6953   6956   6958     1  0.0000000  0.0000000  2
   6954   6953   6956   6958     1  180.0000771  0.3347200  3
   6955   6953   6956   6957     1  0.0000000  3.3472000  1
   6955   6953   6956   6957     1  0.0000000  0.0000000  2
   6955   6953   6956   6957     1  180.0000771  0.3347200  3
   6955   6953   6956   6958     1  0.0000000  3.3472000  1
   6955   6953   6956   6958     1  0.0000000  0.0000000  2
   6955   6953   6956   6958     1  180.0000771  0.3347200  3
   6960   6963   6966   6967     1  0.0000000  0.6508444  3
   6960   6963   6966   6968     1  0.0000000  0.6508444  3
   6961   6960   6963   6966     1  0.0000000  0.6508444  3
   6961   6960   6963   6964     1  0.0000000  0.6508444  3
   6961   6960   6963   6965     1  0.0000000  0.6508444  3
   6962   6960   6963   6966     1  0.0000000  0.6508444  3
   6962   6960   6963   6964     1  0.0000000  0.6508444  3
   6962   6960   6963   6965     1  0.0000000  0.6508444  3
   6964   6963   6960   6988     1  0.0000000  1.0460000  1
   6964   6963   6960   6988     1  0.0000000  0.0000000  3
   6964   6963   6966   6969     1  0.0000000  0.6508444  3
   6964   6963   6966   6967     1  0.0000000  0.6508444  3
   6964   6963   6966   6968     1  0.0000000  0.6508444  3
   6965   6963   6960   6988     1  0.0000000  1.0460000  1
   6965   6963   6960   6988     1  0.0000000  0.0000000  3
   6965   6963   6966   6969     1  0.0000000  0.6508444  3
   6965   6963   6966   6967     1  0.0000000  0.6508444  3
   6965   6963   6966   6968     1  0.0000000  0.6508444  3
   6966   6969   6970   6971     1  0.0000000  1.2552000  3
   6966   6969   6970   6972     1  0.0000000  1.2552000  3
   6966   6969   6979   6980     1  0.0000000  1.2552000  3
   6966   6969   6979   6981     1  0.0000000  1.2552000  3
   6967   6966   6969   6970     1  0.0000000  1.2552000  3
   6967   6966   6969   6979     1  0.0000000  1.2552000  3
   6968   6966   6969   6970     1  0.0000000  1.2552000  3
   6968   6966   6969   6979     1  0.0000000  1.2552000  3
   6969   6970   6973   6974     1  0.0000000  0.6508444  3
   6969   6970   6973   6975     1  0.0000000  0.6508444  3
   6969   6979   6982   6983     1  0.0000000  0.6508444  3
   6969   6979   6982   6984     1  0.0000000  0.6508444  3
   6970   6969   6979   6980     1  0.0000000  1.2552000  3
   6970   6969   6979   6981     1  0.0000000  1.2552000  3
   6971   6970   6969   6979     1  0.0000000  1.2552000  3
   6971   6970   6973   6976     1  0.0000000  0.6508444  3
   6971   6970   6973   6974     1  0.0000000  0.6508444  3
   6971   6970   6973   6975     1  0.0000000  0.6508444  3
   6972   6970   6969   6979     1  0.0000000  1.2552000  3
   6972   6970   6973   6976     1  0.0000000  0.6508444  3
   6972   6970   6973   6974     1  0.0000000  0.6508444  3
   6972   6970   6973   6975     1  0.0000000  0.6508444  3
   6974   6973   6976   6977     1  0.0000000  3.3472000  1
   6974   6973   6976   6977     1  0.0000000  0.0000000  2
   6974   6973   6976   6977     1  180.0000771  0.3347200  3
   6974   6973   6976   6978     1  0.0000000  3.3472000  1
   6974   6973   6976   6978     1  0.0000000  0.0000000  2
   6974   6973   6976   6978     1  180.0000771  0.3347200  3
   6975   6973   6976   6977     1  0.0000000  3.3472000  1
   6975   6973   6976   6977     1  0.0000000  0.0000000  2
   6975   6973   6976   6977     1  180.0000771  0.3347200  3
   6975   6973   6976   6978     1  0.0000000  3.3472000  1
   6975   6973   6976   6978     1  0.0000000  0.0000000  2
   6975   6973   6976   6978     1  180.0000771  0.3347200  3
   6980   6979   6982   6985     1  0.0000000  0.6508444  3
   6980   6979   6982   6983     1  0.0000000  0.6508444  3
   6980   6979   6982   6984     1  0.0000000  0.6508444  3
   6981   6979   6982   6985     1  0.0000000  0.6508444  3
   6981   6979   6982   6983     1  0.0000000  0.6508444  3
   6981   6979   6982   6984     1  0.0000000  0.6508444  3
   6983   6982   6985   6986     1  0.0000000  3.3472000  1
   6983   6982   6985   6986     1  0.0000000  0.0000000  2
   6983   6982   6985   6986     1  180.0000771  0.3347200  3
   6983   6982   6985   6987     1  0.0000000  3.3472000  1
   6983   6982   6985   6987     1  0.0000000  0.0000000  2
   6983   6982   6985   6987     1  180.0000771  0.3347200  3
   6984   6982   6985   6986     1  0.0000000  3.3472000  1
   6984   6982   6985   6986     1  0.0000000  0.0000000  2
   6984   6982   6985   6986     1  180.0000771  0.3347200  3
   6984   6982   6985   6987     1  0.0000000  3.3472000  1
   6984   6982   6985   6987     1  0.0000000  0.0000000  2
   6984   6982   6985   6987     1  180.0000771  0.3347200  3
   6989   6992   6995   6996     1  0.0000000  0.6508444  3
   6989   6992   6995   6997     1  0.0000000  0.6508444  3
   6990   6989   6992   6995     1  0.0000000  0.6508444  3
   6990   6989   6992   6993     1  0.0000000  0.6508444  3
   6990   6989   6992   6994     1  0.0000000  0.6508444  3
   6991   6989   6992   6995     1  0.0000000  0.6508444  3
   6991   6989   6992   6993     1  0.0000000  0.6508444  3
   6991   6989   6992   6994     1  0.0000000  0.6508444  3
   6993   6992   6995   6998     1  0.0000000  0.6508444  3
   6993   6992   6995   6996     1  0.0000000  0.6508444  3
   6993   6992   6995   6997     1  0.0000000  0.6508444  3
   6993   6992   6989   7017     1  0.0000000  1.0460000  1
   6993   6992   6989   7017     1  0.0000000  0.0000000  3
   6994   6992   6995   6998     1  0.0000000  0.6508444  3
   6994   6992   6995   6996     1  0.0000000  0.6508444  3
   6994   6992   6995   6997     1  0.0000000  0.6508444  3
   6994   6992   6989   7017     1  0.0000000  1.0460000  1
   6994   6992   6989   7017     1  0.0000000  0.0000000  3
   6995   6998   6999   7000     1  0.0000000  1.2552000  3
   6995   6998   6999   7001     1  0.0000000  1.2552000  3
   6995   6998   7008   7009     1  0.0000000  1.2552000  3
   6995   6998   7008   7010     1  0.0000000  1.2552000  3
   6996   6995   6998   6999     1  0.0000000  1.2552000  3
   6996   6995   6998   7008     1  0.0000000  1.2552000  3
   6997   6995   6998   6999     1  0.0000000  1.2552000  3
   6997   6995   6998   7008     1  0.0000000  1.2552000  3
   6998   6999   7002   7003     1  0.0000000  0.6508444  3
   6998   6999   7002   7004     1  0.0000000  0.6508444  3
   6998   7008   7011   7012     1  0.0000000  0.6508444  3
   6998   7008   7011   7013     1  0.0000000  0.6508444  3
   6999   6998   7008   7009     1  0.0000000  1.2552000  3
   6999   6998   7008   7010     1  0.0000000  1.2552000  3
   7000   6999   7002   7005     1  0.0000000  0.6508444  3
   7000   6999   7002   7003     1  0.0000000  0.6508444  3
   7000   6999   7002   7004     1  0.0000000  0.6508444  3
   7000   6999   6998   7008     1  0.0000000  1.2552000  3
   7001   6999   7002   7005     1  0.0000000  0.6508444  3
   7001   6999   7002   7003     1  0.0000000  0.6508444  3
   7001   6999   7002   7004     1  0.0000000  0.6508444  3
   7001   6999   6998   7008     1  0.0000000  1.2552000  3
   7003   7002   7005   7006     1  0.0000000  3.3472000  1
   7003   7002   7005   7006     1  0.0000000  0.0000000  2
   7003   7002   7005   7006     1  180.0000771  0.3347200  3
   7003   7002   7005   7007     1  0.0000000  3.3472000  1
   7003   7002   7005   7007     1  0.0000000  0.0000000  2
   7003   7002   7005   7007     1  180.0000771  0.3347200  3
   7004   7002   7005   7006     1  0.0000000  3.3472000  1
   7004   7002   7005   7006     1  0.0000000  0.0000000  2
   7004   7002   7005   7006     1  180.0000771  0.3347200  3
   7004   7002   7005   7007     1  0.0000000  3.3472000  1
   7004   7002   7005   7007     1  0.0000000  0.0000000  2
   7004   7002   7005   7007     1  180.0000771  0.3347200  3
   7009   7008   7011   7014     1  0.0000000  0.6508444  3
   7009   7008   7011   7012     1  0.0000000  0.6508444  3
   7009   7008   7011   7013     1  0.0000000  0.6508444  3
   7010   7008   7011   7014     1  0.0000000  0.6508444  3
   7010   7008   7011   7012     1  0.0000000  0.6508444  3
   7010   7008   7011   7013     1  0.0000000  0.6508444  3
   7012   7011   7014   7015     1  0.0000000  3.3472000  1
   7012   7011   7014   7015     1  0.0000000  0.0000000  2
   7012   7011   7014   7015     1  180.0000771  0.3347200  3
   7012   7011   7014   7016     1  0.0000000  3.3472000  1
   7012   7011   7014   7016     1  0.0000000  0.0000000  2
   7012   7011   7014   7016     1  180.0000771  0.3347200  3
   7013   7011   7014   7015     1  0.0000000  3.3472000  1
   7013   7011   7014   7015     1  0.0000000  0.0000000  2
   7013   7011   7014   7015     1  180.0000771  0.3347200  3
   7013   7011   7014   7016     1  0.0000000  3.3472000  1
   7013   7011   7014   7016     1  0.0000000  0.0000000  2
   7013   7011   7014   7016     1  180.0000771  0.3347200  3
   7018   7021   7024   7025     1  0.0000000  0.6508444  3
   7018   7021   7024   7026     1  0.0000000  0.6508444  3
   7019   7018   7021   7024     1  0.0000000  0.6508444  3
   7019   7018   7021   7022     1  0.0000000  0.6508444  3
   7019   7018   7021   7023     1  0.0000000  0.6508444  3
   7020   7018   7021   7024     1  0.0000000  0.6508444  3
   7020   7018   7021   7022     1  0.0000000  0.6508444  3
   7020   7018   7021   7023     1  0.0000000  0.6508444  3
   7022   7021   7018   7046     1  0.0000000  1.0460000  1
   7022   7021   7018   7046     1  0.0000000  0.0000000  3
   7022   7021   7024   7027     1  0.0000000  0.6508444  3
   7022   7021   7024   7025     1  0.0000000  0.6508444  3
   7022   7021   7024   7026     1  0.0000000  0.6508444  3
   7023   7021   7018   7046     1  0.0000000  1.0460000  1
   7023   7021   7018   7046     1  0.0000000  0.0000000  3
   7023   7021   7024   7027     1  0.0000000  0.6508444  3
   7023   7021   7024   7025     1  0.0000000  0.6508444  3
   7023   7021   7024   7026     1  0.0000000  0.6508444  3
   7024   7027   7028   7029     1  0.0000000  1.2552000  3
   7024   7027   7028   7030     1  0.0000000  1.2552000  3
   7024   7027   7037   7038     1  0.0000000  1.2552000  3
   7024   7027   7037   7039     1  0.0000000  1.2552000  3
   7025   7024   7027   7028     1  0.0000000  1.2552000  3
   7025   7024   7027   7037     1  0.0000000  1.2552000  3
   7026   7024   7027   7028     1  0.0000000  1.2552000  3
   7026   7024   7027   7037     1  0.0000000  1.2552000  3
   7027   7028   7031   7032     1  0.0000000  0.6508444  3
   7027   7028   7031   7033     1  0.0000000  0.6508444  3
   7027   7037   7040   7041     1  0.0000000  0.6508444  3
   7027   7037   7040   7042     1  0.0000000  0.6508444  3
   7028   7027   7037   7038     1  0.0000000  1.2552000  3
   7028   7027   7037   7039     1  0.0000000  1.2552000  3
   7029   7028   7027   7037     1  0.0000000  1.2552000  3
   7029   7028   7031   7034     1  0.0000000  0.6508444  3
   7029   7028   7031   7032     1  0.0000000  0.6508444  3
   7029   7028   7031   7033     1  0.0000000  0.6508444  3
   7030   7028   7027   7037     1  0.0000000  1.2552000  3
   7030   7028   7031   7034     1  0.0000000  0.6508444  3
   7030   7028   7031   7032     1  0.0000000  0.6508444  3
   7030   7028   7031   7033     1  0.0000000  0.6508444  3
   7032   7031   7034   7035     1  0.0000000  3.3472000  1
   7032   7031   7034   7035     1  0.0000000  0.0000000  2
   7032   7031   7034   7035     1  180.0000771  0.3347200  3
   7032   7031   7034   7036     1  0.0000000  3.3472000  1
   7032   7031   7034   7036     1  0.0000000  0.0000000  2
   7032   7031   7034   7036     1  180.0000771  0.3347200  3
   7033   7031   7034   7035     1  0.0000000  3.3472000  1
   7033   7031   7034   7035     1  0.0000000  0.0000000  2
   7033   7031   7034   7035     1  180.0000771  0.3347200  3
   7033   7031   7034   7036     1  0.0000000  3.3472000  1
   7033   7031   7034   7036     1  0.0000000  0.0000000  2
   7033   7031   7034   7036     1  180.0000771  0.3347200  3
   7038   7037   7040   7043     1  0.0000000  0.6508444  3
   7038   7037   7040   7041     1  0.0000000  0.6508444  3
   7038   7037   7040   7042     1  0.0000000  0.6508444  3
   7039   7037   7040   7043     1  0.0000000  0.6508444  3
   7039   7037   7040   7041     1  0.0000000  0.6508444  3
   7039   7037   7040   7042     1  0.0000000  0.6508444  3
   7041   7040   7043   7044     1  0.0000000  3.3472000  1
   7041   7040   7043   7044     1  0.0000000  0.0000000  2
   7041   7040   7043   7044     1  180.0000771  0.3347200  3
   7041   7040   7043   7045     1  0.0000000  3.3472000  1
   7041   7040   7043   7045     1  0.0000000  0.0000000  2
   7041   7040   7043   7045     1  180.0000771  0.3347200  3
   7042   7040   7043   7044     1  0.0000000  3.3472000  1
   7042   7040   7043   7044     1  0.0000000  0.0000000  2
   7042   7040   7043   7044     1  180.0000771  0.3347200  3
   7042   7040   7043   7045     1  0.0000000  3.3472000  1
   7042   7040   7043   7045     1  0.0000000  0.0000000  2
   7042   7040   7043   7045     1  180.0000771  0.3347200  3
   7047   7050   7053   7054     1  0.0000000  0.6508444  3
   7047   7050   7053   7055     1  0.0000000  0.6508444  3
   7048   7047   7050   7053     1  0.0000000  0.6508444  3
   7048   7047   7050   7051     1  0.0000000  0.6508444  3
   7048   7047   7050   7052     1  0.0000000  0.6508444  3
   7049   7047   7050   7053     1  0.0000000  0.6508444  3
   7049   7047   7050   7051     1  0.0000000  0.6508444  3
   7049   7047   7050   7052     1  0.0000000  0.6508444  3
   7051   7050   7053   7056     1  0.0000000  0.6508444  3
   7051   7050   7053   7054     1  0.0000000  0.6508444  3
   7051   7050   7053   7055     1  0.0000000  0.6508444  3
   7051   7050   7047   7075     1  0.0000000  1.0460000  1
   7051   7050   7047   7075     1  0.0000000  0.0000000  3
   7052   7050   7053   7056     1  0.0000000  0.6508444  3
   7052   7050   7053   7054     1  0.0000000  0.6508444  3
   7052   7050   7053   7055     1  0.0000000  0.6508444  3
   7052   7050   7047   7075     1  0.0000000  1.0460000  1
   7052   7050   7047   7075     1  0.0000000  0.0000000  3
   7053   7056   7057   7058     1  0.0000000  1.2552000  3
   7053   7056   7057   7059     1  0.0000000  1.2552000  3
   7053   7056   7066   7067     1  0.0000000  1.2552000  3
   7053   7056   7066   7068     1  0.0000000  1.2552000  3
   7054   7053   7056   7057     1  0.0000000  1.2552000  3
   7054   7053   7056   7066     1  0.0000000  1.2552000  3
   7055   7053   7056   7057     1  0.0000000  1.2552000  3
   7055   7053   7056   7066     1  0.0000000  1.2552000  3
   7056   7057   7060   7061     1  0.0000000  0.6508444  3
   7056   7057   7060   7062     1  0.0000000  0.6508444  3
   7056   7066   7069   7070     1  0.0000000  0.6508444  3
   7056   7066   7069   7071     1  0.0000000  0.6508444  3
   7057   7056   7066   7067     1  0.0000000  1.2552000  3
   7057   7056   7066   7068     1  0.0000000  1.2552000  3
   7058   7057   7060   7063     1  0.0000000  0.6508444  3
   7058   7057   7060   7061     1  0.0000000  0.6508444  3
   7058   7057   7060   7062     1  0.0000000  0.6508444  3
   7058   7057   7056   7066     1  0.0000000  1.2552000  3
   7059   7057   7060   7063     1  0.0000000  0.6508444  3
   7059   7057   7060   7061     1  0.0000000  0.6508444  3
   7059   7057   7060   7062     1  0.0000000  0.6508444  3
   7059   7057   7056   7066     1  0.0000000  1.2552000  3
   7061   7060   7063   7064     1  0.0000000  3.3472000  1
   7061   7060   7063   7064     1  0.0000000  0.0000000  2
   7061   7060   7063   7064     1  180.0000771  0.3347200  3
   7061   7060   7063   7065     1  0.0000000  3.3472000  1
   7061   7060   7063   7065     1  0.0000000  0.0000000  2
   7061   7060   7063   7065     1  180.0000771  0.3347200  3
   7062   7060   7063   7064     1  0.0000000  3.3472000  1
   7062   7060   7063   7064     1  0.0000000  0.0000000  2
   7062   7060   7063   7064     1  180.0000771  0.3347200  3
   7062   7060   7063   7065     1  0.0000000  3.3472000  1
   7062   7060   7063   7065     1  0.0000000  0.0000000  2
   7062   7060   7063   7065     1  180.0000771  0.3347200  3
   7067   7066   7069   7072     1  0.0000000  0.6508444  3
   7067   7066   7069   7070     1  0.0000000  0.6508444  3
   7067   7066   7069   7071     1  0.0000000  0.6508444  3
   7068   7066   7069   7072     1  0.0000000  0.6508444  3
   7068   7066   7069   7070     1  0.0000000  0.6508444  3
   7068   7066   7069   7071     1  0.0000000  0.6508444  3
   7070   7069   7072   7073     1  0.0000000  3.3472000  1
   7070   7069   7072   7073     1  0.0000000  0.0000000  2
   7070   7069   7072   7073     1  180.0000771  0.3347200  3
   7070   7069   7072   7074     1  0.0000000  3.3472000  1
   7070   7069   7072   7074     1  0.0000000  0.0000000  2
   7070   7069   7072   7074     1  180.0000771  0.3347200  3
   7071   7069   7072   7073     1  0.0000000  3.3472000  1
   7071   7069   7072   7073     1  0.0000000  0.0000000  2
   7071   7069   7072   7073     1  180.0000771  0.3347200  3
   7071   7069   7072   7074     1  0.0000000  3.3472000  1
   7071   7069   7072   7074     1  0.0000000  0.0000000  2
   7071   7069   7072   7074     1  180.0000771  0.3347200  3
   7076   7079   7082   7083     1  0.0000000  0.6508444  3
   7076   7079   7082   7084     1  0.0000000  0.6508444  3
   7077   7076   7079   7082     1  0.0000000  0.6508444  3
   7077   7076   7079   7080     1  0.0000000  0.6508444  3
   7077   7076   7079   7081     1  0.0000000  0.6508444  3
   7078   7076   7079   7082     1  0.0000000  0.6508444  3
   7078   7076   7079   7080     1  0.0000000  0.6508444  3
   7078   7076   7079   7081     1  0.0000000  0.6508444  3
   7080   7079   7076   7104     1  0.0000000  1.0460000  1
   7080   7079   7076   7104     1  0.0000000  0.0000000  3
   7080   7079   7082   7085     1  0.0000000  0.6508444  3
   7080   7079   7082   7083     1  0.0000000  0.6508444  3
   7080   7079   7082   7084     1  0.0000000  0.6508444  3
   7081   7079   7076   7104     1  0.0000000  1.0460000  1
   7081   7079   7076   7104     1  0.0000000  0.0000000  3
   7081   7079   7082   7085     1  0.0000000  0.6508444  3
   7081   7079   7082   7083     1  0.0000000  0.6508444  3
   7081   7079   7082   7084     1  0.0000000  0.6508444  3
   7082   7085   7086   7087     1  0.0000000  1.2552000  3
   7082   7085   7086   7088     1  0.0000000  1.2552000  3
   7082   7085   7095   7096     1  0.0000000  1.2552000  3
   7082   7085   7095   7097     1  0.0000000  1.2552000  3
   7083   7082   7085   7086     1  0.0000000  1.2552000  3
   7083   7082   7085   7095     1  0.0000000  1.2552000  3
   7084   7082   7085   7086     1  0.0000000  1.2552000  3
   7084   7082   7085   7095     1  0.0000000  1.2552000  3
   7085   7086   7089   7090     1  0.0000000  0.6508444  3
   7085   7086   7089   7091     1  0.0000000  0.6508444  3
   7085   7095   7098   7099     1  0.0000000  0.6508444  3
   7085   7095   7098   7100     1  0.0000000  0.6508444  3
   7086   7085   7095   7096     1  0.0000000  1.2552000  3
   7086   7085   7095   7097     1  0.0000000  1.2552000  3
   7087   7086   7085   7095     1  0.0000000  1.2552000  3
   7087   7086   7089   7092     1  0.0000000  0.6508444  3
   7087   7086   7089   7090     1  0.0000000  0.6508444  3
   7087   7086   7089   7091     1  0.0000000  0.6508444  3
   7088   7086   7085   7095     1  0.0000000  1.2552000  3
   7088   7086   7089   7092     1  0.0000000  0.6508444  3
   7088   7086   7089   7090     1  0.0000000  0.6508444  3
   7088   7086   7089   7091     1  0.0000000  0.6508444  3
   7090   7089   7092   7093     1  0.0000000  3.3472000  1
   7090   7089   7092   7093     1  0.0000000  0.0000000  2
   7090   7089   7092   7093     1  180.0000771  0.3347200  3
   7090   7089   7092   7094     1  0.0000000  3.3472000  1
   7090   7089   7092   7094     1  0.0000000  0.0000000  2
   7090   7089   7092   7094     1  180.0000771  0.3347200  3
   7091   7089   7092   7093     1  0.0000000  3.3472000  1
   7091   7089   7092   7093     1  0.0000000  0.0000000  2
   7091   7089   7092   7093     1  180.0000771  0.3347200  3
   7091   7089   7092   7094     1  0.0000000  3.3472000  1
   7091   7089   7092   7094     1  0.0000000  0.0000000  2
   7091   7089   7092   7094     1  180.0000771  0.3347200  3
   7096   7095   7098   7101     1  0.0000000  0.6508444  3
   7096   7095   7098   7099     1  0.0000000  0.6508444  3
   7096   7095   7098   7100     1  0.0000000  0.6508444  3
   7097   7095   7098   7101     1  0.0000000  0.6508444  3
   7097   7095   7098   7099     1  0.0000000  0.6508444  3
   7097   7095   7098   7100     1  0.0000000  0.6508444  3
   7099   7098   7101   7102     1  0.0000000  3.3472000  1
   7099   7098   7101   7102     1  0.0000000  0.0000000  2
   7099   7098   7101   7102     1  180.0000771  0.3347200  3
   7099   7098   7101   7103     1  0.0000000  3.3472000  1
   7099   7098   7101   7103     1  0.0000000  0.0000000  2
   7099   7098   7101   7103     1  180.0000771  0.3347200  3
   7100   7098   7101   7102     1  0.0000000  3.3472000  1
   7100   7098   7101   7102     1  0.0000000  0.0000000  2
   7100   7098   7101   7102     1  180.0000771  0.3347200  3
   7100   7098   7101   7103     1  0.0000000  3.3472000  1
   7100   7098   7101   7103     1  0.0000000  0.0000000  2
   7100   7098   7101   7103     1  180.0000771  0.3347200  3
   7105   7108   7111   7112     1  0.0000000  0.6508444  3
   7105   7108   7111   7113     1  0.0000000  0.6508444  3
   7106   7105   7108   7111     1  0.0000000  0.6508444  3
   7106   7105   7108   7109     1  0.0000000  0.6508444  3
   7106   7105   7108   7110     1  0.0000000  0.6508444  3
   7107   7105   7108   7111     1  0.0000000  0.6508444  3
   7107   7105   7108   7109     1  0.0000000  0.6508444  3
   7107   7105   7108   7110     1  0.0000000  0.6508444  3
   7109   7108   7111   7114     1  0.0000000  0.6508444  3
   7109   7108   7111   7112     1  0.0000000  0.6508444  3
   7109   7108   7111   7113     1  0.0000000  0.6508444  3
   7109   7108   7105   7133     1  0.0000000  1.0460000  1
   7109   7108   7105   7133     1  0.0000000  0.0000000  3
   7110   7108   7111   7114     1  0.0000000  0.6508444  3
   7110   7108   7111   7112     1  0.0000000  0.6508444  3
   7110   7108   7111   7113     1  0.0000000  0.6508444  3
   7110   7108   7105   7133     1  0.0000000  1.0460000  1
   7110   7108   7105   7133     1  0.0000000  0.0000000  3
   7111   7114   7115   7116     1  0.0000000  1.2552000  3
   7111   7114   7115   7117     1  0.0000000  1.2552000  3
   7111   7114   7124   7125     1  0.0000000  1.2552000  3
   7111   7114   7124   7126     1  0.0000000  1.2552000  3
   7112   7111   7114   7115     1  0.0000000  1.2552000  3
   7112   7111   7114   7124     1  0.0000000  1.2552000  3
   7113   7111   7114   7115     1  0.0000000  1.2552000  3
   7113   7111   7114   7124     1  0.0000000  1.2552000  3
   7114   7115   7118   7119     1  0.0000000  0.6508444  3
   7114   7115   7118   7120     1  0.0000000  0.6508444  3
   7114   7124   7127   7128     1  0.0000000  0.6508444  3
   7114   7124   7127   7129     1  0.0000000  0.6508444  3
   7115   7114   7124   7125     1  0.0000000  1.2552000  3
   7115   7114   7124   7126     1  0.0000000  1.2552000  3
   7116   7115   7118   7121     1  0.0000000  0.6508444  3
   7116   7115   7118   7119     1  0.0000000  0.6508444  3
   7116   7115   7118   7120     1  0.0000000  0.6508444  3
   7116   7115   7114   7124     1  0.0000000  1.2552000  3
   7117   7115   7118   7121     1  0.0000000  0.6508444  3
   7117   7115   7118   7119     1  0.0000000  0.6508444  3
   7117   7115   7118   7120     1  0.0000000  0.6508444  3
   7117   7115   7114   7124     1  0.0000000  1.2552000  3
   7119   7118   7121   7122     1  0.0000000  3.3472000  1
   7119   7118   7121   7122     1  0.0000000  0.0000000  2
   7119   7118   7121   7122     1  180.0000771  0.3347200  3
   7119   7118   7121   7123     1  0.0000000  3.3472000  1
   7119   7118   7121   7123     1  0.0000000  0.0000000  2
   7119   7118   7121   7123     1  180.0000771  0.3347200  3
   7120   7118   7121   7122     1  0.0000000  3.3472000  1
   7120   7118   7121   7122     1  0.0000000  0.0000000  2
   7120   7118   7121   7122     1  180.0000771  0.3347200  3
   7120   7118   7121   7123     1  0.0000000  3.3472000  1
   7120   7118   7121   7123     1  0.0000000  0.0000000  2
   7120   7118   7121   7123     1  180.0000771  0.3347200  3
   7125   7124   7127   7130     1  0.0000000  0.6508444  3
   7125   7124   7127   7128     1  0.0000000  0.6508444  3
   7125   7124   7127   7129     1  0.0000000  0.6508444  3
   7126   7124   7127   7130     1  0.0000000  0.6508444  3
   7126   7124   7127   7128     1  0.0000000  0.6508444  3
   7126   7124   7127   7129     1  0.0000000  0.6508444  3
   7128   7127   7130   7131     1  0.0000000  3.3472000  1
   7128   7127   7130   7131     1  0.0000000  0.0000000  2
   7128   7127   7130   7131     1  180.0000771  0.3347200  3
   7128   7127   7130   7132     1  0.0000000  3.3472000  1
   7128   7127   7130   7132     1  0.0000000  0.0000000  2
   7128   7127   7130   7132     1  180.0000771  0.3347200  3
   7129   7127   7130   7131     1  0.0000000  3.3472000  1
   7129   7127   7130   7131     1  0.0000000  0.0000000  2
   7129   7127   7130   7131     1  180.0000771  0.3347200  3
   7129   7127   7130   7132     1  0.0000000  3.3472000  1
   7129   7127   7130   7132     1  0.0000000  0.0000000  2
   7129   7127   7130   7132     1  180.0000771  0.3347200  3
   7134   7137   7140   7141     1  0.0000000  0.6508444  3
   7134   7137   7140   7142     1  0.0000000  0.6508444  3
   7135   7134   7137   7140     1  0.0000000  0.6508444  3
   7135   7134   7137   7138     1  0.0000000  0.6508444  3
   7135   7134   7137   7139     1  0.0000000  0.6508444  3
   7136   7134   7137   7140     1  0.0000000  0.6508444  3
   7136   7134   7137   7138     1  0.0000000  0.6508444  3
   7136   7134   7137   7139     1  0.0000000  0.6508444  3
   7138   7137   7134   7162     1  0.0000000  1.0460000  1
   7138   7137   7134   7162     1  0.0000000  0.0000000  3
   7138   7137   7140   7143     1  0.0000000  0.6508444  3
   7138   7137   7140   7141     1  0.0000000  0.6508444  3
   7138   7137   7140   7142     1  0.0000000  0.6508444  3
   7139   7137   7134   7162     1  0.0000000  1.0460000  1
   7139   7137   7134   7162     1  0.0000000  0.0000000  3
   7139   7137   7140   7143     1  0.0000000  0.6508444  3
   7139   7137   7140   7141     1  0.0000000  0.6508444  3
   7139   7137   7140   7142     1  0.0000000  0.6508444  3
   7140   7143   7144   7145     1  0.0000000  1.2552000  3
   7140   7143   7144   7146     1  0.0000000  1.2552000  3
   7140   7143   7153   7154     1  0.0000000  1.2552000  3
   7140   7143   7153   7155     1  0.0000000  1.2552000  3
   7141   7140   7143   7144     1  0.0000000  1.2552000  3
   7141   7140   7143   7153     1  0.0000000  1.2552000  3
   7142   7140   7143   7144     1  0.0000000  1.2552000  3
   7142   7140   7143   7153     1  0.0000000  1.2552000  3
   7143   7144   7147   7148     1  0.0000000  0.6508444  3
   7143   7144   7147   7149     1  0.0000000  0.6508444  3
   7143   7153   7156   7157     1  0.0000000  0.6508444  3
   7143   7153   7156   7158     1  0.0000000  0.6508444  3
   7144   7143   7153   7154     1  0.0000000  1.2552000  3
   7144   7143   7153   7155     1  0.0000000  1.2552000  3
   7145   7144   7143   7153     1  0.0000000  1.2552000  3
   7145   7144   7147   7150     1  0.0000000  0.6508444  3
   7145   7144   7147   7148     1  0.0000000  0.6508444  3
   7145   7144   7147   7149     1  0.0000000  0.6508444  3
   7146   7144   7143   7153     1  0.0000000  1.2552000  3
   7146   7144   7147   7150     1  0.0000000  0.6508444  3
   7146   7144   7147   7148     1  0.0000000  0.6508444  3
   7146   7144   7147   7149     1  0.0000000  0.6508444  3
   7148   7147   7150   7151     1  0.0000000  3.3472000  1
   7148   7147   7150   7151     1  0.0000000  0.0000000  2
   7148   7147   7150   7151     1  180.0000771  0.3347200  3
   7148   7147   7150   7152     1  0.0000000  3.3472000  1
   7148   7147   7150   7152     1  0.0000000  0.0000000  2
   7148   7147   7150   7152     1  180.0000771  0.3347200  3
   7149   7147   7150   7151     1  0.0000000  3.3472000  1
   7149   7147   7150   7151     1  0.0000000  0.0000000  2
   7149   7147   7150   7151     1  180.0000771  0.3347200  3
   7149   7147   7150   7152     1  0.0000000  3.3472000  1
   7149   7147   7150   7152     1  0.0000000  0.0000000  2
   7149   7147   7150   7152     1  180.0000771  0.3347200  3
   7154   7153   7156   7159     1  0.0000000  0.6508444  3
   7154   7153   7156   7157     1  0.0000000  0.6508444  3
   7154   7153   7156   7158     1  0.0000000  0.6508444  3
   7155   7153   7156   7159     1  0.0000000  0.6508444  3
   7155   7153   7156   7157     1  0.0000000  0.6508444  3
   7155   7153   7156   7158     1  0.0000000  0.6508444  3
   7157   7156   7159   7160     1  0.0000000  3.3472000  1
   7157   7156   7159   7160     1  0.0000000  0.0000000  2
   7157   7156   7159   7160     1  180.0000771  0.3347200  3
   7157   7156   7159   7161     1  0.0000000  3.3472000  1
   7157   7156   7159   7161     1  0.0000000  0.0000000  2
   7157   7156   7159   7161     1  180.0000771  0.3347200  3
   7158   7156   7159   7160     1  0.0000000  3.3472000  1
   7158   7156   7159   7160     1  0.0000000  0.0000000  2
   7158   7156   7159   7160     1  180.0000771  0.3347200  3
   7158   7156   7159   7161     1  0.0000000  3.3472000  1
   7158   7156   7159   7161     1  0.0000000  0.0000000  2
   7158   7156   7159   7161     1  180.0000771  0.3347200  3
   7163   7166   7169   7170     1  0.0000000  0.6508444  3
   7163   7166   7169   7171     1  0.0000000  0.6508444  3
   7164   7163   7166   7169     1  0.0000000  0.6508444  3
   7164   7163   7166   7167     1  0.0000000  0.6508444  3
   7164   7163   7166   7168     1  0.0000000  0.6508444  3
   7165   7163   7166   7169     1  0.0000000  0.6508444  3
   7165   7163   7166   7167     1  0.0000000  0.6508444  3
   7165   7163   7166   7168     1  0.0000000  0.6508444  3
   7167   7166   7169   7172     1  0.0000000  0.6508444  3
   7167   7166   7169   7170     1  0.0000000  0.6508444  3
   7167   7166   7169   7171     1  0.0000000  0.6508444  3
   7167   7166   7163   7191     1  0.0000000  1.0460000  1
   7167   7166   7163   7191     1  0.0000000  0.0000000  3
   7168   7166   7169   7172     1  0.0000000  0.6508444  3
   7168   7166   7169   7170     1  0.0000000  0.6508444  3
   7168   7166   7169   7171     1  0.0000000  0.6508444  3
   7168   7166   7163   7191     1  0.0000000  1.0460000  1
   7168   7166   7163   7191     1  0.0000000  0.0000000  3
   7169   7172   7173   7174     1  0.0000000  1.2552000  3
   7169   7172   7173   7175     1  0.0000000  1.2552000  3
   7169   7172   7182   7183     1  0.0000000  1.2552000  3
   7169   7172   7182   7184     1  0.0000000  1.2552000  3
   7170   7169   7172   7173     1  0.0000000  1.2552000  3
   7170   7169   7172   7182     1  0.0000000  1.2552000  3
   7171   7169   7172   7173     1  0.0000000  1.2552000  3
   7171   7169   7172   7182     1  0.0000000  1.2552000  3
   7172   7173   7176   7177     1  0.0000000  0.6508444  3
   7172   7173   7176   7178     1  0.0000000  0.6508444  3
   7172   7182   7185   7186     1  0.0000000  0.6508444  3
   7172   7182   7185   7187     1  0.0000000  0.6508444  3
   7173   7172   7182   7183     1  0.0000000  1.2552000  3
   7173   7172   7182   7184     1  0.0000000  1.2552000  3
   7174   7173   7176   7179     1  0.0000000  0.6508444  3
   7174   7173   7176   7177     1  0.0000000  0.6508444  3
   7174   7173   7176   7178     1  0.0000000  0.6508444  3
   7174   7173   7172   7182     1  0.0000000  1.2552000  3
   7175   7173   7176   7179     1  0.0000000  0.6508444  3
   7175   7173   7176   7177     1  0.0000000  0.6508444  3
   7175   7173   7176   7178     1  0.0000000  0.6508444  3
   7175   7173   7172   7182     1  0.0000000  1.2552000  3
   7177   7176   7179   7180     1  0.0000000  3.3472000  1
   7177   7176   7179   7180     1  0.0000000  0.0000000  2
   7177   7176   7179   7180     1  180.0000771  0.3347200  3
   7177   7176   7179   7181     1  0.0000000  3.3472000  1
   7177   7176   7179   7181     1  0.0000000  0.0000000  2
   7177   7176   7179   7181     1  180.0000771  0.3347200  3
   7178   7176   7179   7180     1  0.0000000  3.3472000  1
   7178   7176   7179   7180     1  0.0000000  0.0000000  2
   7178   7176   7179   7180     1  180.0000771  0.3347200  3
   7178   7176   7179   7181     1  0.0000000  3.3472000  1
   7178   7176   7179   7181     1  0.0000000  0.0000000  2
   7178   7176   7179   7181     1  180.0000771  0.3347200  3
   7183   7182   7185   7188     1  0.0000000  0.6508444  3
   7183   7182   7185   7186     1  0.0000000  0.6508444  3
   7183   7182   7185   7187     1  0.0000000  0.6508444  3
   7184   7182   7185   7188     1  0.0000000  0.6508444  3
   7184   7182   7185   7186     1  0.0000000  0.6508444  3
   7184   7182   7185   7187     1  0.0000000  0.6508444  3
   7186   7185   7188   7189     1  0.0000000  3.3472000  1
   7186   7185   7188   7189     1  0.0000000  0.0000000  2
   7186   7185   7188   7189     1  180.0000771  0.3347200  3
   7186   7185   7188   7190     1  0.0000000  3.3472000  1
   7186   7185   7188   7190     1  0.0000000  0.0000000  2
   7186   7185   7188   7190     1  180.0000771  0.3347200  3
   7187   7185   7188   7189     1  0.0000000  3.3472000  1
   7187   7185   7188   7189     1  0.0000000  0.0000000  2
   7187   7185   7188   7189     1  180.0000771  0.3347200  3
   7187   7185   7188   7190     1  0.0000000  3.3472000  1
   7187   7185   7188   7190     1  0.0000000  0.0000000  2
   7187   7185   7188   7190     1  180.0000771  0.3347200  3
   7192   7195   7198   7199     1  0.0000000  0.6508444  3
   7192   7195   7198   7200     1  0.0000000  0.6508444  3
   7193   7192   7195   7198     1  0.0000000  0.6508444  3
   7193   7192   7195   7196     1  0.0000000  0.6508444  3
   7193   7192   7195   7197     1  0.0000000  0.6508444  3
   7194   7192   7195   7198     1  0.0000000  0.6508444  3
   7194   7192   7195   7196     1  0.0000000  0.6508444  3
   7194   7192   7195   7197     1  0.0000000  0.6508444  3
   7196   7195   7192   7220     1  0.0000000  1.0460000  1
   7196   7195   7192   7220     1  0.0000000  0.0000000  3
   7196   7195   7198   7201     1  0.0000000  0.6508444  3
   7196   7195   7198   7199     1  0.0000000  0.6508444  3
   7196   7195   7198   7200     1  0.0000000  0.6508444  3
   7197   7195   7192   7220     1  0.0000000  1.0460000  1
   7197   7195   7192   7220     1  0.0000000  0.0000000  3
   7197   7195   7198   7201     1  0.0000000  0.6508444  3
   7197   7195   7198   7199     1  0.0000000  0.6508444  3
   7197   7195   7198   7200     1  0.0000000  0.6508444  3
   7198   7201   7202   7203     1  0.0000000  1.2552000  3
   7198   7201   7202   7204     1  0.0000000  1.2552000  3
   7198   7201   7211   7212     1  0.0000000  1.2552000  3
   7198   7201   7211   7213     1  0.0000000  1.2552000  3
   7199   7198   7201   7202     1  0.0000000  1.2552000  3
   7199   7198   7201   7211     1  0.0000000  1.2552000  3
   7200   7198   7201   7202     1  0.0000000  1.2552000  3
   7200   7198   7201   7211     1  0.0000000  1.2552000  3
   7201   7202   7205   7206     1  0.0000000  0.6508444  3
   7201   7202   7205   7207     1  0.0000000  0.6508444  3
   7201   7211   7214   7215     1  0.0000000  0.6508444  3
   7201   7211   7214   7216     1  0.0000000  0.6508444  3
   7202   7201   7211   7212     1  0.0000000  1.2552000  3
   7202   7201   7211   7213     1  0.0000000  1.2552000  3
   7203   7202   7201   7211     1  0.0000000  1.2552000  3
   7203   7202   7205   7208     1  0.0000000  0.6508444  3
   7203   7202   7205   7206     1  0.0000000  0.6508444  3
   7203   7202   7205   7207     1  0.0000000  0.6508444  3
   7204   7202   7201   7211     1  0.0000000  1.2552000  3
   7204   7202   7205   7208     1  0.0000000  0.6508444  3
   7204   7202   7205   7206     1  0.0000000  0.6508444  3
   7204   7202   7205   7207     1  0.0000000  0.6508444  3
   7206   7205   7208   7209     1  0.0000000  3.3472000  1
   7206   7205   7208   7209     1  0.0000000  0.0000000  2
   7206   7205   7208   7209     1  180.0000771  0.3347200  3
   7206   7205   7208   7210     1  0.0000000  3.3472000  1
   7206   7205   7208   7210     1  0.0000000  0.0000000  2
   7206   7205   7208   7210     1  180.0000771  0.3347200  3
   7207   7205   7208   7209     1  0.0000000  3.3472000  1
   7207   7205   7208   7209     1  0.0000000  0.0000000  2
   7207   7205   7208   7209     1  180.0000771  0.3347200  3
   7207   7205   7208   7210     1  0.0000000  3.3472000  1
   7207   7205   7208   7210     1  0.0000000  0.0000000  2
   7207   7205   7208   7210     1  180.0000771  0.3347200  3
   7212   7211   7214   7217     1  0.0000000  0.6508444  3
   7212   7211   7214   7215     1  0.0000000  0.6508444  3
   7212   7211   7214   7216     1  0.0000000  0.6508444  3
   7213   7211   7214   7217     1  0.0000000  0.6508444  3
   7213   7211   7214   7215     1  0.0000000  0.6508444  3
   7213   7211   7214   7216     1  0.0000000  0.6508444  3
   7215   7214   7217   7218     1  0.0000000  3.3472000  1
   7215   7214   7217   7218     1  0.0000000  0.0000000  2
   7215   7214   7217   7218     1  180.0000771  0.3347200  3
   7215   7214   7217   7219     1  0.0000000  3.3472000  1
   7215   7214   7217   7219     1  0.0000000  0.0000000  2
   7215   7214   7217   7219     1  180.0000771  0.3347200  3
   7216   7214   7217   7218     1  0.0000000  3.3472000  1
   7216   7214   7217   7218     1  0.0000000  0.0000000  2
   7216   7214   7217   7218     1  180.0000771  0.3347200  3
   7216   7214   7217   7219     1  0.0000000  3.3472000  1
   7216   7214   7217   7219     1  0.0000000  0.0000000  2
   7216   7214   7217   7219     1  180.0000771  0.3347200  3
   7221   7224   7227   7228     1  0.0000000  0.6508444  3
   7221   7224   7227   7229     1  0.0000000  0.6508444  3
   7222   7221   7224   7227     1  0.0000000  0.6508444  3
   7222   7221   7224   7225     1  0.0000000  0.6508444  3
   7222   7221   7224   7226     1  0.0000000  0.6508444  3
   7223   7221   7224   7227     1  0.0000000  0.6508444  3
   7223   7221   7224   7225     1  0.0000000  0.6508444  3
   7223   7221   7224   7226     1  0.0000000  0.6508444  3
   7225   7224   7227   7230     1  0.0000000  0.6508444  3
   7225   7224   7227   7228     1  0.0000000  0.6508444  3
   7225   7224   7227   7229     1  0.0000000  0.6508444  3
   7225   7224   7221   7249     1  0.0000000  1.0460000  1
   7225   7224   7221   7249     1  0.0000000  0.0000000  3
   7226   7224   7227   7230     1  0.0000000  0.6508444  3
   7226   7224   7227   7228     1  0.0000000  0.6508444  3
   7226   7224   7227   7229     1  0.0000000  0.6508444  3
   7226   7224   7221   7249     1  0.0000000  1.0460000  1
   7226   7224   7221   7249     1  0.0000000  0.0000000  3
   7227   7230   7231   7232     1  0.0000000  1.2552000  3
   7227   7230   7231   7233     1  0.0000000  1.2552000  3
   7227   7230   7240   7241     1  0.0000000  1.2552000  3
   7227   7230   7240   7242     1  0.0000000  1.2552000  3
   7228   7227   7230   7231     1  0.0000000  1.2552000  3
   7228   7227   7230   7240     1  0.0000000  1.2552000  3
   7229   7227   7230   7231     1  0.0000000  1.2552000  3
   7229   7227   7230   7240     1  0.0000000  1.2552000  3
   7230   7231   7234   7235     1  0.0000000  0.6508444  3
   7230   7231   7234   7236     1  0.0000000  0.6508444  3
   7230   7240   7243   7244     1  0.0000000  0.6508444  3
   7230   7240   7243   7245     1  0.0000000  0.6508444  3
   7231   7230   7240   7241     1  0.0000000  1.2552000  3
   7231   7230   7240   7242     1  0.0000000  1.2552000  3
   7232   7231   7234   7237     1  0.0000000  0.6508444  3
   7232   7231   7234   7235     1  0.0000000  0.6508444  3
   7232   7231   7234   7236     1  0.0000000  0.6508444  3
   7232   7231   7230   7240     1  0.0000000  1.2552000  3
   7233   7231   7234   7237     1  0.0000000  0.6508444  3
   7233   7231   7234   7235     1  0.0000000  0.6508444  3
   7233   7231   7234   7236     1  0.0000000  0.6508444  3
   7233   7231   7230   7240     1  0.0000000  1.2552000  3
   7235   7234   7237   7238     1  0.0000000  3.3472000  1
   7235   7234   7237   7238     1  0.0000000  0.0000000  2
   7235   7234   7237   7238     1  180.0000771  0.3347200  3
   7235   7234   7237   7239     1  0.0000000  3.3472000  1
   7235   7234   7237   7239     1  0.0000000  0.0000000  2
   7235   7234   7237   7239     1  180.0000771  0.3347200  3
   7236   7234   7237   7238     1  0.0000000  3.3472000  1
   7236   7234   7237   7238     1  0.0000000  0.0000000  2
   7236   7234   7237   7238     1  180.0000771  0.3347200  3
   7236   7234   7237   7239     1  0.0000000  3.3472000  1
   7236   7234   7237   7239     1  0.0000000  0.0000000  2
   7236   7234   7237   7239     1  180.0000771  0.3347200  3
   7241   7240   7243   7246     1  0.0000000  0.6508444  3
   7241   7240   7243   7244     1  0.0000000  0.6508444  3
   7241   7240   7243   7245     1  0.0000000  0.6508444  3
   7242   7240   7243   7246     1  0.0000000  0.6508444  3
   7242   7240   7243   7244     1  0.0000000  0.6508444  3
   7242   7240   7243   7245     1  0.0000000  0.6508444  3
   7244   7243   7246   7247     1  0.0000000  3.3472000  1
   7244   7243   7246   7247     1  0.0000000  0.0000000  2
   7244   7243   7246   7247     1  180.0000771  0.3347200  3
   7244   7243   7246   7248     1  0.0000000  3.3472000  1
   7244   7243   7246   7248     1  0.0000000  0.0000000  2
   7244   7243   7246   7248     1  180.0000771  0.3347200  3
   7245   7243   7246   7247     1  0.0000000  3.3472000  1
   7245   7243   7246   7247     1  0.0000000  0.0000000  2
   7245   7243   7246   7247     1  180.0000771  0.3347200  3
   7245   7243   7246   7248     1  0.0000000  3.3472000  1
   7245   7243   7246   7248     1  0.0000000  0.0000000  2
   7245   7243   7246   7248     1  180.0000771  0.3347200  3
   7250   7253   7256   7257     1  0.0000000  0.6508444  3
   7250   7253   7256   7258     1  0.0000000  0.6508444  3
   7251   7250   7253   7256     1  0.0000000  0.6508444  3
   7251   7250   7253   7254     1  0.0000000  0.6508444  3
   7251   7250   7253   7255     1  0.0000000  0.6508444  3
   7252   7250   7253   7256     1  0.0000000  0.6508444  3
   7252   7250   7253   7254     1  0.0000000  0.6508444  3
   7252   7250   7253   7255     1  0.0000000  0.6508444  3
   7254   7253   7250   7278     1  0.0000000  1.0460000  1
   7254   7253   7250   7278     1  0.0000000  0.0000000  3
   7254   7253   7256   7259     1  0.0000000  0.6508444  3
   7254   7253   7256   7257     1  0.0000000  0.6508444  3
   7254   7253   7256   7258     1  0.0000000  0.6508444  3
   7255   7253   7250   7278     1  0.0000000  1.0460000  1
   7255   7253   7250   7278     1  0.0000000  0.0000000  3
   7255   7253   7256   7259     1  0.0000000  0.6508444  3
   7255   7253   7256   7257     1  0.0000000  0.6508444  3
   7255   7253   7256   7258     1  0.0000000  0.6508444  3
   7256   7259   7260   7261     1  0.0000000  1.2552000  3
   7256   7259   7260   7262     1  0.0000000  1.2552000  3
   7256   7259   7269   7270     1  0.0000000  1.2552000  3
   7256   7259   7269   7271     1  0.0000000  1.2552000  3
   7257   7256   7259   7260     1  0.0000000  1.2552000  3
   7257   7256   7259   7269     1  0.0000000  1.2552000  3
   7258   7256   7259   7260     1  0.0000000  1.2552000  3
   7258   7256   7259   7269     1  0.0000000  1.2552000  3
   7259   7260   7263   7264     1  0.0000000  0.6508444  3
   7259   7260   7263   7265     1  0.0000000  0.6508444  3
   7259   7269   7272   7273     1  0.0000000  0.6508444  3
   7259   7269   7272   7274     1  0.0000000  0.6508444  3
   7260   7259   7269   7270     1  0.0000000  1.2552000  3
   7260   7259   7269   7271     1  0.0000000  1.2552000  3
   7261   7260   7259   7269     1  0.0000000  1.2552000  3
   7261   7260   7263   7266     1  0.0000000  0.6508444  3
   7261   7260   7263   7264     1  0.0000000  0.6508444  3
   7261   7260   7263   7265     1  0.0000000  0.6508444  3
   7262   7260   7259   7269     1  0.0000000  1.2552000  3
   7262   7260   7263   7266     1  0.0000000  0.6508444  3
   7262   7260   7263   7264     1  0.0000000  0.6508444  3
   7262   7260   7263   7265     1  0.0000000  0.6508444  3
   7264   7263   7266   7267     1  0.0000000  3.3472000  1
   7264   7263   7266   7267     1  0.0000000  0.0000000  2
   7264   7263   7266   7267     1  180.0000771  0.3347200  3
   7264   7263   7266   7268     1  0.0000000  3.3472000  1
   7264   7263   7266   7268     1  0.0000000  0.0000000  2
   7264   7263   7266   7268     1  180.0000771  0.3347200  3
   7265   7263   7266   7267     1  0.0000000  3.3472000  1
   7265   7263   7266   7267     1  0.0000000  0.0000000  2
   7265   7263   7266   7267     1  180.0000771  0.3347200  3
   7265   7263   7266   7268     1  0.0000000  3.3472000  1
   7265   7263   7266   7268     1  0.0000000  0.0000000  2
   7265   7263   7266   7268     1  180.0000771  0.3347200  3
   7270   7269   7272   7275     1  0.0000000  0.6508444  3
   7270   7269   7272   7273     1  0.0000000  0.6508444  3
   7270   7269   7272   7274     1  0.0000000  0.6508444  3
   7271   7269   7272   7275     1  0.0000000  0.6508444  3
   7271   7269   7272   7273     1  0.0000000  0.6508444  3
   7271   7269   7272   7274     1  0.0000000  0.6508444  3
   7273   7272   7275   7276     1  0.0000000  3.3472000  1
   7273   7272   7275   7276     1  0.0000000  0.0000000  2
   7273   7272   7275   7276     1  180.0000771  0.3347200  3
   7273   7272   7275   7277     1  0.0000000  3.3472000  1
   7273   7272   7275   7277     1  0.0000000  0.0000000  2
   7273   7272   7275   7277     1  180.0000771  0.3347200  3
   7274   7272   7275   7276     1  0.0000000  3.3472000  1
   7274   7272   7275   7276     1  0.0000000  0.0000000  2
   7274   7272   7275   7276     1  180.0000771  0.3347200  3
   7274   7272   7275   7277     1  0.0000000  3.3472000  1
   7274   7272   7275   7277     1  0.0000000  0.0000000  2
   7274   7272   7275   7277     1  180.0000771  0.3347200  3
   7279   7282   7285   7286     1  0.0000000  0.6508444  3
   7279   7282   7285   7287     1  0.0000000  0.6508444  3
   7280   7279   7282   7285     1  0.0000000  0.6508444  3
   7280   7279   7282   7283     1  0.0000000  0.6508444  3
   7280   7279   7282   7284     1  0.0000000  0.6508444  3
   7281   7279   7282   7285     1  0.0000000  0.6508444  3
   7281   7279   7282   7283     1  0.0000000  0.6508444  3
   7281   7279   7282   7284     1  0.0000000  0.6508444  3
   7283   7282   7285   7288     1  0.0000000  0.6508444  3
   7283   7282   7285   7286     1  0.0000000  0.6508444  3
   7283   7282   7285   7287     1  0.0000000  0.6508444  3
   7283   7282   7279   7307     1  0.0000000  1.0460000  1
   7283   7282   7279   7307     1  0.0000000  0.0000000  3
   7284   7282   7285   7288     1  0.0000000  0.6508444  3
   7284   7282   7285   7286     1  0.0000000  0.6508444  3
   7284   7282   7285   7287     1  0.0000000  0.6508444  3
   7284   7282   7279   7307     1  0.0000000  1.0460000  1
   7284   7282   7279   7307     1  0.0000000  0.0000000  3
   7285   7288   7289   7290     1  0.0000000  1.2552000  3
   7285   7288   7289   7291     1  0.0000000  1.2552000  3
   7285   7288   7298   7299     1  0.0000000  1.2552000  3
   7285   7288   7298   7300     1  0.0000000  1.2552000  3
   7286   7285   7288   7289     1  0.0000000  1.2552000  3
   7286   7285   7288   7298     1  0.0000000  1.2552000  3
   7287   7285   7288   7289     1  0.0000000  1.2552000  3
   7287   7285   7288   7298     1  0.0000000  1.2552000  3
   7288   7289   7292   7293     1  0.0000000  0.6508444  3
   7288   7289   7292   7294     1  0.0000000  0.6508444  3
   7288   7298   7301   7302     1  0.0000000  0.6508444  3
   7288   7298   7301   7303     1  0.0000000  0.6508444  3
   7289   7288   7298   7299     1  0.0000000  1.2552000  3
   7289   7288   7298   7300     1  0.0000000  1.2552000  3
   7290   7289   7292   7295     1  0.0000000  0.6508444  3
   7290   7289   7292   7293     1  0.0000000  0.6508444  3
   7290   7289   7292   7294     1  0.0000000  0.6508444  3
   7290   7289   7288   7298     1  0.0000000  1.2552000  3
   7291   7289   7292   7295     1  0.0000000  0.6508444  3
   7291   7289   7292   7293     1  0.0000000  0.6508444  3
   7291   7289   7292   7294     1  0.0000000  0.6508444  3
   7291   7289   7288   7298     1  0.0000000  1.2552000  3
   7293   7292   7295   7296     1  0.0000000  3.3472000  1
   7293   7292   7295   7296     1  0.0000000  0.0000000  2
   7293   7292   7295   7296     1  180.0000771  0.3347200  3
   7293   7292   7295   7297     1  0.0000000  3.3472000  1
   7293   7292   7295   7297     1  0.0000000  0.0000000  2
   7293   7292   7295   7297     1  180.0000771  0.3347200  3
   7294   7292   7295   7296     1  0.0000000  3.3472000  1
   7294   7292   7295   7296     1  0.0000000  0.0000000  2
   7294   7292   7295   7296     1  180.0000771  0.3347200  3
   7294   7292   7295   7297     1  0.0000000  3.3472000  1
   7294   7292   7295   7297     1  0.0000000  0.0000000  2
   7294   7292   7295   7297     1  180.0000771  0.3347200  3
   7299   7298   7301   7304     1  0.0000000  0.6508444  3
   7299   7298   7301   7302     1  0.0000000  0.6508444  3
   7299   7298   7301   7303     1  0.0000000  0.6508444  3
   7300   7298   7301   7304     1  0.0000000  0.6508444  3
   7300   7298   7301   7302     1  0.0000000  0.6508444  3
   7300   7298   7301   7303     1  0.0000000  0.6508444  3
   7302   7301   7304   7305     1  0.0000000  3.3472000  1
   7302   7301   7304   7305     1  0.0000000  0.0000000  2
   7302   7301   7304   7305     1  180.0000771  0.3347200  3
   7302   7301   7304   7306     1  0.0000000  3.3472000  1
   7302   7301   7304   7306     1  0.0000000  0.0000000  2
   7302   7301   7304   7306     1  180.0000771  0.3347200  3
   7303   7301   7304   7305     1  0.0000000  3.3472000  1
   7303   7301   7304   7305     1  0.0000000  0.0000000  2
   7303   7301   7304   7305     1  180.0000771  0.3347200  3
   7303   7301   7304   7306     1  0.0000000  3.3472000  1
   7303   7301   7304   7306     1  0.0000000  0.0000000  2
   7303   7301   7304   7306     1  180.0000771  0.3347200  3
   7308   7311   7314   7315     1  0.0000000  0.6508444  3
   7308   7311   7314   7316     1  0.0000000  0.6508444  3
   7309   7308   7311   7314     1  0.0000000  0.6508444  3
   7309   7308   7311   7312     1  0.0000000  0.6508444  3
   7309   7308   7311   7313     1  0.0000000  0.6508444  3
   7310   7308   7311   7314     1  0.0000000  0.6508444  3
   7310   7308   7311   7312     1  0.0000000  0.6508444  3
   7310   7308   7311   7313     1  0.0000000  0.6508444  3
   7312   7311   7308   7336     1  0.0000000  1.0460000  1
   7312   7311   7308   7336     1  0.0000000  0.0000000  3
   7312   7311   7314   7317     1  0.0000000  0.6508444  3
   7312   7311   7314   7315     1  0.0000000  0.6508444  3
   7312   7311   7314   7316     1  0.0000000  0.6508444  3
   7313   7311   7308   7336     1  0.0000000  1.0460000  1
   7313   7311   7308   7336     1  0.0000000  0.0000000  3
   7313   7311   7314   7317     1  0.0000000  0.6508444  3
   7313   7311   7314   7315     1  0.0000000  0.6508444  3
   7313   7311   7314   7316     1  0.0000000  0.6508444  3
   7314   7317   7318   7319     1  0.0000000  1.2552000  3
   7314   7317   7318   7320     1  0.0000000  1.2552000  3
   7314   7317   7327   7328     1  0.0000000  1.2552000  3
   7314   7317   7327   7329     1  0.0000000  1.2552000  3
   7315   7314   7317   7318     1  0.0000000  1.2552000  3
   7315   7314   7317   7327     1  0.0000000  1.2552000  3
   7316   7314   7317   7318     1  0.0000000  1.2552000  3
   7316   7314   7317   7327     1  0.0000000  1.2552000  3
   7317   7318   7321   7322     1  0.0000000  0.6508444  3
   7317   7318   7321   7323     1  0.0000000  0.6508444  3
   7317   7327   7330   7331     1  0.0000000  0.6508444  3
   7317   7327   7330   7332     1  0.0000000  0.6508444  3
   7318   7317   7327   7328     1  0.0000000  1.2552000  3
   7318   7317   7327   7329     1  0.0000000  1.2552000  3
   7319   7318   7317   7327     1  0.0000000  1.2552000  3
   7319   7318   7321   7324     1  0.0000000  0.6508444  3
   7319   7318   7321   7322     1  0.0000000  0.6508444  3
   7319   7318   7321   7323     1  0.0000000  0.6508444  3
   7320   7318   7317   7327     1  0.0000000  1.2552000  3
   7320   7318   7321   7324     1  0.0000000  0.6508444  3
   7320   7318   7321   7322     1  0.0000000  0.6508444  3
   7320   7318   7321   7323     1  0.0000000  0.6508444  3
   7322   7321   7324   7325     1  0.0000000  3.3472000  1
   7322   7321   7324   7325     1  0.0000000  0.0000000  2
   7322   7321   7324   7325     1  180.0000771  0.3347200  3
   7322   7321   7324   7326     1  0.0000000  3.3472000  1
   7322   7321   7324   7326     1  0.0000000  0.0000000  2
   7322   7321   7324   7326     1  180.0000771  0.3347200  3
   7323   7321   7324   7325     1  0.0000000  3.3472000  1
   7323   7321   7324   7325     1  0.0000000  0.0000000  2
   7323   7321   7324   7325     1  180.0000771  0.3347200  3
   7323   7321   7324   7326     1  0.0000000  3.3472000  1
   7323   7321   7324   7326     1  0.0000000  0.0000000  2
   7323   7321   7324   7326     1  180.0000771  0.3347200  3
   7328   7327   7330   7333     1  0.0000000  0.6508444  3
   7328   7327   7330   7331     1  0.0000000  0.6508444  3
   7328   7327   7330   7332     1  0.0000000  0.6508444  3
   7329   7327   7330   7333     1  0.0000000  0.6508444  3
   7329   7327   7330   7331     1  0.0000000  0.6508444  3
   7329   7327   7330   7332     1  0.0000000  0.6508444  3
   7331   7330   7333   7334     1  0.0000000  3.3472000  1
   7331   7330   7333   7334     1  0.0000000  0.0000000  2
   7331   7330   7333   7334     1  180.0000771  0.3347200  3
   7331   7330   7333   7335     1  0.0000000  3.3472000  1
   7331   7330   7333   7335     1  0.0000000  0.0000000  2
   7331   7330   7333   7335     1  180.0000771  0.3347200  3
   7332   7330   7333   7334     1  0.0000000  3.3472000  1
   7332   7330   7333   7334     1  0.0000000  0.0000000  2
   7332   7330   7333   7334     1  180.0000771  0.3347200  3
   7332   7330   7333   7335     1  0.0000000  3.3472000  1
   7332   7330   7333   7335     1  0.0000000  0.0000000  2
   7332   7330   7333   7335     1  180.0000771  0.3347200  3
   7337   7340   7343   7344     1  0.0000000  0.6508444  3
   7337   7340   7343   7345     1  0.0000000  0.6508444  3
   7338   7337   7340   7343     1  0.0000000  0.6508444  3
   7338   7337   7340   7341     1  0.0000000  0.6508444  3
   7338   7337   7340   7342     1  0.0000000  0.6508444  3
   7339   7337   7340   7343     1  0.0000000  0.6508444  3
   7339   7337   7340   7341     1  0.0000000  0.6508444  3
   7339   7337   7340   7342     1  0.0000000  0.6508444  3
   7341   7340   7343   7346     1  0.0000000  0.6508444  3
   7341   7340   7343   7344     1  0.0000000  0.6508444  3
   7341   7340   7343   7345     1  0.0000000  0.6508444  3
   7341   7340   7337   7365     1  0.0000000  1.0460000  1
   7341   7340   7337   7365     1  0.0000000  0.0000000  3
   7342   7340   7343   7346     1  0.0000000  0.6508444  3
   7342   7340   7343   7344     1  0.0000000  0.6508444  3
   7342   7340   7343   7345     1  0.0000000  0.6508444  3
   7342   7340   7337   7365     1  0.0000000  1.0460000  1
   7342   7340   7337   7365     1  0.0000000  0.0000000  3
   7343   7346   7347   7348     1  0.0000000  1.2552000  3
   7343   7346   7347   7349     1  0.0000000  1.2552000  3
   7343   7346   7356   7357     1  0.0000000  1.2552000  3
   7343   7346   7356   7358     1  0.0000000  1.2552000  3
   7344   7343   7346   7347     1  0.0000000  1.2552000  3
   7344   7343   7346   7356     1  0.0000000  1.2552000  3
   7345   7343   7346   7347     1  0.0000000  1.2552000  3
   7345   7343   7346   7356     1  0.0000000  1.2552000  3
   7346   7347   7350   7351     1  0.0000000  0.6508444  3
   7346   7347   7350   7352     1  0.0000000  0.6508444  3
   7346   7356   7359   7360     1  0.0000000  0.6508444  3
   7346   7356   7359   7361     1  0.0000000  0.6508444  3
   7347   7346   7356   7357     1  0.0000000  1.2552000  3
   7347   7346   7356   7358     1  0.0000000  1.2552000  3
   7348   7347   7350   7353     1  0.0000000  0.6508444  3
   7348   7347   7350   7351     1  0.0000000  0.6508444  3
   7348   7347   7350   7352     1  0.0000000  0.6508444  3
   7348   7347   7346   7356     1  0.0000000  1.2552000  3
   7349   7347   7350   7353     1  0.0000000  0.6508444  3
   7349   7347   7350   7351     1  0.0000000  0.6508444  3
   7349   7347   7350   7352     1  0.0000000  0.6508444  3
   7349   7347   7346   7356     1  0.0000000  1.2552000  3
   7351   7350   7353   7354     1  0.0000000  3.3472000  1
   7351   7350   7353   7354     1  0.0000000  0.0000000  2
   7351   7350   7353   7354     1  180.0000771  0.3347200  3
   7351   7350   7353   7355     1  0.0000000  3.3472000  1
   7351   7350   7353   7355     1  0.0000000  0.0000000  2
   7351   7350   7353   7355     1  180.0000771  0.3347200  3
   7352   7350   7353   7354     1  0.0000000  3.3472000  1
   7352   7350   7353   7354     1  0.0000000  0.0000000  2
   7352   7350   7353   7354     1  180.0000771  0.3347200  3
   7352   7350   7353   7355     1  0.0000000  3.3472000  1
   7352   7350   7353   7355     1  0.0000000  0.0000000  2
   7352   7350   7353   7355     1  180.0000771  0.3347200  3
   7357   7356   7359   7362     1  0.0000000  0.6508444  3
   7357   7356   7359   7360     1  0.0000000  0.6508444  3
   7357   7356   7359   7361     1  0.0000000  0.6508444  3
   7358   7356   7359   7362     1  0.0000000  0.6508444  3
   7358   7356   7359   7360     1  0.0000000  0.6508444  3
   7358   7356   7359   7361     1  0.0000000  0.6508444  3
   7360   7359   7362   7363     1  0.0000000  3.3472000  1
   7360   7359   7362   7363     1  0.0000000  0.0000000  2
   7360   7359   7362   7363     1  180.0000771  0.3347200  3
   7360   7359   7362   7364     1  0.0000000  3.3472000  1
   7360   7359   7362   7364     1  0.0000000  0.0000000  2
   7360   7359   7362   7364     1  180.0000771  0.3347200  3
   7361   7359   7362   7363     1  0.0000000  3.3472000  1
   7361   7359   7362   7363     1  0.0000000  0.0000000  2
   7361   7359   7362   7363     1  180.0000771  0.3347200  3
   7361   7359   7362   7364     1  0.0000000  3.3472000  1
   7361   7359   7362   7364     1  0.0000000  0.0000000  2
   7361   7359   7362   7364     1  180.0000771  0.3347200  3
   7366   7369   7372   7373     1  0.0000000  0.6508444  3
   7366   7369   7372   7374     1  0.0000000  0.6508444  3
   7367   7366   7369   7372     1  0.0000000  0.6508444  3
   7367   7366   7369   7370     1  0.0000000  0.6508444  3
   7367   7366   7369   7371     1  0.0000000  0.6508444  3
   7368   7366   7369   7372     1  0.0000000  0.6508444  3
   7368   7366   7369   7370     1  0.0000000  0.6508444  3
   7368   7366   7369   7371     1  0.0000000  0.6508444  3
   7370   7369   7366   7394     1  0.0000000  1.0460000  1
   7370   7369   7366   7394     1  0.0000000  0.0000000  3
   7370   7369   7372   7375     1  0.0000000  0.6508444  3
   7370   7369   7372   7373     1  0.0000000  0.6508444  3
   7370   7369   7372   7374     1  0.0000000  0.6508444  3
   7371   7369   7366   7394     1  0.0000000  1.0460000  1
   7371   7369   7366   7394     1  0.0000000  0.0000000  3
   7371   7369   7372   7375     1  0.0000000  0.6508444  3
   7371   7369   7372   7373     1  0.0000000  0.6508444  3
   7371   7369   7372   7374     1  0.0000000  0.6508444  3
   7372   7375   7376   7377     1  0.0000000  1.2552000  3
   7372   7375   7376   7378     1  0.0000000  1.2552000  3
   7372   7375   7385   7386     1  0.0000000  1.2552000  3
   7372   7375   7385   7387     1  0.0000000  1.2552000  3
   7373   7372   7375   7376     1  0.0000000  1.2552000  3
   7373   7372   7375   7385     1  0.0000000  1.2552000  3
   7374   7372   7375   7376     1  0.0000000  1.2552000  3
   7374   7372   7375   7385     1  0.0000000  1.2552000  3
   7375   7376   7379   7380     1  0.0000000  0.6508444  3
   7375   7376   7379   7381     1  0.0000000  0.6508444  3
   7375   7385   7388   7389     1  0.0000000  0.6508444  3
   7375   7385   7388   7390     1  0.0000000  0.6508444  3
   7376   7375   7385   7386     1  0.0000000  1.2552000  3
   7376   7375   7385   7387     1  0.0000000  1.2552000  3
   7377   7376   7375   7385     1  0.0000000  1.2552000  3
   7377   7376   7379   7382     1  0.0000000  0.6508444  3
   7377   7376   7379   7380     1  0.0000000  0.6508444  3
   7377   7376   7379   7381     1  0.0000000  0.6508444  3
   7378   7376   7375   7385     1  0.0000000  1.2552000  3
   7378   7376   7379   7382     1  0.0000000  0.6508444  3
   7378   7376   7379   7380     1  0.0000000  0.6508444  3
   7378   7376   7379   7381     1  0.0000000  0.6508444  3
   7380   7379   7382   7383     1  0.0000000  3.3472000  1
   7380   7379   7382   7383     1  0.0000000  0.0000000  2
   7380   7379   7382   7383     1  180.0000771  0.3347200  3
   7380   7379   7382   7384     1  0.0000000  3.3472000  1
   7380   7379   7382   7384     1  0.0000000  0.0000000  2
   7380   7379   7382   7384     1  180.0000771  0.3347200  3
   7381   7379   7382   7383     1  0.0000000  3.3472000  1
   7381   7379   7382   7383     1  0.0000000  0.0000000  2
   7381   7379   7382   7383     1  180.0000771  0.3347200  3
   7381   7379   7382   7384     1  0.0000000  3.3472000  1
   7381   7379   7382   7384     1  0.0000000  0.0000000  2
   7381   7379   7382   7384     1  180.0000771  0.3347200  3
   7386   7385   7388   7391     1  0.0000000  0.6508444  3
   7386   7385   7388   7389     1  0.0000000  0.6508444  3
   7386   7385   7388   7390     1  0.0000000  0.6508444  3
   7387   7385   7388   7391     1  0.0000000  0.6508444  3
   7387   7385   7388   7389     1  0.0000000  0.6508444  3
   7387   7385   7388   7390     1  0.0000000  0.6508444  3
   7389   7388   7391   7392     1  0.0000000  3.3472000  1
   7389   7388   7391   7392     1  0.0000000  0.0000000  2
   7389   7388   7391   7392     1  180.0000771  0.3347200  3
   7389   7388   7391   7393     1  0.0000000  3.3472000  1
   7389   7388   7391   7393     1  0.0000000  0.0000000  2
   7389   7388   7391   7393     1  180.0000771  0.3347200  3
   7390   7388   7391   7392     1  0.0000000  3.3472000  1
   7390   7388   7391   7392     1  0.0000000  0.0000000  2
   7390   7388   7391   7392     1  180.0000771  0.3347200  3
   7390   7388   7391   7393     1  0.0000000  3.3472000  1
   7390   7388   7391   7393     1  0.0000000  0.0000000  2
   7390   7388   7391   7393     1  180.0000771  0.3347200  3
   7395   7398   7401   7402     1  0.0000000  0.6508444  3
   7395   7398   7401   7403     1  0.0000000  0.6508444  3
   7396   7395   7398   7401     1  0.0000000  0.6508444  3
   7396   7395   7398   7399     1  0.0000000  0.6508444  3
   7396   7395   7398   7400     1  0.0000000  0.6508444  3
   7397   7395   7398   7401     1  0.0000000  0.6508444  3
   7397   7395   7398   7399     1  0.0000000  0.6508444  3
   7397   7395   7398   7400     1  0.0000000  0.6508444  3
   7399   7398   7401   7404     1  0.0000000  0.6508444  3
   7399   7398   7401   7402     1  0.0000000  0.6508444  3
   7399   7398   7401   7403     1  0.0000000  0.6508444  3
   7399   7398   7395   7423     1  0.0000000  1.0460000  1
   7399   7398   7395   7423     1  0.0000000  0.0000000  3
   7400   7398   7401   7404     1  0.0000000  0.6508444  3
   7400   7398   7401   7402     1  0.0000000  0.6508444  3
   7400   7398   7401   7403     1  0.0000000  0.6508444  3
   7400   7398   7395   7423     1  0.0000000  1.0460000  1
   7400   7398   7395   7423     1  0.0000000  0.0000000  3
   7401   7404   7405   7406     1  0.0000000  1.2552000  3
   7401   7404   7405   7407     1  0.0000000  1.2552000  3
   7401   7404   7414   7415     1  0.0000000  1.2552000  3
   7401   7404   7414   7416     1  0.0000000  1.2552000  3
   7402   7401   7404   7405     1  0.0000000  1.2552000  3
   7402   7401   7404   7414     1  0.0000000  1.2552000  3
   7403   7401   7404   7405     1  0.0000000  1.2552000  3
   7403   7401   7404   7414     1  0.0000000  1.2552000  3
   7404   7405   7408   7409     1  0.0000000  0.6508444  3
   7404   7405   7408   7410     1  0.0000000  0.6508444  3
   7404   7414   7417   7418     1  0.0000000  0.6508444  3
   7404   7414   7417   7419     1  0.0000000  0.6508444  3
   7405   7404   7414   7415     1  0.0000000  1.2552000  3
   7405   7404   7414   7416     1  0.0000000  1.2552000  3
   7406   7405   7408   7411     1  0.0000000  0.6508444  3
   7406   7405   7408   7409     1  0.0000000  0.6508444  3
   7406   7405   7408   7410     1  0.0000000  0.6508444  3
   7406   7405   7404   7414     1  0.0000000  1.2552000  3
   7407   7405   7408   7411     1  0.0000000  0.6508444  3
   7407   7405   7408   7409     1  0.0000000  0.6508444  3
   7407   7405   7408   7410     1  0.0000000  0.6508444  3
   7407   7405   7404   7414     1  0.0000000  1.2552000  3
   7409   7408   7411   7412     1  0.0000000  3.3472000  1
   7409   7408   7411   7412     1  0.0000000  0.0000000  2
   7409   7408   7411   7412     1  180.0000771  0.3347200  3
   7409   7408   7411   7413     1  0.0000000  3.3472000  1
   7409   7408   7411   7413     1  0.0000000  0.0000000  2
   7409   7408   7411   7413     1  180.0000771  0.3347200  3
   7410   7408   7411   7412     1  0.0000000  3.3472000  1
   7410   7408   7411   7412     1  0.0000000  0.0000000  2
   7410   7408   7411   7412     1  180.0000771  0.3347200  3
   7410   7408   7411   7413     1  0.0000000  3.3472000  1
   7410   7408   7411   7413     1  0.0000000  0.0000000  2
   7410   7408   7411   7413     1  180.0000771  0.3347200  3
   7415   7414   7417   7420     1  0.0000000  0.6508444  3
   7415   7414   7417   7418     1  0.0000000  0.6508444  3
   7415   7414   7417   7419     1  0.0000000  0.6508444  3
   7416   7414   7417   7420     1  0.0000000  0.6508444  3
   7416   7414   7417   7418     1  0.0000000  0.6508444  3
   7416   7414   7417   7419     1  0.0000000  0.6508444  3
   7418   7417   7420   7421     1  0.0000000  3.3472000  1
   7418   7417   7420   7421     1  0.0000000  0.0000000  2
   7418   7417   7420   7421     1  180.0000771  0.3347200  3
   7418   7417   7420   7422     1  0.0000000  3.3472000  1
   7418   7417   7420   7422     1  0.0000000  0.0000000  2
   7418   7417   7420   7422     1  180.0000771  0.3347200  3
   7419   7417   7420   7421     1  0.0000000  3.3472000  1
   7419   7417   7420   7421     1  0.0000000  0.0000000  2
   7419   7417   7420   7421     1  180.0000771  0.3347200  3
   7419   7417   7420   7422     1  0.0000000  3.3472000  1
   7419   7417   7420   7422     1  0.0000000  0.0000000  2
   7419   7417   7420   7422     1  180.0000771  0.3347200  3
   7424   7427   7430   7431     1  0.0000000  0.6508444  3
   7424   7427   7430   7432     1  0.0000000  0.6508444  3
   7425   7424   7427   7430     1  0.0000000  0.6508444  3
   7425   7424   7427   7428     1  0.0000000  0.6508444  3
   7425   7424   7427   7429     1  0.0000000  0.6508444  3
   7426   7424   7427   7430     1  0.0000000  0.6508444  3
   7426   7424   7427   7428     1  0.0000000  0.6508444  3
   7426   7424   7427   7429     1  0.0000000  0.6508444  3
   7428   7427   7424   7452     1  0.0000000  1.0460000  1
   7428   7427   7424   7452     1  0.0000000  0.0000000  3
   7428   7427   7430   7433     1  0.0000000  0.6508444  3
   7428   7427   7430   7431     1  0.0000000  0.6508444  3
   7428   7427   7430   7432     1  0.0000000  0.6508444  3
   7429   7427   7424   7452     1  0.0000000  1.0460000  1
   7429   7427   7424   7452     1  0.0000000  0.0000000  3
   7429   7427   7430   7433     1  0.0000000  0.6508444  3
   7429   7427   7430   7431     1  0.0000000  0.6508444  3
   7429   7427   7430   7432     1  0.0000000  0.6508444  3
   7430   7433   7434   7435     1  0.0000000  1.2552000  3
   7430   7433   7434   7436     1  0.0000000  1.2552000  3
   7430   7433   7443   7444     1  0.0000000  1.2552000  3
   7430   7433   7443   7445     1  0.0000000  1.2552000  3
   7431   7430   7433   7434     1  0.0000000  1.2552000  3
   7431   7430   7433   7443     1  0.0000000  1.2552000  3
   7432   7430   7433   7434     1  0.0000000  1.2552000  3
   7432   7430   7433   7443     1  0.0000000  1.2552000  3
   7433   7434   7437   7438     1  0.0000000  0.6508444  3
   7433   7434   7437   7439     1  0.0000000  0.6508444  3
   7433   7443   7446   7447     1  0.0000000  0.6508444  3
   7433   7443   7446   7448     1  0.0000000  0.6508444  3
   7434   7433   7443   7444     1  0.0000000  1.2552000  3
   7434   7433   7443   7445     1  0.0000000  1.2552000  3
   7435   7434   7433   7443     1  0.0000000  1.2552000  3
   7435   7434   7437   7440     1  0.0000000  0.6508444  3
   7435   7434   7437   7438     1  0.0000000  0.6508444  3
   7435   7434   7437   7439     1  0.0000000  0.6508444  3
   7436   7434   7433   7443     1  0.0000000  1.2552000  3
   7436   7434   7437   7440     1  0.0000000  0.6508444  3
   7436   7434   7437   7438     1  0.0000000  0.6508444  3
   7436   7434   7437   7439     1  0.0000000  0.6508444  3
   7438   7437   7440   7441     1  0.0000000  3.3472000  1
   7438   7437   7440   7441     1  0.0000000  0.0000000  2
   7438   7437   7440   7441     1  180.0000771  0.3347200  3
   7438   7437   7440   7442     1  0.0000000  3.3472000  1
   7438   7437   7440   7442     1  0.0000000  0.0000000  2
   7438   7437   7440   7442     1  180.0000771  0.3347200  3
   7439   7437   7440   7441     1  0.0000000  3.3472000  1
   7439   7437   7440   7441     1  0.0000000  0.0000000  2
   7439   7437   7440   7441     1  180.0000771  0.3347200  3
   7439   7437   7440   7442     1  0.0000000  3.3472000  1
   7439   7437   7440   7442     1  0.0000000  0.0000000  2
   7439   7437   7440   7442     1  180.0000771  0.3347200  3
   7444   7443   7446   7449     1  0.0000000  0.6508444  3
   7444   7443   7446   7447     1  0.0000000  0.6508444  3
   7444   7443   7446   7448     1  0.0000000  0.6508444  3
   7445   7443   7446   7449     1  0.0000000  0.6508444  3
   7445   7443   7446   7447     1  0.0000000  0.6508444  3
   7445   7443   7446   7448     1  0.0000000  0.6508444  3
   7447   7446   7449   7450     1  0.0000000  3.3472000  1
   7447   7446   7449   7450     1  0.0000000  0.0000000  2
   7447   7446   7449   7450     1  180.0000771  0.3347200  3
   7447   7446   7449   7451     1  0.0000000  3.3472000  1
   7447   7446   7449   7451     1  0.0000000  0.0000000  2
   7447   7446   7449   7451     1  180.0000771  0.3347200  3
   7448   7446   7449   7450     1  0.0000000  3.3472000  1
   7448   7446   7449   7450     1  0.0000000  0.0000000  2
   7448   7446   7449   7450     1  180.0000771  0.3347200  3
   7448   7446   7449   7451     1  0.0000000  3.3472000  1
   7448   7446   7449   7451     1  0.0000000  0.0000000  2
   7448   7446   7449   7451     1  180.0000771  0.3347200  3
   7453   7456   7459   7460     1  0.0000000  0.6508444  3
   7453   7456   7459   7461     1  0.0000000  0.6508444  3
   7454   7453   7456   7459     1  0.0000000  0.6508444  3
   7454   7453   7456   7457     1  0.0000000  0.6508444  3
   7454   7453   7456   7458     1  0.0000000  0.6508444  3
   7455   7453   7456   7459     1  0.0000000  0.6508444  3
   7455   7453   7456   7457     1  0.0000000  0.6508444  3
   7455   7453   7456   7458     1  0.0000000  0.6508444  3
   7457   7456   7459   7462     1  0.0000000  0.6508444  3
   7457   7456   7459   7460     1  0.0000000  0.6508444  3
   7457   7456   7459   7461     1  0.0000000  0.6508444  3
   7457   7456   7453   7481     1  0.0000000  1.0460000  1
   7457   7456   7453   7481     1  0.0000000  0.0000000  3
   7458   7456   7459   7462     1  0.0000000  0.6508444  3
   7458   7456   7459   7460     1  0.0000000  0.6508444  3
   7458   7456   7459   7461     1  0.0000000  0.6508444  3
   7458   7456   7453   7481     1  0.0000000  1.0460000  1
   7458   7456   7453   7481     1  0.0000000  0.0000000  3
   7459   7462   7463   7464     1  0.0000000  1.2552000  3
   7459   7462   7463   7465     1  0.0000000  1.2552000  3
   7459   7462   7472   7473     1  0.0000000  1.2552000  3
   7459   7462   7472   7474     1  0.0000000  1.2552000  3
   7460   7459   7462   7463     1  0.0000000  1.2552000  3
   7460   7459   7462   7472     1  0.0000000  1.2552000  3
   7461   7459   7462   7463     1  0.0000000  1.2552000  3
   7461   7459   7462   7472     1  0.0000000  1.2552000  3
   7462   7463   7466   7467     1  0.0000000  0.6508444  3
   7462   7463   7466   7468     1  0.0000000  0.6508444  3
   7462   7472   7475   7476     1  0.0000000  0.6508444  3
   7462   7472   7475   7477     1  0.0000000  0.6508444  3
   7463   7462   7472   7473     1  0.0000000  1.2552000  3
   7463   7462   7472   7474     1  0.0000000  1.2552000  3
   7464   7463   7466   7469     1  0.0000000  0.6508444  3
   7464   7463   7466   7467     1  0.0000000  0.6508444  3
   7464   7463   7466   7468     1  0.0000000  0.6508444  3
   7464   7463   7462   7472     1  0.0000000  1.2552000  3
   7465   7463   7466   7469     1  0.0000000  0.6508444  3
   7465   7463   7466   7467     1  0.0000000  0.6508444  3
   7465   7463   7466   7468     1  0.0000000  0.6508444  3
   7465   7463   7462   7472     1  0.0000000  1.2552000  3
   7467   7466   7469   7470     1  0.0000000  3.3472000  1
   7467   7466   7469   7470     1  0.0000000  0.0000000  2
   7467   7466   7469   7470     1  180.0000771  0.3347200  3
   7467   7466   7469   7471     1  0.0000000  3.3472000  1
   7467   7466   7469   7471     1  0.0000000  0.0000000  2
   7467   7466   7469   7471     1  180.0000771  0.3347200  3
   7468   7466   7469   7470     1  0.0000000  3.3472000  1
   7468   7466   7469   7470     1  0.0000000  0.0000000  2
   7468   7466   7469   7470     1  180.0000771  0.3347200  3
   7468   7466   7469   7471     1  0.0000000  3.3472000  1
   7468   7466   7469   7471     1  0.0000000  0.0000000  2
   7468   7466   7469   7471     1  180.0000771  0.3347200  3
   7473   7472   7475   7478     1  0.0000000  0.6508444  3
   7473   7472   7475   7476     1  0.0000000  0.6508444  3
   7473   7472   7475   7477     1  0.0000000  0.6508444  3
   7474   7472   7475   7478     1  0.0000000  0.6508444  3
   7474   7472   7475   7476     1  0.0000000  0.6508444  3
   7474   7472   7475   7477     1  0.0000000  0.6508444  3
   7476   7475   7478   7479     1  0.0000000  3.3472000  1
   7476   7475   7478   7479     1  0.0000000  0.0000000  2
   7476   7475   7478   7479     1  180.0000771  0.3347200  3
   7476   7475   7478   7480     1  0.0000000  3.3472000  1
   7476   7475   7478   7480     1  0.0000000  0.0000000  2
   7476   7475   7478   7480     1  180.0000771  0.3347200  3
   7477   7475   7478   7479     1  0.0000000  3.3472000  1
   7477   7475   7478   7479     1  0.0000000  0.0000000  2
   7477   7475   7478   7479     1  180.0000771  0.3347200  3
   7477   7475   7478   7480     1  0.0000000  3.3472000  1
   7477   7475   7478   7480     1  0.0000000  0.0000000  2
   7477   7475   7478   7480     1  180.0000771  0.3347200  3
   7482   7485   7488   7489     1  0.0000000  0.6508444  3
   7482   7485   7488   7490     1  0.0000000  0.6508444  3
   7483   7482   7485   7488     1  0.0000000  0.6508444  3
   7483   7482   7485   7486     1  0.0000000  0.6508444  3
   7483   7482   7485   7487     1  0.0000000  0.6508444  3
   7484   7482   7485   7488     1  0.0000000  0.6508444  3
   7484   7482   7485   7486     1  0.0000000  0.6508444  3
   7484   7482   7485   7487     1  0.0000000  0.6508444  3
   7486   7485   7482   7510     1  0.0000000  1.0460000  1
   7486   7485   7482   7510     1  0.0000000  0.0000000  3
   7486   7485   7488   7491     1  0.0000000  0.6508444  3
   7486   7485   7488   7489     1  0.0000000  0.6508444  3
   7486   7485   7488   7490     1  0.0000000  0.6508444  3
   7487   7485   7482   7510     1  0.0000000  1.0460000  1
   7487   7485   7482   7510     1  0.0000000  0.0000000  3
   7487   7485   7488   7491     1  0.0000000  0.6508444  3
   7487   7485   7488   7489     1  0.0000000  0.6508444  3
   7487   7485   7488   7490     1  0.0000000  0.6508444  3
   7488   7491   7492   7493     1  0.0000000  1.2552000  3
   7488   7491   7492   7494     1  0.0000000  1.2552000  3
   7488   7491   7501   7502     1  0.0000000  1.2552000  3
   7488   7491   7501   7503     1  0.0000000  1.2552000  3
   7489   7488   7491   7492     1  0.0000000  1.2552000  3
   7489   7488   7491   7501     1  0.0000000  1.2552000  3
   7490   7488   7491   7492     1  0.0000000  1.2552000  3
   7490   7488   7491   7501     1  0.0000000  1.2552000  3
   7491   7492   7495   7496     1  0.0000000  0.6508444  3
   7491   7492   7495   7497     1  0.0000000  0.6508444  3
   7491   7501   7504   7505     1  0.0000000  0.6508444  3
   7491   7501   7504   7506     1  0.0000000  0.6508444  3
   7492   7491   7501   7502     1  0.0000000  1.2552000  3
   7492   7491   7501   7503     1  0.0000000  1.2552000  3
   7493   7492   7491   7501     1  0.0000000  1.2552000  3
   7493   7492   7495   7498     1  0.0000000  0.6508444  3
   7493   7492   7495   7496     1  0.0000000  0.6508444  3
   7493   7492   7495   7497     1  0.0000000  0.6508444  3
   7494   7492   7491   7501     1  0.0000000  1.2552000  3
   7494   7492   7495   7498     1  0.0000000  0.6508444  3
   7494   7492   7495   7496     1  0.0000000  0.6508444  3
   7494   7492   7495   7497     1  0.0000000  0.6508444  3
   7496   7495   7498   7499     1  0.0000000  3.3472000  1
   7496   7495   7498   7499     1  0.0000000  0.0000000  2
   7496   7495   7498   7499     1  180.0000771  0.3347200  3
   7496   7495   7498   7500     1  0.0000000  3.3472000  1
   7496   7495   7498   7500     1  0.0000000  0.0000000  2
   7496   7495   7498   7500     1  180.0000771  0.3347200  3
   7497   7495   7498   7499     1  0.0000000  3.3472000  1
   7497   7495   7498   7499     1  0.0000000  0.0000000  2
   7497   7495   7498   7499     1  180.0000771  0.3347200  3
   7497   7495   7498   7500     1  0.0000000  3.3472000  1
   7497   7495   7498   7500     1  0.0000000  0.0000000  2
   7497   7495   7498   7500     1  180.0000771  0.3347200  3
   7502   7501   7504   7507     1  0.0000000  0.6508444  3
   7502   7501   7504   7505     1  0.0000000  0.6508444  3
   7502   7501   7504   7506     1  0.0000000  0.6508444  3
   7503   7501   7504   7507     1  0.0000000  0.6508444  3
   7503   7501   7504   7505     1  0.0000000  0.6508444  3
   7503   7501   7504   7506     1  0.0000000  0.6508444  3
   7505   7504   7507   7508     1  0.0000000  3.3472000  1
   7505   7504   7507   7508     1  0.0000000  0.0000000  2
   7505   7504   7507   7508     1  180.0000771  0.3347200  3
   7505   7504   7507   7509     1  0.0000000  3.3472000  1
   7505   7504   7507   7509     1  0.0000000  0.0000000  2
   7505   7504   7507   7509     1  180.0000771  0.3347200  3
   7506   7504   7507   7508     1  0.0000000  3.3472000  1
   7506   7504   7507   7508     1  0.0000000  0.0000000  2
   7506   7504   7507   7508     1  180.0000771  0.3347200  3
   7506   7504   7507   7509     1  0.0000000  3.3472000  1
   7506   7504   7507   7509     1  0.0000000  0.0000000  2
   7506   7504   7507   7509     1  180.0000771  0.3347200  3
   7511   7514   7517   7518     1  0.0000000  0.6508444  3
   7511   7514   7517   7519     1  0.0000000  0.6508444  3
   7512   7511   7514   7517     1  0.0000000  0.6508444  3
   7512   7511   7514   7515     1  0.0000000  0.6508444  3
   7512   7511   7514   7516     1  0.0000000  0.6508444  3
   7513   7511   7514   7517     1  0.0000000  0.6508444  3
   7513   7511   7514   7515     1  0.0000000  0.6508444  3
   7513   7511   7514   7516     1  0.0000000  0.6508444  3
   7515   7514   7517   7520     1  0.0000000  0.6508444  3
   7515   7514   7517   7518     1  0.0000000  0.6508444  3
   7515   7514   7517   7519     1  0.0000000  0.6508444  3
   7515   7514   7511   7539     1  0.0000000  1.0460000  1
   7515   7514   7511   7539     1  0.0000000  0.0000000  3
   7516   7514   7517   7520     1  0.0000000  0.6508444  3
   7516   7514   7517   7518     1  0.0000000  0.6508444  3
   7516   7514   7517   7519     1  0.0000000  0.6508444  3
   7516   7514   7511   7539     1  0.0000000  1.0460000  1
   7516   7514   7511   7539     1  0.0000000  0.0000000  3
   7517   7520   7521   7522     1  0.0000000  1.2552000  3
   7517   7520   7521   7523     1  0.0000000  1.2552000  3
   7517   7520   7530   7531     1  0.0000000  1.2552000  3
   7517   7520   7530   7532     1  0.0000000  1.2552000  3
   7518   7517   7520   7521     1  0.0000000  1.2552000  3
   7518   7517   7520   7530     1  0.0000000  1.2552000  3
   7519   7517   7520   7521     1  0.0000000  1.2552000  3
   7519   7517   7520   7530     1  0.0000000  1.2552000  3
   7520   7521   7524   7525     1  0.0000000  0.6508444  3
   7520   7521   7524   7526     1  0.0000000  0.6508444  3
   7520   7530   7533   7534     1  0.0000000  0.6508444  3
   7520   7530   7533   7535     1  0.0000000  0.6508444  3
   7521   7520   7530   7531     1  0.0000000  1.2552000  3
   7521   7520   7530   7532     1  0.0000000  1.2552000  3
   7522   7521   7524   7527     1  0.0000000  0.6508444  3
   7522   7521   7524   7525     1  0.0000000  0.6508444  3
   7522   7521   7524   7526     1  0.0000000  0.6508444  3
   7522   7521   7520   7530     1  0.0000000  1.2552000  3
   7523   7521   7524   7527     1  0.0000000  0.6508444  3
   7523   7521   7524   7525     1  0.0000000  0.6508444  3
   7523   7521   7524   7526     1  0.0000000  0.6508444  3
   7523   7521   7520   7530     1  0.0000000  1.2552000  3
   7525   7524   7527   7528     1  0.0000000  3.3472000  1
   7525   7524   7527   7528     1  0.0000000  0.0000000  2
   7525   7524   7527   7528     1  180.0000771  0.3347200  3
   7525   7524   7527   7529     1  0.0000000  3.3472000  1
   7525   7524   7527   7529     1  0.0000000  0.0000000  2
   7525   7524   7527   7529     1  180.0000771  0.3347200  3
   7526   7524   7527   7528     1  0.0000000  3.3472000  1
   7526   7524   7527   7528     1  0.0000000  0.0000000  2
   7526   7524   7527   7528     1  180.0000771  0.3347200  3
   7526   7524   7527   7529     1  0.0000000  3.3472000  1
   7526   7524   7527   7529     1  0.0000000  0.0000000  2
   7526   7524   7527   7529     1  180.0000771  0.3347200  3
   7531   7530   7533   7536     1  0.0000000  0.6508444  3
   7531   7530   7533   7534     1  0.0000000  0.6508444  3
   7531   7530   7533   7535     1  0.0000000  0.6508444  3
   7532   7530   7533   7536     1  0.0000000  0.6508444  3
   7532   7530   7533   7534     1  0.0000000  0.6508444  3
   7532   7530   7533   7535     1  0.0000000  0.6508444  3
   7534   7533   7536   7537     1  0.0000000  3.3472000  1
   7534   7533   7536   7537     1  0.0000000  0.0000000  2
   7534   7533   7536   7537     1  180.0000771  0.3347200  3
   7534   7533   7536   7538     1  0.0000000  3.3472000  1
   7534   7533   7536   7538     1  0.0000000  0.0000000  2
   7534   7533   7536   7538     1  180.0000771  0.3347200  3
   7535   7533   7536   7537     1  0.0000000  3.3472000  1
   7535   7533   7536   7537     1  0.0000000  0.0000000  2
   7535   7533   7536   7537     1  180.0000771  0.3347200  3
   7535   7533   7536   7538     1  0.0000000  3.3472000  1
   7535   7533   7536   7538     1  0.0000000  0.0000000  2
   7535   7533   7536   7538     1  180.0000771  0.3347200  3
   7540   7543   7546   7547     1  0.0000000  0.6508444  3
   7540   7543   7546   7548     1  0.0000000  0.6508444  3
   7541   7540   7543   7546     1  0.0000000  0.6508444  3
   7541   7540   7543   7544     1  0.0000000  0.6508444  3
   7541   7540   7543   7545     1  0.0000000  0.6508444  3
   7542   7540   7543   7546     1  0.0000000  0.6508444  3
   7542   7540   7543   7544     1  0.0000000  0.6508444  3
   7542   7540   7543   7545     1  0.0000000  0.6508444  3
   7544   7543   7540   7568     1  0.0000000  1.0460000  1
   7544   7543   7540   7568     1  0.0000000  0.0000000  3
   7544   7543   7546   7549     1  0.0000000  0.6508444  3
   7544   7543   7546   7547     1  0.0000000  0.6508444  3
   7544   7543   7546   7548     1  0.0000000  0.6508444  3
   7545   7543   7540   7568     1  0.0000000  1.0460000  1
   7545   7543   7540   7568     1  0.0000000  0.0000000  3
   7545   7543   7546   7549     1  0.0000000  0.6508444  3
   7545   7543   7546   7547     1  0.0000000  0.6508444  3
   7545   7543   7546   7548     1  0.0000000  0.6508444  3
   7546   7549   7550   7551     1  0.0000000  1.2552000  3
   7546   7549   7550   7552     1  0.0000000  1.2552000  3
   7546   7549   7559   7560     1  0.0000000  1.2552000  3
   7546   7549   7559   7561     1  0.0000000  1.2552000  3
   7547   7546   7549   7550     1  0.0000000  1.2552000  3
   7547   7546   7549   7559     1  0.0000000  1.2552000  3
   7548   7546   7549   7550     1  0.0000000  1.2552000  3
   7548   7546   7549   7559     1  0.0000000  1.2552000  3
   7549   7550   7553   7554     1  0.0000000  0.6508444  3
   7549   7550   7553   7555     1  0.0000000  0.6508444  3
   7549   7559   7562   7563     1  0.0000000  0.6508444  3
   7549   7559   7562   7564     1  0.0000000  0.6508444  3
   7550   7549   7559   7560     1  0.0000000  1.2552000  3
   7550   7549   7559   7561     1  0.0000000  1.2552000  3
   7551   7550   7549   7559     1  0.0000000  1.2552000  3
   7551   7550   7553   7556     1  0.0000000  0.6508444  3
   7551   7550   7553   7554     1  0.0000000  0.6508444  3
   7551   7550   7553   7555     1  0.0000000  0.6508444  3
   7552   7550   7549   7559     1  0.0000000  1.2552000  3
   7552   7550   7553   7556     1  0.0000000  0.6508444  3
   7552   7550   7553   7554     1  0.0000000  0.6508444  3
   7552   7550   7553   7555     1  0.0000000  0.6508444  3
   7554   7553   7556   7557     1  0.0000000  3.3472000  1
   7554   7553   7556   7557     1  0.0000000  0.0000000  2
   7554   7553   7556   7557     1  180.0000771  0.3347200  3
   7554   7553   7556   7558     1  0.0000000  3.3472000  1
   7554   7553   7556   7558     1  0.0000000  0.0000000  2
   7554   7553   7556   7558     1  180.0000771  0.3347200  3
   7555   7553   7556   7557     1  0.0000000  3.3472000  1
   7555   7553   7556   7557     1  0.0000000  0.0000000  2
   7555   7553   7556   7557     1  180.0000771  0.3347200  3
   7555   7553   7556   7558     1  0.0000000  3.3472000  1
   7555   7553   7556   7558     1  0.0000000  0.0000000  2
   7555   7553   7556   7558     1  180.0000771  0.3347200  3
   7560   7559   7562   7565     1  0.0000000  0.6508444  3
   7560   7559   7562   7563     1  0.0000000  0.6508444  3
   7560   7559   7562   7564     1  0.0000000  0.6508444  3
   7561   7559   7562   7565     1  0.0000000  0.6508444  3
   7561   7559   7562   7563     1  0.0000000  0.6508444  3
   7561   7559   7562   7564     1  0.0000000  0.6508444  3
   7563   7562   7565   7566     1  0.0000000  3.3472000  1
   7563   7562   7565   7566     1  0.0000000  0.0000000  2
   7563   7562   7565   7566     1  180.0000771  0.3347200  3
   7563   7562   7565   7567     1  0.0000000  3.3472000  1
   7563   7562   7565   7567     1  0.0000000  0.0000000  2
   7563   7562   7565   7567     1  180.0000771  0.3347200  3
   7564   7562   7565   7566     1  0.0000000  3.3472000  1
   7564   7562   7565   7566     1  0.0000000  0.0000000  2
   7564   7562   7565   7566     1  180.0000771  0.3347200  3
   7564   7562   7565   7567     1  0.0000000  3.3472000  1
   7564   7562   7565   7567     1  0.0000000  0.0000000  2
   7564   7562   7565   7567     1  180.0000771  0.3347200  3
   7569   7572   7575   7576     1  0.0000000  0.6508444  3
   7569   7572   7575   7577     1  0.0000000  0.6508444  3
   7570   7569   7572   7575     1  0.0000000  0.6508444  3
   7570   7569   7572   7573     1  0.0000000  0.6508444  3
   7570   7569   7572   7574     1  0.0000000  0.6508444  3
   7571   7569   7572   7575     1  0.0000000  0.6508444  3
   7571   7569   7572   7573     1  0.0000000  0.6508444  3
   7571   7569   7572   7574     1  0.0000000  0.6508444  3
   7573   7572   7575   7578     1  0.0000000  0.6508444  3
   7573   7572   7575   7576     1  0.0000000  0.6508444  3
   7573   7572   7575   7577     1  0.0000000  0.6508444  3
   7573   7572   7569   7597     1  0.0000000  1.0460000  1
   7573   7572   7569   7597     1  0.0000000  0.0000000  3
   7574   7572   7575   7578     1  0.0000000  0.6508444  3
   7574   7572   7575   7576     1  0.0000000  0.6508444  3
   7574   7572   7575   7577     1  0.0000000  0.6508444  3
   7574   7572   7569   7597     1  0.0000000  1.0460000  1
   7574   7572   7569   7597     1  0.0000000  0.0000000  3
   7575   7578   7579   7580     1  0.0000000  1.2552000  3
   7575   7578   7579   7581     1  0.0000000  1.2552000  3
   7575   7578   7588   7589     1  0.0000000  1.2552000  3
   7575   7578   7588   7590     1  0.0000000  1.2552000  3
   7576   7575   7578   7579     1  0.0000000  1.2552000  3
   7576   7575   7578   7588     1  0.0000000  1.2552000  3
   7577   7575   7578   7579     1  0.0000000  1.2552000  3
   7577   7575   7578   7588     1  0.0000000  1.2552000  3
   7578   7579   7582   7583     1  0.0000000  0.6508444  3
   7578   7579   7582   7584     1  0.0000000  0.6508444  3
   7578   7588   7591   7592     1  0.0000000  0.6508444  3
   7578   7588   7591   7593     1  0.0000000  0.6508444  3
   7579   7578   7588   7589     1  0.0000000  1.2552000  3
   7579   7578   7588   7590     1  0.0000000  1.2552000  3
   7580   7579   7582   7585     1  0.0000000  0.6508444  3
   7580   7579   7582   7583     1  0.0000000  0.6508444  3
   7580   7579   7582   7584     1  0.0000000  0.6508444  3
   7580   7579   7578   7588     1  0.0000000  1.2552000  3
   7581   7579   7582   7585     1  0.0000000  0.6508444  3
   7581   7579   7582   7583     1  0.0000000  0.6508444  3
   7581   7579   7582   7584     1  0.0000000  0.6508444  3
   7581   7579   7578   7588     1  0.0000000  1.2552000  3
   7583   7582   7585   7586     1  0.0000000  3.3472000  1
   7583   7582   7585   7586     1  0.0000000  0.0000000  2
   7583   7582   7585   7586     1  180.0000771  0.3347200  3
   7583   7582   7585   7587     1  0.0000000  3.3472000  1
   7583   7582   7585   7587     1  0.0000000  0.0000000  2
   7583   7582   7585   7587     1  180.0000771  0.3347200  3
   7584   7582   7585   7586     1  0.0000000  3.3472000  1
   7584   7582   7585   7586     1  0.0000000  0.0000000  2
   7584   7582   7585   7586     1  180.0000771  0.3347200  3
   7584   7582   7585   7587     1  0.0000000  3.3472000  1
   7584   7582   7585   7587     1  0.0000000  0.0000000  2
   7584   7582   7585   7587     1  180.0000771  0.3347200  3
   7589   7588   7591   7594     1  0.0000000  0.6508444  3
   7589   7588   7591   7592     1  0.0000000  0.6508444  3
   7589   7588   7591   7593     1  0.0000000  0.6508444  3
   7590   7588   7591   7594     1  0.0000000  0.6508444  3
   7590   7588   7591   7592     1  0.0000000  0.6508444  3
   7590   7588   7591   7593     1  0.0000000  0.6508444  3
   7592   7591   7594   7595     1  0.0000000  3.3472000  1
   7592   7591   7594   7595     1  0.0000000  0.0000000  2
   7592   7591   7594   7595     1  180.0000771  0.3347200  3
   7592   7591   7594   7596     1  0.0000000  3.3472000  1
   7592   7591   7594   7596     1  0.0000000  0.0000000  2
   7592   7591   7594   7596     1  180.0000771  0.3347200  3
   7593   7591   7594   7595     1  0.0000000  3.3472000  1
   7593   7591   7594   7595     1  0.0000000  0.0000000  2
   7593   7591   7594   7595     1  180.0000771  0.3347200  3
   7593   7591   7594   7596     1  0.0000000  3.3472000  1
   7593   7591   7594   7596     1  0.0000000  0.0000000  2
   7593   7591   7594   7596     1  180.0000771  0.3347200  3
   7598   7601   7604   7605     1  0.0000000  0.6508444  3
   7598   7601   7604   7606     1  0.0000000  0.6508444  3
   7599   7598   7601   7604     1  0.0000000  0.6508444  3
   7599   7598   7601   7602     1  0.0000000  0.6508444  3
   7599   7598   7601   7603     1  0.0000000  0.6508444  3
   7600   7598   7601   7604     1  0.0000000  0.6508444  3
   7600   7598   7601   7602     1  0.0000000  0.6508444  3
   7600   7598   7601   7603     1  0.0000000  0.6508444  3
   7602   7601   7598   7626     1  0.0000000  1.0460000  1
   7602   7601   7598   7626     1  0.0000000  0.0000000  3
   7602   7601   7604   7607     1  0.0000000  0.6508444  3
   7602   7601   7604   7605     1  0.0000000  0.6508444  3
   7602   7601   7604   7606     1  0.0000000  0.6508444  3
   7603   7601   7598   7626     1  0.0000000  1.0460000  1
   7603   7601   7598   7626     1  0.0000000  0.0000000  3
   7603   7601   7604   7607     1  0.0000000  0.6508444  3
   7603   7601   7604   7605     1  0.0000000  0.6508444  3
   7603   7601   7604   7606     1  0.0000000  0.6508444  3
   7604   7607   7608   7609     1  0.0000000  1.2552000  3
   7604   7607   7608   7610     1  0.0000000  1.2552000  3
   7604   7607   7617   7618     1  0.0000000  1.2552000  3
   7604   7607   7617   7619     1  0.0000000  1.2552000  3
   7605   7604   7607   7608     1  0.0000000  1.2552000  3
   7605   7604   7607   7617     1  0.0000000  1.2552000  3
   7606   7604   7607   7608     1  0.0000000  1.2552000  3
   7606   7604   7607   7617     1  0.0000000  1.2552000  3
   7607   7608   7611   7612     1  0.0000000  0.6508444  3
   7607   7608   7611   7613     1  0.0000000  0.6508444  3
   7607   7617   7620   7621     1  0.0000000  0.6508444  3
   7607   7617   7620   7622     1  0.0000000  0.6508444  3
   7608   7607   7617   7618     1  0.0000000  1.2552000  3
   7608   7607   7617   7619     1  0.0000000  1.2552000  3
   7609   7608   7607   7617     1  0.0000000  1.2552000  3
   7609   7608   7611   7614     1  0.0000000  0.6508444  3
   7609   7608   7611   7612     1  0.0000000  0.6508444  3
   7609   7608   7611   7613     1  0.0000000  0.6508444  3
   7610   7608   7607   7617     1  0.0000000  1.2552000  3
   7610   7608   7611   7614     1  0.0000000  0.6508444  3
   7610   7608   7611   7612     1  0.0000000  0.6508444  3
   7610   7608   7611   7613     1  0.0000000  0.6508444  3
   7612   7611   7614   7615     1  0.0000000  3.3472000  1
   7612   7611   7614   7615     1  0.0000000  0.0000000  2
   7612   7611   7614   7615     1  180.0000771  0.3347200  3
   7612   7611   7614   7616     1  0.0000000  3.3472000  1
   7612   7611   7614   7616     1  0.0000000  0.0000000  2
   7612   7611   7614   7616     1  180.0000771  0.3347200  3
   7613   7611   7614   7615     1  0.0000000  3.3472000  1
   7613   7611   7614   7615     1  0.0000000  0.0000000  2
   7613   7611   7614   7615     1  180.0000771  0.3347200  3
   7613   7611   7614   7616     1  0.0000000  3.3472000  1
   7613   7611   7614   7616     1  0.0000000  0.0000000  2
   7613   7611   7614   7616     1  180.0000771  0.3347200  3
   7618   7617   7620   7623     1  0.0000000  0.6508444  3
   7618   7617   7620   7621     1  0.0000000  0.6508444  3
   7618   7617   7620   7622     1  0.0000000  0.6508444  3
   7619   7617   7620   7623     1  0.0000000  0.6508444  3
   7619   7617   7620   7621     1  0.0000000  0.6508444  3
   7619   7617   7620   7622     1  0.0000000  0.6508444  3
   7621   7620   7623   7624     1  0.0000000  3.3472000  1
   7621   7620   7623   7624     1  0.0000000  0.0000000  2
   7621   7620   7623   7624     1  180.0000771  0.3347200  3
   7621   7620   7623   7625     1  0.0000000  3.3472000  1
   7621   7620   7623   7625     1  0.0000000  0.0000000  2
   7621   7620   7623   7625     1  180.0000771  0.3347200  3
   7622   7620   7623   7624     1  0.0000000  3.3472000  1
   7622   7620   7623   7624     1  0.0000000  0.0000000  2
   7622   7620   7623   7624     1  180.0000771  0.3347200  3
   7622   7620   7623   7625     1  0.0000000  3.3472000  1
   7622   7620   7623   7625     1  0.0000000  0.0000000  2
   7622   7620   7623   7625     1  180.0000771  0.3347200  3
   7627   7630   7633   7634     1  0.0000000  0.6508444  3
   7627   7630   7633   7635     1  0.0000000  0.6508444  3
   7628   7627   7630   7633     1  0.0000000  0.6508444  3
   7628   7627   7630   7631     1  0.0000000  0.6508444  3
   7628   7627   7630   7632     1  0.0000000  0.6508444  3
   7629   7627   7630   7633     1  0.0000000  0.6508444  3
   7629   7627   7630   7631     1  0.0000000  0.6508444  3
   7629   7627   7630   7632     1  0.0000000  0.6508444  3
   7631   7630   7633   7636     1  0.0000000  0.6508444  3
   7631   7630   7633   7634     1  0.0000000  0.6508444  3
   7631   7630   7633   7635     1  0.0000000  0.6508444  3
   7631   7630   7627   7655     1  0.0000000  1.0460000  1
   7631   7630   7627   7655     1  0.0000000  0.0000000  3
   7632   7630   7633   7636     1  0.0000000  0.6508444  3
   7632   7630   7633   7634     1  0.0000000  0.6508444  3
   7632   7630   7633   7635     1  0.0000000  0.6508444  3
   7632   7630   7627   7655     1  0.0000000  1.0460000  1
   7632   7630   7627   7655     1  0.0000000  0.0000000  3
   7633   7636   7637   7638     1  0.0000000  1.2552000  3
   7633   7636   7637   7639     1  0.0000000  1.2552000  3
   7633   7636   7646   7647     1  0.0000000  1.2552000  3
   7633   7636   7646   7648     1  0.0000000  1.2552000  3
   7634   7633   7636   7637     1  0.0000000  1.2552000  3
   7634   7633   7636   7646     1  0.0000000  1.2552000  3
   7635   7633   7636   7637     1  0.0000000  1.2552000  3
   7635   7633   7636   7646     1  0.0000000  1.2552000  3
   7636   7637   7640   7641     1  0.0000000  0.6508444  3
   7636   7637   7640   7642     1  0.0000000  0.6508444  3
   7636   7646   7649   7650     1  0.0000000  0.6508444  3
   7636   7646   7649   7651     1  0.0000000  0.6508444  3
   7637   7636   7646   7647     1  0.0000000  1.2552000  3
   7637   7636   7646   7648     1  0.0000000  1.2552000  3
   7638   7637   7640   7643     1  0.0000000  0.6508444  3
   7638   7637   7640   7641     1  0.0000000  0.6508444  3
   7638   7637   7640   7642     1  0.0000000  0.6508444  3
   7638   7637   7636   7646     1  0.0000000  1.2552000  3
   7639   7637   7640   7643     1  0.0000000  0.6508444  3
   7639   7637   7640   7641     1  0.0000000  0.6508444  3
   7639   7637   7640   7642     1  0.0000000  0.6508444  3
   7639   7637   7636   7646     1  0.0000000  1.2552000  3
   7641   7640   7643   7644     1  0.0000000  3.3472000  1
   7641   7640   7643   7644     1  0.0000000  0.0000000  2
   7641   7640   7643   7644     1  180.0000771  0.3347200  3
   7641   7640   7643   7645     1  0.0000000  3.3472000  1
   7641   7640   7643   7645     1  0.0000000  0.0000000  2
   7641   7640   7643   7645     1  180.0000771  0.3347200  3
   7642   7640   7643   7644     1  0.0000000  3.3472000  1
   7642   7640   7643   7644     1  0.0000000  0.0000000  2
   7642   7640   7643   7644     1  180.0000771  0.3347200  3
   7642   7640   7643   7645     1  0.0000000  3.3472000  1
   7642   7640   7643   7645     1  0.0000000  0.0000000  2
   7642   7640   7643   7645     1  180.0000771  0.3347200  3
   7647   7646   7649   7652     1  0.0000000  0.6508444  3
   7647   7646   7649   7650     1  0.0000000  0.6508444  3
   7647   7646   7649   7651     1  0.0000000  0.6508444  3
   7648   7646   7649   7652     1  0.0000000  0.6508444  3
   7648   7646   7649   7650     1  0.0000000  0.6508444  3
   7648   7646   7649   7651     1  0.0000000  0.6508444  3
   7650   7649   7652   7653     1  0.0000000  3.3472000  1
   7650   7649   7652   7653     1  0.0000000  0.0000000  2
   7650   7649   7652   7653     1  180.0000771  0.3347200  3
   7650   7649   7652   7654     1  0.0000000  3.3472000  1
   7650   7649   7652   7654     1  0.0000000  0.0000000  2
   7650   7649   7652   7654     1  180.0000771  0.3347200  3
   7651   7649   7652   7653     1  0.0000000  3.3472000  1
   7651   7649   7652   7653     1  0.0000000  0.0000000  2
   7651   7649   7652   7653     1  180.0000771  0.3347200  3
   7651   7649   7652   7654     1  0.0000000  3.3472000  1
   7651   7649   7652   7654     1  0.0000000  0.0000000  2
   7651   7649   7652   7654     1  180.0000771  0.3347200  3
   7656   7659   7662   7663     1  0.0000000  0.6508444  3
   7656   7659   7662   7664     1  0.0000000  0.6508444  3
   7657   7656   7659   7662     1  0.0000000  0.6508444  3
   7657   7656   7659   7660     1  0.0000000  0.6508444  3
   7657   7656   7659   7661     1  0.0000000  0.6508444  3
   7658   7656   7659   7662     1  0.0000000  0.6508444  3
   7658   7656   7659   7660     1  0.0000000  0.6508444  3
   7658   7656   7659   7661     1  0.0000000  0.6508444  3
   7660   7659   7656   7684     1  0.0000000  1.0460000  1
   7660   7659   7656   7684     1  0.0000000  0.0000000  3
   7660   7659   7662   7665     1  0.0000000  0.6508444  3
   7660   7659   7662   7663     1  0.0000000  0.6508444  3
   7660   7659   7662   7664     1  0.0000000  0.6508444  3
   7661   7659   7656   7684     1  0.0000000  1.0460000  1
   7661   7659   7656   7684     1  0.0000000  0.0000000  3
   7661   7659   7662   7665     1  0.0000000  0.6508444  3
   7661   7659   7662   7663     1  0.0000000  0.6508444  3
   7661   7659   7662   7664     1  0.0000000  0.6508444  3
   7662   7665   7666   7667     1  0.0000000  1.2552000  3
   7662   7665   7666   7668     1  0.0000000  1.2552000  3
   7662   7665   7675   7676     1  0.0000000  1.2552000  3
   7662   7665   7675   7677     1  0.0000000  1.2552000  3
   7663   7662   7665   7666     1  0.0000000  1.2552000  3
   7663   7662   7665   7675     1  0.0000000  1.2552000  3
   7664   7662   7665   7666     1  0.0000000  1.2552000  3
   7664   7662   7665   7675     1  0.0000000  1.2552000  3
   7665   7666   7669   7670     1  0.0000000  0.6508444  3
   7665   7666   7669   7671     1  0.0000000  0.6508444  3
   7665   7675   7678   7679     1  0.0000000  0.6508444  3
   7665   7675   7678   7680     1  0.0000000  0.6508444  3
   7666   7665   7675   7676     1  0.0000000  1.2552000  3
   7666   7665   7675   7677     1  0.0000000  1.2552000  3
   7667   7666   7665   7675     1  0.0000000  1.2552000  3
   7667   7666   7669   7672     1  0.0000000  0.6508444  3
   7667   7666   7669   7670     1  0.0000000  0.6508444  3
   7667   7666   7669   7671     1  0.0000000  0.6508444  3
   7668   7666   7665   7675     1  0.0000000  1.2552000  3
   7668   7666   7669   7672     1  0.0000000  0.6508444  3
   7668   7666   7669   7670     1  0.0000000  0.6508444  3
   7668   7666   7669   7671     1  0.0000000  0.6508444  3
   7670   7669   7672   7673     1  0.0000000  3.3472000  1
   7670   7669   7672   7673     1  0.0000000  0.0000000  2
   7670   7669   7672   7673     1  180.0000771  0.3347200  3
   7670   7669   7672   7674     1  0.0000000  3.3472000  1
   7670   7669   7672   7674     1  0.0000000  0.0000000  2
   7670   7669   7672   7674     1  180.0000771  0.3347200  3
   7671   7669   7672   7673     1  0.0000000  3.3472000  1
   7671   7669   7672   7673     1  0.0000000  0.0000000  2
   7671   7669   7672   7673     1  180.0000771  0.3347200  3
   7671   7669   7672   7674     1  0.0000000  3.3472000  1
   7671   7669   7672   7674     1  0.0000000  0.0000000  2
   7671   7669   7672   7674     1  180.0000771  0.3347200  3
   7676   7675   7678   7681     1  0.0000000  0.6508444  3
   7676   7675   7678   7679     1  0.0000000  0.6508444  3
   7676   7675   7678   7680     1  0.0000000  0.6508444  3
   7677   7675   7678   7681     1  0.0000000  0.6508444  3
   7677   7675   7678   7679     1  0.0000000  0.6508444  3
   7677   7675   7678   7680     1  0.0000000  0.6508444  3
   7679   7678   7681   7682     1  0.0000000  3.3472000  1
   7679   7678   7681   7682     1  0.0000000  0.0000000  2
   7679   7678   7681   7682     1  180.0000771  0.3347200  3
   7679   7678   7681   7683     1  0.0000000  3.3472000  1
   7679   7678   7681   7683     1  0.0000000  0.0000000  2
   7679   7678   7681   7683     1  180.0000771  0.3347200  3
   7680   7678   7681   7682     1  0.0000000  3.3472000  1
   7680   7678   7681   7682     1  0.0000000  0.0000000  2
   7680   7678   7681   7682     1  180.0000771  0.3347200  3
   7680   7678   7681   7683     1  0.0000000  3.3472000  1
   7680   7678   7681   7683     1  0.0000000  0.0000000  2
   7680   7678   7681   7683     1  180.0000771  0.3347200  3
   7685   7688   7691   7692     1  0.0000000  0.6508444  3
   7685   7688   7691   7693     1  0.0000000  0.6508444  3
   7686   7685   7688   7691     1  0.0000000  0.6508444  3
   7686   7685   7688   7689     1  0.0000000  0.6508444  3
   7686   7685   7688   7690     1  0.0000000  0.6508444  3
   7687   7685   7688   7691     1  0.0000000  0.6508444  3
   7687   7685   7688   7689     1  0.0000000  0.6508444  3
   7687   7685   7688   7690     1  0.0000000  0.6508444  3
   7689   7688   7691   7694     1  0.0000000  0.6508444  3
   7689   7688   7691   7692     1  0.0000000  0.6508444  3
   7689   7688   7691   7693     1  0.0000000  0.6508444  3
   7689   7688   7685   7713     1  0.0000000  1.0460000  1
   7689   7688   7685   7713     1  0.0000000  0.0000000  3
   7690   7688   7691   7694     1  0.0000000  0.6508444  3
   7690   7688   7691   7692     1  0.0000000  0.6508444  3
   7690   7688   7691   7693     1  0.0000000  0.6508444  3
   7690   7688   7685   7713     1  0.0000000  1.0460000  1
   7690   7688   7685   7713     1  0.0000000  0.0000000  3
   7691   7694   7695   7696     1  0.0000000  1.2552000  3
   7691   7694   7695   7697     1  0.0000000  1.2552000  3
   7691   7694   7704   7705     1  0.0000000  1.2552000  3
   7691   7694   7704   7706     1  0.0000000  1.2552000  3
   7692   7691   7694   7695     1  0.0000000  1.2552000  3
   7692   7691   7694   7704     1  0.0000000  1.2552000  3
   7693   7691   7694   7695     1  0.0000000  1.2552000  3
   7693   7691   7694   7704     1  0.0000000  1.2552000  3
   7694   7695   7698   7699     1  0.0000000  0.6508444  3
   7694   7695   7698   7700     1  0.0000000  0.6508444  3
   7694   7704   7707   7708     1  0.0000000  0.6508444  3
   7694   7704   7707   7709     1  0.0000000  0.6508444  3
   7695   7694   7704   7705     1  0.0000000  1.2552000  3
   7695   7694   7704   7706     1  0.0000000  1.2552000  3
   7696   7695   7698   7701     1  0.0000000  0.6508444  3
   7696   7695   7698   7699     1  0.0000000  0.6508444  3
   7696   7695   7698   7700     1  0.0000000  0.6508444  3
   7696   7695   7694   7704     1  0.0000000  1.2552000  3
   7697   7695   7698   7701     1  0.0000000  0.6508444  3
   7697   7695   7698   7699     1  0.0000000  0.6508444  3
   7697   7695   7698   7700     1  0.0000000  0.6508444  3
   7697   7695   7694   7704     1  0.0000000  1.2552000  3
   7699   7698   7701   7702     1  0.0000000  3.3472000  1
   7699   7698   7701   7702     1  0.0000000  0.0000000  2
   7699   7698   7701   7702     1  180.0000771  0.3347200  3
   7699   7698   7701   7703     1  0.0000000  3.3472000  1
   7699   7698   7701   7703     1  0.0000000  0.0000000  2
   7699   7698   7701   7703     1  180.0000771  0.3347200  3
   7700   7698   7701   7702     1  0.0000000  3.3472000  1
   7700   7698   7701   7702     1  0.0000000  0.0000000  2
   7700   7698   7701   7702     1  180.0000771  0.3347200  3
   7700   7698   7701   7703     1  0.0000000  3.3472000  1
   7700   7698   7701   7703     1  0.0000000  0.0000000  2
   7700   7698   7701   7703     1  180.0000771  0.3347200  3
   7705   7704   7707   7710     1  0.0000000  0.6508444  3
   7705   7704   7707   7708     1  0.0000000  0.6508444  3
   7705   7704   7707   7709     1  0.0000000  0.6508444  3
   7706   7704   7707   7710     1  0.0000000  0.6508444  3
   7706   7704   7707   7708     1  0.0000000  0.6508444  3
   7706   7704   7707   7709     1  0.0000000  0.6508444  3
   7708   7707   7710   7711     1  0.0000000  3.3472000  1
   7708   7707   7710   7711     1  0.0000000  0.0000000  2
   7708   7707   7710   7711     1  180.0000771  0.3347200  3
   7708   7707   7710   7712     1  0.0000000  3.3472000  1
   7708   7707   7710   7712     1  0.0000000  0.0000000  2
   7708   7707   7710   7712     1  180.0000771  0.3347200  3
   7709   7707   7710   7711     1  0.0000000  3.3472000  1
   7709   7707   7710   7711     1  0.0000000  0.0000000  2
   7709   7707   7710   7711     1  180.0000771  0.3347200  3
   7709   7707   7710   7712     1  0.0000000  3.3472000  1
   7709   7707   7710   7712     1  0.0000000  0.0000000  2
   7709   7707   7710   7712     1  180.0000771  0.3347200  3
   7714   7717   7720   7721     1  0.0000000  0.6508444  3
   7714   7717   7720   7722     1  0.0000000  0.6508444  3
   7715   7714   7717   7720     1  0.0000000  0.6508444  3
   7715   7714   7717   7718     1  0.0000000  0.6508444  3
   7715   7714   7717   7719     1  0.0000000  0.6508444  3
   7716   7714   7717   7720     1  0.0000000  0.6508444  3
   7716   7714   7717   7718     1  0.0000000  0.6508444  3
   7716   7714   7717   7719     1  0.0000000  0.6508444  3
   7718   7717   7714   7742     1  0.0000000  1.0460000  1
   7718   7717   7714   7742     1  0.0000000  0.0000000  3
   7718   7717   7720   7723     1  0.0000000  0.6508444  3
   7718   7717   7720   7721     1  0.0000000  0.6508444  3
   7718   7717   7720   7722     1  0.0000000  0.6508444  3
   7719   7717   7714   7742     1  0.0000000  1.0460000  1
   7719   7717   7714   7742     1  0.0000000  0.0000000  3
   7719   7717   7720   7723     1  0.0000000  0.6508444  3
   7719   7717   7720   7721     1  0.0000000  0.6508444  3
   7719   7717   7720   7722     1  0.0000000  0.6508444  3
   7720   7723   7724   7725     1  0.0000000  1.2552000  3
   7720   7723   7724   7726     1  0.0000000  1.2552000  3
   7720   7723   7733   7734     1  0.0000000  1.2552000  3
   7720   7723   7733   7735     1  0.0000000  1.2552000  3
   7721   7720   7723   7724     1  0.0000000  1.2552000  3
   7721   7720   7723   7733     1  0.0000000  1.2552000  3
   7722   7720   7723   7724     1  0.0000000  1.2552000  3
   7722   7720   7723   7733     1  0.0000000  1.2552000  3
   7723   7724   7727   7728     1  0.0000000  0.6508444  3
   7723   7724   7727   7729     1  0.0000000  0.6508444  3
   7723   7733   7736   7737     1  0.0000000  0.6508444  3
   7723   7733   7736   7738     1  0.0000000  0.6508444  3
   7724   7723   7733   7734     1  0.0000000  1.2552000  3
   7724   7723   7733   7735     1  0.0000000  1.2552000  3
   7725   7724   7723   7733     1  0.0000000  1.2552000  3
   7725   7724   7727   7730     1  0.0000000  0.6508444  3
   7725   7724   7727   7728     1  0.0000000  0.6508444  3
   7725   7724   7727   7729     1  0.0000000  0.6508444  3
   7726   7724   7723   7733     1  0.0000000  1.2552000  3
   7726   7724   7727   7730     1  0.0000000  0.6508444  3
   7726   7724   7727   7728     1  0.0000000  0.6508444  3
   7726   7724   7727   7729     1  0.0000000  0.6508444  3
   7728   7727   7730   7731     1  0.0000000  3.3472000  1
   7728   7727   7730   7731     1  0.0000000  0.0000000  2
   7728   7727   7730   7731     1  180.0000771  0.3347200  3
   7728   7727   7730   7732     1  0.0000000  3.3472000  1
   7728   7727   7730   7732     1  0.0000000  0.0000000  2
   7728   7727   7730   7732     1  180.0000771  0.3347200  3
   7729   7727   7730   7731     1  0.0000000  3.3472000  1
   7729   7727   7730   7731     1  0.0000000  0.0000000  2
   7729   7727   7730   7731     1  180.0000771  0.3347200  3
   7729   7727   7730   7732     1  0.0000000  3.3472000  1
   7729   7727   7730   7732     1  0.0000000  0.0000000  2
   7729   7727   7730   7732     1  180.0000771  0.3347200  3
   7734   7733   7736   7739     1  0.0000000  0.6508444  3
   7734   7733   7736   7737     1  0.0000000  0.6508444  3
   7734   7733   7736   7738     1  0.0000000  0.6508444  3
   7735   7733   7736   7739     1  0.0000000  0.6508444  3
   7735   7733   7736   7737     1  0.0000000  0.6508444  3
   7735   7733   7736   7738     1  0.0000000  0.6508444  3
   7737   7736   7739   7740     1  0.0000000  3.3472000  1
   7737   7736   7739   7740     1  0.0000000  0.0000000  2
   7737   7736   7739   7740     1  180.0000771  0.3347200  3
   7737   7736   7739   7741     1  0.0000000  3.3472000  1
   7737   7736   7739   7741     1  0.0000000  0.0000000  2
   7737   7736   7739   7741     1  180.0000771  0.3347200  3
   7738   7736   7739   7740     1  0.0000000  3.3472000  1
   7738   7736   7739   7740     1  0.0000000  0.0000000  2
   7738   7736   7739   7740     1  180.0000771  0.3347200  3
   7738   7736   7739   7741     1  0.0000000  3.3472000  1
   7738   7736   7739   7741     1  0.0000000  0.0000000  2
   7738   7736   7739   7741     1  180.0000771  0.3347200  3
   7743   7746   7749   7750     1  0.0000000  0.6508444  3
   7743   7746   7749   7751     1  0.0000000  0.6508444  3
   7744   7743   7746   7749     1  0.0000000  0.6508444  3
   7744   7743   7746   7747     1  0.0000000  0.6508444  3
   7744   7743   7746   7748     1  0.0000000  0.6508444  3
   7745   7743   7746   7749     1  0.0000000  0.6508444  3
   7745   7743   7746   7747     1  0.0000000  0.6508444  3
   7745   7743   7746   7748     1  0.0000000  0.6508444  3
   7747   7746   7749   7752     1  0.0000000  0.6508444  3
   7747   7746   7749   7750     1  0.0000000  0.6508444  3
   7747   7746   7749   7751     1  0.0000000  0.6508444  3
   7747   7746   7743   7771     1  0.0000000  1.0460000  1
   7747   7746   7743   7771     1  0.0000000  0.0000000  3
   7748   7746   7749   7752     1  0.0000000  0.6508444  3
   7748   7746   7749   7750     1  0.0000000  0.6508444  3
   7748   7746   7749   7751     1  0.0000000  0.6508444  3
   7748   7746   7743   7771     1  0.0000000  1.0460000  1
   7748   7746   7743   7771     1  0.0000000  0.0000000  3
   7749   7752   7753   7754     1  0.0000000  1.2552000  3
   7749   7752   7753   7755     1  0.0000000  1.2552000  3
   7749   7752   7762   7763     1  0.0000000  1.2552000  3
   7749   7752   7762   7764     1  0.0000000  1.2552000  3
   7750   7749   7752   7753     1  0.0000000  1.2552000  3
   7750   7749   7752   7762     1  0.0000000  1.2552000  3
   7751   7749   7752   7753     1  0.0000000  1.2552000  3
   7751   7749   7752   7762     1  0.0000000  1.2552000  3
   7752   7753   7756   7757     1  0.0000000  0.6508444  3
   7752   7753   7756   7758     1  0.0000000  0.6508444  3
   7752   7762   7765   7766     1  0.0000000  0.6508444  3
   7752   7762   7765   7767     1  0.0000000  0.6508444  3
   7753   7752   7762   7763     1  0.0000000  1.2552000  3
   7753   7752   7762   7764     1  0.0000000  1.2552000  3
   7754   7753   7756   7759     1  0.0000000  0.6508444  3
   7754   7753   7756   7757     1  0.0000000  0.6508444  3
   7754   7753   7756   7758     1  0.0000000  0.6508444  3
   7754   7753   7752   7762     1  0.0000000  1.2552000  3
   7755   7753   7756   7759     1  0.0000000  0.6508444  3
   7755   7753   7756   7757     1  0.0000000  0.6508444  3
   7755   7753   7756   7758     1  0.0000000  0.6508444  3
   7755   7753   7752   7762     1  0.0000000  1.2552000  3
   7757   7756   7759   7760     1  0.0000000  3.3472000  1
   7757   7756   7759   7760     1  0.0000000  0.0000000  2
   7757   7756   7759   7760     1  180.0000771  0.3347200  3
   7757   7756   7759   7761     1  0.0000000  3.3472000  1
   7757   7756   7759   7761     1  0.0000000  0.0000000  2
   7757   7756   7759   7761     1  180.0000771  0.3347200  3
   7758   7756   7759   7760     1  0.0000000  3.3472000  1
   7758   7756   7759   7760     1  0.0000000  0.0000000  2
   7758   7756   7759   7760     1  180.0000771  0.3347200  3
   7758   7756   7759   7761     1  0.0000000  3.3472000  1
   7758   7756   7759   7761     1  0.0000000  0.0000000  2
   7758   7756   7759   7761     1  180.0000771  0.3347200  3
   7763   7762   7765   7768     1  0.0000000  0.6508444  3
   7763   7762   7765   7766     1  0.0000000  0.6508444  3
   7763   7762   7765   7767     1  0.0000000  0.6508444  3
   7764   7762   7765   7768     1  0.0000000  0.6508444  3
   7764   7762   7765   7766     1  0.0000000  0.6508444  3
   7764   7762   7765   7767     1  0.0000000  0.6508444  3
   7766   7765   7768   7769     1  0.0000000  3.3472000  1
   7766   7765   7768   7769     1  0.0000000  0.0000000  2
   7766   7765   7768   7769     1  180.0000771  0.3347200  3
   7766   7765   7768   7770     1  0.0000000  3.3472000  1
   7766   7765   7768   7770     1  0.0000000  0.0000000  2
   7766   7765   7768   7770     1  180.0000771  0.3347200  3
   7767   7765   7768   7769     1  0.0000000  3.3472000  1
   7767   7765   7768   7769     1  0.0000000  0.0000000  2
   7767   7765   7768   7769     1  180.0000771  0.3347200  3
   7767   7765   7768   7770     1  0.0000000  3.3472000  1
   7767   7765   7768   7770     1  0.0000000  0.0000000  2
   7767   7765   7768   7770     1  180.0000771  0.3347200  3
   7772   7775   7778   7779     1  0.0000000  0.6508444  3
   7772   7775   7778   7780     1  0.0000000  0.6508444  3
   7773   7772   7775   7778     1  0.0000000  0.6508444  3
   7773   7772   7775   7776     1  0.0000000  0.6508444  3
   7773   7772   7775   7777     1  0.0000000  0.6508444  3
   7774   7772   7775   7778     1  0.0000000  0.6508444  3
   7774   7772   7775   7776     1  0.0000000  0.6508444  3
   7774   7772   7775   7777     1  0.0000000  0.6508444  3
   7776   7775   7772   7800     1  0.0000000  1.0460000  1
   7776   7775   7772   7800     1  0.0000000  0.0000000  3
   7776   7775   7778   7781     1  0.0000000  0.6508444  3
   7776   7775   7778   7779     1  0.0000000  0.6508444  3
   7776   7775   7778   7780     1  0.0000000  0.6508444  3
   7777   7775   7772   7800     1  0.0000000  1.0460000  1
   7777   7775   7772   7800     1  0.0000000  0.0000000  3
   7777   7775   7778   7781     1  0.0000000  0.6508444  3
   7777   7775   7778   7779     1  0.0000000  0.6508444  3
   7777   7775   7778   7780     1  0.0000000  0.6508444  3
   7778   7781   7782   7783     1  0.0000000  1.2552000  3
   7778   7781   7782   7784     1  0.0000000  1.2552000  3
   7778   7781   7791   7792     1  0.0000000  1.2552000  3
   7778   7781   7791   7793     1  0.0000000  1.2552000  3
   7779   7778   7781   7782     1  0.0000000  1.2552000  3
   7779   7778   7781   7791     1  0.0000000  1.2552000  3
   7780   7778   7781   7782     1  0.0000000  1.2552000  3
   7780   7778   7781   7791     1  0.0000000  1.2552000  3
   7781   7782   7785   7786     1  0.0000000  0.6508444  3
   7781   7782   7785   7787     1  0.0000000  0.6508444  3
   7781   7791   7794   7795     1  0.0000000  0.6508444  3
   7781   7791   7794   7796     1  0.0000000  0.6508444  3
   7782   7781   7791   7792     1  0.0000000  1.2552000  3
   7782   7781   7791   7793     1  0.0000000  1.2552000  3
   7783   7782   7781   7791     1  0.0000000  1.2552000  3
   7783   7782   7785   7788     1  0.0000000  0.6508444  3
   7783   7782   7785   7786     1  0.0000000  0.6508444  3
   7783   7782   7785   7787     1  0.0000000  0.6508444  3
   7784   7782   7781   7791     1  0.0000000  1.2552000  3
   7784   7782   7785   7788     1  0.0000000  0.6508444  3
   7784   7782   7785   7786     1  0.0000000  0.6508444  3
   7784   7782   7785   7787     1  0.0000000  0.6508444  3
   7786   7785   7788   7789     1  0.0000000  3.3472000  1
   7786   7785   7788   7789     1  0.0000000  0.0000000  2
   7786   7785   7788   7789     1  180.0000771  0.3347200  3
   7786   7785   7788   7790     1  0.0000000  3.3472000  1
   7786   7785   7788   7790     1  0.0000000  0.0000000  2
   7786   7785   7788   7790     1  180.0000771  0.3347200  3
   7787   7785   7788   7789     1  0.0000000  3.3472000  1
   7787   7785   7788   7789     1  0.0000000  0.0000000  2
   7787   7785   7788   7789     1  180.0000771  0.3347200  3
   7787   7785   7788   7790     1  0.0000000  3.3472000  1
   7787   7785   7788   7790     1  0.0000000  0.0000000  2
   7787   7785   7788   7790     1  180.0000771  0.3347200  3
   7792   7791   7794   7797     1  0.0000000  0.6508444  3
   7792   7791   7794   7795     1  0.0000000  0.6508444  3
   7792   7791   7794   7796     1  0.0000000  0.6508444  3
   7793   7791   7794   7797     1  0.0000000  0.6508444  3
   7793   7791   7794   7795     1  0.0000000  0.6508444  3
   7793   7791   7794   7796     1  0.0000000  0.6508444  3
   7795   7794   7797   7798     1  0.0000000  3.3472000  1
   7795   7794   7797   7798     1  0.0000000  0.0000000  2
   7795   7794   7797   7798     1  180.0000771  0.3347200  3
   7795   7794   7797   7799     1  0.0000000  3.3472000  1
   7795   7794   7797   7799     1  0.0000000  0.0000000  2
   7795   7794   7797   7799     1  180.0000771  0.3347200  3
   7796   7794   7797   7798     1  0.0000000  3.3472000  1
   7796   7794   7797   7798     1  0.0000000  0.0000000  2
   7796   7794   7797   7798     1  180.0000771  0.3347200  3
   7796   7794   7797   7799     1  0.0000000  3.3472000  1
   7796   7794   7797   7799     1  0.0000000  0.0000000  2
   7796   7794   7797   7799     1  180.0000771  0.3347200  3
   7801   7804   7807   7808     1  0.0000000  0.6508444  3
   7801   7804   7807   7809     1  0.0000000  0.6508444  3
   7802   7801   7804   7807     1  0.0000000  0.6508444  3
   7802   7801   7804   7805     1  0.0000000  0.6508444  3
   7802   7801   7804   7806     1  0.0000000  0.6508444  3
   7803   7801   7804   7807     1  0.0000000  0.6508444  3
   7803   7801   7804   7805     1  0.0000000  0.6508444  3
   7803   7801   7804   7806     1  0.0000000  0.6508444  3
   7805   7804   7807   7810     1  0.0000000  0.6508444  3
   7805   7804   7807   7808     1  0.0000000  0.6508444  3
   7805   7804   7807   7809     1  0.0000000  0.6508444  3
   7805   7804   7801   7829     1  0.0000000  1.0460000  1
   7805   7804   7801   7829     1  0.0000000  0.0000000  3
   7806   7804   7807   7810     1  0.0000000  0.6508444  3
   7806   7804   7807   7808     1  0.0000000  0.6508444  3
   7806   7804   7807   7809     1  0.0000000  0.6508444  3
   7806   7804   7801   7829     1  0.0000000  1.0460000  1
   7806   7804   7801   7829     1  0.0000000  0.0000000  3
   7807   7810   7811   7812     1  0.0000000  1.2552000  3
   7807   7810   7811   7813     1  0.0000000  1.2552000  3
   7807   7810   7820   7821     1  0.0000000  1.2552000  3
   7807   7810   7820   7822     1  0.0000000  1.2552000  3
   7808   7807   7810   7811     1  0.0000000  1.2552000  3
   7808   7807   7810   7820     1  0.0000000  1.2552000  3
   7809   7807   7810   7811     1  0.0000000  1.2552000  3
   7809   7807   7810   7820     1  0.0000000  1.2552000  3
   7810   7811   7814   7815     1  0.0000000  0.6508444  3
   7810   7811   7814   7816     1  0.0000000  0.6508444  3
   7810   7820   7823   7824     1  0.0000000  0.6508444  3
   7810   7820   7823   7825     1  0.0000000  0.6508444  3
   7811   7810   7820   7821     1  0.0000000  1.2552000  3
   7811   7810   7820   7822     1  0.0000000  1.2552000  3
   7812   7811   7814   7817     1  0.0000000  0.6508444  3
   7812   7811   7814   7815     1  0.0000000  0.6508444  3
   7812   7811   7814   7816     1  0.0000000  0.6508444  3
   7812   7811   7810   7820     1  0.0000000  1.2552000  3
   7813   7811   7814   7817     1  0.0000000  0.6508444  3
   7813   7811   7814   7815     1  0.0000000  0.6508444  3
   7813   7811   7814   7816     1  0.0000000  0.6508444  3
   7813   7811   7810   7820     1  0.0000000  1.2552000  3
   7815   7814   7817   7818     1  0.0000000  3.3472000  1
   7815   7814   7817   7818     1  0.0000000  0.0000000  2
   7815   7814   7817   7818     1  180.0000771  0.3347200  3
   7815   7814   7817   7819     1  0.0000000  3.3472000  1
   7815   7814   7817   7819     1  0.0000000  0.0000000  2
   7815   7814   7817   7819     1  180.0000771  0.3347200  3
   7816   7814   7817   7818     1  0.0000000  3.3472000  1
   7816   7814   7817   7818     1  0.0000000  0.0000000  2
   7816   7814   7817   7818     1  180.0000771  0.3347200  3
   7816   7814   7817   7819     1  0.0000000  3.3472000  1
   7816   7814   7817   7819     1  0.0000000  0.0000000  2
   7816   7814   7817   7819     1  180.0000771  0.3347200  3
   7821   7820   7823   7826     1  0.0000000  0.6508444  3
   7821   7820   7823   7824     1  0.0000000  0.6508444  3
   7821   7820   7823   7825     1  0.0000000  0.6508444  3
   7822   7820   7823   7826     1  0.0000000  0.6508444  3
   7822   7820   7823   7824     1  0.0000000  0.6508444  3
   7822   7820   7823   7825     1  0.0000000  0.6508444  3
   7824   7823   7826   7827     1  0.0000000  3.3472000  1
   7824   7823   7826   7827     1  0.0000000  0.0000000  2
   7824   7823   7826   7827     1  180.0000771  0.3347200  3
   7824   7823   7826   7828     1  0.0000000  3.3472000  1
   7824   7823   7826   7828     1  0.0000000  0.0000000  2
   7824   7823   7826   7828     1  180.0000771  0.3347200  3
   7825   7823   7826   7827     1  0.0000000  3.3472000  1
   7825   7823   7826   7827     1  0.0000000  0.0000000  2
   7825   7823   7826   7827     1  180.0000771  0.3347200  3
   7825   7823   7826   7828     1  0.0000000  3.3472000  1
   7825   7823   7826   7828     1  0.0000000  0.0000000  2
   7825   7823   7826   7828     1  180.0000771  0.3347200  3
   7830   7833   7836   7837     1  0.0000000  0.6508444  3
   7830   7833   7836   7838     1  0.0000000  0.6508444  3
   7831   7830   7833   7836     1  0.0000000  0.6508444  3
   7831   7830   7833   7834     1  0.0000000  0.6508444  3
   7831   7830   7833   7835     1  0.0000000  0.6508444  3
   7832   7830   7833   7836     1  0.0000000  0.6508444  3
   7832   7830   7833   7834     1  0.0000000  0.6508444  3
   7832   7830   7833   7835     1  0.0000000  0.6508444  3
   7834   7833   7830   7858     1  0.0000000  1.0460000  1
   7834   7833   7830   7858     1  0.0000000  0.0000000  3
   7834   7833   7836   7839     1  0.0000000  0.6508444  3
   7834   7833   7836   7837     1  0.0000000  0.6508444  3
   7834   7833   7836   7838     1  0.0000000  0.6508444  3
   7835   7833   7830   7858     1  0.0000000  1.0460000  1
   7835   7833   7830   7858     1  0.0000000  0.0000000  3
   7835   7833   7836   7839     1  0.0000000  0.6508444  3
   7835   7833   7836   7837     1  0.0000000  0.6508444  3
   7835   7833   7836   7838     1  0.0000000  0.6508444  3
   7836   7839   7840   7841     1  0.0000000  1.2552000  3
   7836   7839   7840   7842     1  0.0000000  1.2552000  3
   7836   7839   7849   7850     1  0.0000000  1.2552000  3
   7836   7839   7849   7851     1  0.0000000  1.2552000  3
   7837   7836   7839   7840     1  0.0000000  1.2552000  3
   7837   7836   7839   7849     1  0.0000000  1.2552000  3
   7838   7836   7839   7840     1  0.0000000  1.2552000  3
   7838   7836   7839   7849     1  0.0000000  1.2552000  3
   7839   7840   7843   7844     1  0.0000000  0.6508444  3
   7839   7840   7843   7845     1  0.0000000  0.6508444  3
   7839   7849   7852   7853     1  0.0000000  0.6508444  3
   7839   7849   7852   7854     1  0.0000000  0.6508444  3
   7840   7839   7849   7850     1  0.0000000  1.2552000  3
   7840   7839   7849   7851     1  0.0000000  1.2552000  3
   7841   7840   7839   7849     1  0.0000000  1.2552000  3
   7841   7840   7843   7846     1  0.0000000  0.6508444  3
   7841   7840   7843   7844     1  0.0000000  0.6508444  3
   7841   7840   7843   7845     1  0.0000000  0.6508444  3
   7842   7840   7839   7849     1  0.0000000  1.2552000  3
   7842   7840   7843   7846     1  0.0000000  0.6508444  3
   7842   7840   7843   7844     1  0.0000000  0.6508444  3
   7842   7840   7843   7845     1  0.0000000  0.6508444  3
   7844   7843   7846   7847     1  0.0000000  3.3472000  1
   7844   7843   7846   7847     1  0.0000000  0.0000000  2
   7844   7843   7846   7847     1  180.0000771  0.3347200  3
   7844   7843   7846   7848     1  0.0000000  3.3472000  1
   7844   7843   7846   7848     1  0.0000000  0.0000000  2
   7844   7843   7846   7848     1  180.0000771  0.3347200  3
   7845   7843   7846   7847     1  0.0000000  3.3472000  1
   7845   7843   7846   7847     1  0.0000000  0.0000000  2
   7845   7843   7846   7847     1  180.0000771  0.3347200  3
   7845   7843   7846   7848     1  0.0000000  3.3472000  1
   7845   7843   7846   7848     1  0.0000000  0.0000000  2
   7845   7843   7846   7848     1  180.0000771  0.3347200  3
   7850   7849   7852   7855     1  0.0000000  0.6508444  3
   7850   7849   7852   7853     1  0.0000000  0.6508444  3
   7850   7849   7852   7854     1  0.0000000  0.6508444  3
   7851   7849   7852   7855     1  0.0000000  0.6508444  3
   7851   7849   7852   7853     1  0.0000000  0.6508444  3
   7851   7849   7852   7854     1  0.0000000  0.6508444  3
   7853   7852   7855   7856     1  0.0000000  3.3472000  1
   7853   7852   7855   7856     1  0.0000000  0.0000000  2
   7853   7852   7855   7856     1  180.0000771  0.3347200  3
   7853   7852   7855   7857     1  0.0000000  3.3472000  1
   7853   7852   7855   7857     1  0.0000000  0.0000000  2
   7853   7852   7855   7857     1  180.0000771  0.3347200  3
   7854   7852   7855   7856     1  0.0000000  3.3472000  1
   7854   7852   7855   7856     1  0.0000000  0.0000000  2
   7854   7852   7855   7856     1  180.0000771  0.3347200  3
   7854   7852   7855   7857     1  0.0000000  3.3472000  1
   7854   7852   7855   7857     1  0.0000000  0.0000000  2
   7854   7852   7855   7857     1  180.0000771  0.3347200  3
   7859   7862   7865   7866     1  0.0000000  0.6508444  3
   7859   7862   7865   7867     1  0.0000000  0.6508444  3
   7860   7859   7862   7865     1  0.0000000  0.6508444  3
   7860   7859   7862   7863     1  0.0000000  0.6508444  3
   7860   7859   7862   7864     1  0.0000000  0.6508444  3
   7861   7859   7862   7865     1  0.0000000  0.6508444  3
   7861   7859   7862   7863     1  0.0000000  0.6508444  3
   7861   7859   7862   7864     1  0.0000000  0.6508444  3
   7863   7862   7865   7868     1  0.0000000  0.6508444  3
   7863   7862   7865   7866     1  0.0000000  0.6508444  3
   7863   7862   7865   7867     1  0.0000000  0.6508444  3
   7863   7862   7859   7887     1  0.0000000  1.0460000  1
   7863   7862   7859   7887     1  0.0000000  0.0000000  3
   7864   7862   7865   7868     1  0.0000000  0.6508444  3
   7864   7862   7865   7866     1  0.0000000  0.6508444  3
   7864   7862   7865   7867     1  0.0000000  0.6508444  3
   7864   7862   7859   7887     1  0.0000000  1.0460000  1
   7864   7862   7859   7887     1  0.0000000  0.0000000  3
   7865   7868   7869   7870     1  0.0000000  1.2552000  3
   7865   7868   7869   7871     1  0.0000000  1.2552000  3
   7865   7868   7878   7879     1  0.0000000  1.2552000  3
   7865   7868   7878   7880     1  0.0000000  1.2552000  3
   7866   7865   7868   7869     1  0.0000000  1.2552000  3
   7866   7865   7868   7878     1  0.0000000  1.2552000  3
   7867   7865   7868   7869     1  0.0000000  1.2552000  3
   7867   7865   7868   7878     1  0.0000000  1.2552000  3
   7868   7869   7872   7873     1  0.0000000  0.6508444  3
   7868   7869   7872   7874     1  0.0000000  0.6508444  3
   7868   7878   7881   7882     1  0.0000000  0.6508444  3
   7868   7878   7881   7883     1  0.0000000  0.6508444  3
   7869   7868   7878   7879     1  0.0000000  1.2552000  3
   7869   7868   7878   7880     1  0.0000000  1.2552000  3
   7870   7869   7872   7875     1  0.0000000  0.6508444  3
   7870   7869   7872   7873     1  0.0000000  0.6508444  3
   7870   7869   7872   7874     1  0.0000000  0.6508444  3
   7870   7869   7868   7878     1  0.0000000  1.2552000  3
   7871   7869   7872   7875     1  0.0000000  0.6508444  3
   7871   7869   7872   7873     1  0.0000000  0.6508444  3
   7871   7869   7872   7874     1  0.0000000  0.6508444  3
   7871   7869   7868   7878     1  0.0000000  1.2552000  3
   7873   7872   7875   7876     1  0.0000000  3.3472000  1
   7873   7872   7875   7876     1  0.0000000  0.0000000  2
   7873   7872   7875   7876     1  180.0000771  0.3347200  3
   7873   7872   7875   7877     1  0.0000000  3.3472000  1
   7873   7872   7875   7877     1  0.0000000  0.0000000  2
   7873   7872   7875   7877     1  180.0000771  0.3347200  3
   7874   7872   7875   7876     1  0.0000000  3.3472000  1
   7874   7872   7875   7876     1  0.0000000  0.0000000  2
   7874   7872   7875   7876     1  180.0000771  0.3347200  3
   7874   7872   7875   7877     1  0.0000000  3.3472000  1
   7874   7872   7875   7877     1  0.0000000  0.0000000  2
   7874   7872   7875   7877     1  180.0000771  0.3347200  3
   7879   7878   7881   7884     1  0.0000000  0.6508444  3
   7879   7878   7881   7882     1  0.0000000  0.6508444  3
   7879   7878   7881   7883     1  0.0000000  0.6508444  3
   7880   7878   7881   7884     1  0.0000000  0.6508444  3
   7880   7878   7881   7882     1  0.0000000  0.6508444  3
   7880   7878   7881   7883     1  0.0000000  0.6508444  3
   7882   7881   7884   7885     1  0.0000000  3.3472000  1
   7882   7881   7884   7885     1  0.0000000  0.0000000  2
   7882   7881   7884   7885     1  180.0000771  0.3347200  3
   7882   7881   7884   7886     1  0.0000000  3.3472000  1
   7882   7881   7884   7886     1  0.0000000  0.0000000  2
   7882   7881   7884   7886     1  180.0000771  0.3347200  3
   7883   7881   7884   7885     1  0.0000000  3.3472000  1
   7883   7881   7884   7885     1  0.0000000  0.0000000  2
   7883   7881   7884   7885     1  180.0000771  0.3347200  3
   7883   7881   7884   7886     1  0.0000000  3.3472000  1
   7883   7881   7884   7886     1  0.0000000  0.0000000  2
   7883   7881   7884   7886     1  180.0000771  0.3347200  3
   7888   7891   7894   7895     1  0.0000000  0.6508444  3
   7888   7891   7894   7896     1  0.0000000  0.6508444  3
   7889   7888   7891   7894     1  0.0000000  0.6508444  3
   7889   7888   7891   7892     1  0.0000000  0.6508444  3
   7889   7888   7891   7893     1  0.0000000  0.6508444  3
   7890   7888   7891   7894     1  0.0000000  0.6508444  3
   7890   7888   7891   7892     1  0.0000000  0.6508444  3
   7890   7888   7891   7893     1  0.0000000  0.6508444  3
   7892   7891   7888   7916     1  0.0000000  1.0460000  1
   7892   7891   7888   7916     1  0.0000000  0.0000000  3
   7892   7891   7894   7897     1  0.0000000  0.6508444  3
   7892   7891   7894   7895     1  0.0000000  0.6508444  3
   7892   7891   7894   7896     1  0.0000000  0.6508444  3
   7893   7891   7888   7916     1  0.0000000  1.0460000  1
   7893   7891   7888   7916     1  0.0000000  0.0000000  3
   7893   7891   7894   7897     1  0.0000000  0.6508444  3
   7893   7891   7894   7895     1  0.0000000  0.6508444  3
   7893   7891   7894   7896     1  0.0000000  0.6508444  3
   7894   7897   7898   7899     1  0.0000000  1.2552000  3
   7894   7897   7898   7900     1  0.0000000  1.2552000  3
   7894   7897   7907   7908     1  0.0000000  1.2552000  3
   7894   7897   7907   7909     1  0.0000000  1.2552000  3
   7895   7894   7897   7898     1  0.0000000  1.2552000  3
   7895   7894   7897   7907     1  0.0000000  1.2552000  3
   7896   7894   7897   7898     1  0.0000000  1.2552000  3
   7896   7894   7897   7907     1  0.0000000  1.2552000  3
   7897   7898   7901   7902     1  0.0000000  0.6508444  3
   7897   7898   7901   7903     1  0.0000000  0.6508444  3
   7897   7907   7910   7911     1  0.0000000  0.6508444  3
   7897   7907   7910   7912     1  0.0000000  0.6508444  3
   7898   7897   7907   7908     1  0.0000000  1.2552000  3
   7898   7897   7907   7909     1  0.0000000  1.2552000  3
   7899   7898   7897   7907     1  0.0000000  1.2552000  3
   7899   7898   7901   7904     1  0.0000000  0.6508444  3
   7899   7898   7901   7902     1  0.0000000  0.6508444  3
   7899   7898   7901   7903     1  0.0000000  0.6508444  3
   7900   7898   7897   7907     1  0.0000000  1.2552000  3
   7900   7898   7901   7904     1  0.0000000  0.6508444  3
   7900   7898   7901   7902     1  0.0000000  0.6508444  3
   7900   7898   7901   7903     1  0.0000000  0.6508444  3
   7902   7901   7904   7905     1  0.0000000  3.3472000  1
   7902   7901   7904   7905     1  0.0000000  0.0000000  2
   7902   7901   7904   7905     1  180.0000771  0.3347200  3
   7902   7901   7904   7906     1  0.0000000  3.3472000  1
   7902   7901   7904   7906     1  0.0000000  0.0000000  2
   7902   7901   7904   7906     1  180.0000771  0.3347200  3
   7903   7901   7904   7905     1  0.0000000  3.3472000  1
   7903   7901   7904   7905     1  0.0000000  0.0000000  2
   7903   7901   7904   7905     1  180.0000771  0.3347200  3
   7903   7901   7904   7906     1  0.0000000  3.3472000  1
   7903   7901   7904   7906     1  0.0000000  0.0000000  2
   7903   7901   7904   7906     1  180.0000771  0.3347200  3
   7908   7907   7910   7913     1  0.0000000  0.6508444  3
   7908   7907   7910   7911     1  0.0000000  0.6508444  3
   7908   7907   7910   7912     1  0.0000000  0.6508444  3
   7909   7907   7910   7913     1  0.0000000  0.6508444  3
   7909   7907   7910   7911     1  0.0000000  0.6508444  3
   7909   7907   7910   7912     1  0.0000000  0.6508444  3
   7911   7910   7913   7914     1  0.0000000  3.3472000  1
   7911   7910   7913   7914     1  0.0000000  0.0000000  2
   7911   7910   7913   7914     1  180.0000771  0.3347200  3
   7911   7910   7913   7915     1  0.0000000  3.3472000  1
   7911   7910   7913   7915     1  0.0000000  0.0000000  2
   7911   7910   7913   7915     1  180.0000771  0.3347200  3
   7912   7910   7913   7914     1  0.0000000  3.3472000  1
   7912   7910   7913   7914     1  0.0000000  0.0000000  2
   7912   7910   7913   7914     1  180.0000771  0.3347200  3
   7912   7910   7913   7915     1  0.0000000  3.3472000  1
   7912   7910   7913   7915     1  0.0000000  0.0000000  2
   7912   7910   7913   7915     1  180.0000771  0.3347200  3
   7917   7920   7923   7924     1  0.0000000  0.6508444  3
   7917   7920   7923   7925     1  0.0000000  0.6508444  3
   7918   7917   7920   7923     1  0.0000000  0.6508444  3
   7918   7917   7920   7921     1  0.0000000  0.6508444  3
   7918   7917   7920   7922     1  0.0000000  0.6508444  3
   7919   7917   7920   7923     1  0.0000000  0.6508444  3
   7919   7917   7920   7921     1  0.0000000  0.6508444  3
   7919   7917   7920   7922     1  0.0000000  0.6508444  3
   7921   7920   7923   7926     1  0.0000000  0.6508444  3
   7921   7920   7923   7924     1  0.0000000  0.6508444  3
   7921   7920   7923   7925     1  0.0000000  0.6508444  3
   7921   7920   7917   7945     1  0.0000000  1.0460000  1
   7921   7920   7917   7945     1  0.0000000  0.0000000  3
   7922   7920   7923   7926     1  0.0000000  0.6508444  3
   7922   7920   7923   7924     1  0.0000000  0.6508444  3
   7922   7920   7923   7925     1  0.0000000  0.6508444  3
   7922   7920   7917   7945     1  0.0000000  1.0460000  1
   7922   7920   7917   7945     1  0.0000000  0.0000000  3
   7923   7926   7927   7928     1  0.0000000  1.2552000  3
   7923   7926   7927   7929     1  0.0000000  1.2552000  3
   7923   7926   7936   7937     1  0.0000000  1.2552000  3
   7923   7926   7936   7938     1  0.0000000  1.2552000  3
   7924   7923   7926   7927     1  0.0000000  1.2552000  3
   7924   7923   7926   7936     1  0.0000000  1.2552000  3
   7925   7923   7926   7927     1  0.0000000  1.2552000  3
   7925   7923   7926   7936     1  0.0000000  1.2552000  3
   7926   7927   7930   7931     1  0.0000000  0.6508444  3
   7926   7927   7930   7932     1  0.0000000  0.6508444  3
   7926   7936   7939   7940     1  0.0000000  0.6508444  3
   7926   7936   7939   7941     1  0.0000000  0.6508444  3
   7927   7926   7936   7937     1  0.0000000  1.2552000  3
   7927   7926   7936   7938     1  0.0000000  1.2552000  3
   7928   7927   7930   7933     1  0.0000000  0.6508444  3
   7928   7927   7930   7931     1  0.0000000  0.6508444  3
   7928   7927   7930   7932     1  0.0000000  0.6508444  3
   7928   7927   7926   7936     1  0.0000000  1.2552000  3
   7929   7927   7930   7933     1  0.0000000  0.6508444  3
   7929   7927   7930   7931     1  0.0000000  0.6508444  3
   7929   7927   7930   7932     1  0.0000000  0.6508444  3
   7929   7927   7926   7936     1  0.0000000  1.2552000  3
   7931   7930   7933   7934     1  0.0000000  3.3472000  1
   7931   7930   7933   7934     1  0.0000000  0.0000000  2
   7931   7930   7933   7934     1  180.0000771  0.3347200  3
   7931   7930   7933   7935     1  0.0000000  3.3472000  1
   7931   7930   7933   7935     1  0.0000000  0.0000000  2
   7931   7930   7933   7935     1  180.0000771  0.3347200  3
   7932   7930   7933   7934     1  0.0000000  3.3472000  1
   7932   7930   7933   7934     1  0.0000000  0.0000000  2
   7932   7930   7933   7934     1  180.0000771  0.3347200  3
   7932   7930   7933   7935     1  0.0000000  3.3472000  1
   7932   7930   7933   7935     1  0.0000000  0.0000000  2
   7932   7930   7933   7935     1  180.0000771  0.3347200  3
   7937   7936   7939   7942     1  0.0000000  0.6508444  3
   7937   7936   7939   7940     1  0.0000000  0.6508444  3
   7937   7936   7939   7941     1  0.0000000  0.6508444  3
   7938   7936   7939   7942     1  0.0000000  0.6508444  3
   7938   7936   7939   7940     1  0.0000000  0.6508444  3
   7938   7936   7939   7941     1  0.0000000  0.6508444  3
   7940   7939   7942   7943     1  0.0000000  3.3472000  1
   7940   7939   7942   7943     1  0.0000000  0.0000000  2
   7940   7939   7942   7943     1  180.0000771  0.3347200  3
   7940   7939   7942   7944     1  0.0000000  3.3472000  1
   7940   7939   7942   7944     1  0.0000000  0.0000000  2
   7940   7939   7942   7944     1  180.0000771  0.3347200  3
   7941   7939   7942   7943     1  0.0000000  3.3472000  1
   7941   7939   7942   7943     1  0.0000000  0.0000000  2
   7941   7939   7942   7943     1  180.0000771  0.3347200  3
   7941   7939   7942   7944     1  0.0000000  3.3472000  1
   7941   7939   7942   7944     1  0.0000000  0.0000000  2
   7941   7939   7942   7944     1  180.0000771  0.3347200  3
   7946   7949   7952   7953     1  0.0000000  0.6508444  3
   7946   7949   7952   7954     1  0.0000000  0.6508444  3
   7947   7946   7949   7952     1  0.0000000  0.6508444  3
   7947   7946   7949   7950     1  0.0000000  0.6508444  3
   7947   7946   7949   7951     1  0.0000000  0.6508444  3
   7948   7946   7949   7952     1  0.0000000  0.6508444  3
   7948   7946   7949   7950     1  0.0000000  0.6508444  3
   7948   7946   7949   7951     1  0.0000000  0.6508444  3
   7950   7949   7946   7974     1  0.0000000  1.0460000  1
   7950   7949   7946   7974     1  0.0000000  0.0000000  3
   7950   7949   7952   7955     1  0.0000000  0.6508444  3
   7950   7949   7952   7953     1  0.0000000  0.6508444  3
   7950   7949   7952   7954     1  0.0000000  0.6508444  3
   7951   7949   7946   7974     1  0.0000000  1.0460000  1
   7951   7949   7946   7974     1  0.0000000  0.0000000  3
   7951   7949   7952   7955     1  0.0000000  0.6508444  3
   7951   7949   7952   7953     1  0.0000000  0.6508444  3
   7951   7949   7952   7954     1  0.0000000  0.6508444  3
   7952   7955   7956   7957     1  0.0000000  1.2552000  3
   7952   7955   7956   7958     1  0.0000000  1.2552000  3
   7952   7955   7965   7966     1  0.0000000  1.2552000  3
   7952   7955   7965   7967     1  0.0000000  1.2552000  3
   7953   7952   7955   7956     1  0.0000000  1.2552000  3
   7953   7952   7955   7965     1  0.0000000  1.2552000  3
   7954   7952   7955   7956     1  0.0000000  1.2552000  3
   7954   7952   7955   7965     1  0.0000000  1.2552000  3
   7955   7956   7959   7960     1  0.0000000  0.6508444  3
   7955   7956   7959   7961     1  0.0000000  0.6508444  3
   7955   7965   7968   7969     1  0.0000000  0.6508444  3
   7955   7965   7968   7970     1  0.0000000  0.6508444  3
   7956   7955   7965   7966     1  0.0000000  1.2552000  3
   7956   7955   7965   7967     1  0.0000000  1.2552000  3
   7957   7956   7955   7965     1  0.0000000  1.2552000  3
   7957   7956   7959   7962     1  0.0000000  0.6508444  3
   7957   7956   7959   7960     1  0.0000000  0.6508444  3
   7957   7956   7959   7961     1  0.0000000  0.6508444  3
   7958   7956   7955   7965     1  0.0000000  1.2552000  3
   7958   7956   7959   7962     1  0.0000000  0.6508444  3
   7958   7956   7959   7960     1  0.0000000  0.6508444  3
   7958   7956   7959   7961     1  0.0000000  0.6508444  3
   7960   7959   7962   7963     1  0.0000000  3.3472000  1
   7960   7959   7962   7963     1  0.0000000  0.0000000  2
   7960   7959   7962   7963     1  180.0000771  0.3347200  3
   7960   7959   7962   7964     1  0.0000000  3.3472000  1
   7960   7959   7962   7964     1  0.0000000  0.0000000  2
   7960   7959   7962   7964     1  180.0000771  0.3347200  3
   7961   7959   7962   7963     1  0.0000000  3.3472000  1
   7961   7959   7962   7963     1  0.0000000  0.0000000  2
   7961   7959   7962   7963     1  180.0000771  0.3347200  3
   7961   7959   7962   7964     1  0.0000000  3.3472000  1
   7961   7959   7962   7964     1  0.0000000  0.0000000  2
   7961   7959   7962   7964     1  180.0000771  0.3347200  3
   7966   7965   7968   7971     1  0.0000000  0.6508444  3
   7966   7965   7968   7969     1  0.0000000  0.6508444  3
   7966   7965   7968   7970     1  0.0000000  0.6508444  3
   7967   7965   7968   7971     1  0.0000000  0.6508444  3
   7967   7965   7968   7969     1  0.0000000  0.6508444  3
   7967   7965   7968   7970     1  0.0000000  0.6508444  3
   7969   7968   7971   7972     1  0.0000000  3.3472000  1
   7969   7968   7971   7972     1  0.0000000  0.0000000  2
   7969   7968   7971   7972     1  180.0000771  0.3347200  3
   7969   7968   7971   7973     1  0.0000000  3.3472000  1
   7969   7968   7971   7973     1  0.0000000  0.0000000  2
   7969   7968   7971   7973     1  180.0000771  0.3347200  3
   7970   7968   7971   7972     1  0.0000000  3.3472000  1
   7970   7968   7971   7972     1  0.0000000  0.0000000  2
   7970   7968   7971   7972     1  180.0000771  0.3347200  3
   7970   7968   7971   7973     1  0.0000000  3.3472000  1
   7970   7968   7971   7973     1  0.0000000  0.0000000  2
   7970   7968   7971   7973     1  180.0000771  0.3347200  3
   7975   7978   7981   7982     1  0.0000000  0.6508444  3
   7975   7978   7981   7983     1  0.0000000  0.6508444  3
   7976   7975   7978   7981     1  0.0000000  0.6508444  3
   7976   7975   7978   7979     1  0.0000000  0.6508444  3
   7976   7975   7978   7980     1  0.0000000  0.6508444  3
   7977   7975   7978   7981     1  0.0000000  0.6508444  3
   7977   7975   7978   7979     1  0.0000000  0.6508444  3
   7977   7975   7978   7980     1  0.0000000  0.6508444  3
   7979   7978   7981   7984     1  0.0000000  0.6508444  3
   7979   7978   7981   7982     1  0.0000000  0.6508444  3
   7979   7978   7981   7983     1  0.0000000  0.6508444  3
   7979   7978   7975   8003     1  0.0000000  1.0460000  1
   7979   7978   7975   8003     1  0.0000000  0.0000000  3
   7980   7978   7981   7984     1  0.0000000  0.6508444  3
   7980   7978   7981   7982     1  0.0000000  0.6508444  3
   7980   7978   7981   7983     1  0.0000000  0.6508444  3
   7980   7978   7975   8003     1  0.0000000  1.0460000  1
   7980   7978   7975   8003     1  0.0000000  0.0000000  3
   7981   7984   7985   7986     1  0.0000000  1.2552000  3
   7981   7984   7985   7987     1  0.0000000  1.2552000  3
   7981   7984   7994   7995     1  0.0000000  1.2552000  3
   7981   7984   7994   7996     1  0.0000000  1.2552000  3
   7982   7981   7984   7985     1  0.0000000  1.2552000  3
   7982   7981   7984   7994     1  0.0000000  1.2552000  3
   7983   7981   7984   7985     1  0.0000000  1.2552000  3
   7983   7981   7984   7994     1  0.0000000  1.2552000  3
   7984   7985   7988   7989     1  0.0000000  0.6508444  3
   7984   7985   7988   7990     1  0.0000000  0.6508444  3
   7984   7994   7997   7998     1  0.0000000  0.6508444  3
   7984   7994   7997   7999     1  0.0000000  0.6508444  3
   7985   7984   7994   7995     1  0.0000000  1.2552000  3
   7985   7984   7994   7996     1  0.0000000  1.2552000  3
   7986   7985   7988   7991     1  0.0000000  0.6508444  3
   7986   7985   7988   7989     1  0.0000000  0.6508444  3
   7986   7985   7988   7990     1  0.0000000  0.6508444  3
   7986   7985   7984   7994     1  0.0000000  1.2552000  3
   7987   7985   7988   7991     1  0.0000000  0.6508444  3
   7987   7985   7988   7989     1  0.0000000  0.6508444  3
   7987   7985   7988   7990     1  0.0000000  0.6508444  3
   7987   7985   7984   7994     1  0.0000000  1.2552000  3
   7989   7988   7991   7992     1  0.0000000  3.3472000  1
   7989   7988   7991   7992     1  0.0000000  0.0000000  2
   7989   7988   7991   7992     1  180.0000771  0.3347200  3
   7989   7988   7991   7993     1  0.0000000  3.3472000  1
   7989   7988   7991   7993     1  0.0000000  0.0000000  2
   7989   7988   7991   7993     1  180.0000771  0.3347200  3
   7990   7988   7991   7992     1  0.0000000  3.3472000  1
   7990   7988   7991   7992     1  0.0000000  0.0000000  2
   7990   7988   7991   7992     1  180.0000771  0.3347200  3
   7990   7988   7991   7993     1  0.0000000  3.3472000  1
   7990   7988   7991   7993     1  0.0000000  0.0000000  2
   7990   7988   7991   7993     1  180.0000771  0.3347200  3
   7995   7994   7997   8000     1  0.0000000  0.6508444  3
   7995   7994   7997   7998     1  0.0000000  0.6508444  3
   7995   7994   7997   7999     1  0.0000000  0.6508444  3
   7996   7994   7997   8000     1  0.0000000  0.6508444  3
   7996   7994   7997   7998     1  0.0000000  0.6508444  3
   7996   7994   7997   7999     1  0.0000000  0.6508444  3
   7998   7997   8000   8001     1  0.0000000  3.3472000  1
   7998   7997   8000   8001     1  0.0000000  0.0000000  2
   7998   7997   8000   8001     1  180.0000771  0.3347200  3
   7998   7997   8000   8002     1  0.0000000  3.3472000  1
   7998   7997   8000   8002     1  0.0000000  0.0000000  2
   7998   7997   8000   8002     1  180.0000771  0.3347200  3
   7999   7997   8000   8001     1  0.0000000  3.3472000  1
   7999   7997   8000   8001     1  0.0000000  0.0000000  2
   7999   7997   8000   8001     1  180.0000771  0.3347200  3
   7999   7997   8000   8002     1  0.0000000  3.3472000  1
   7999   7997   8000   8002     1  0.0000000  0.0000000  2
   7999   7997   8000   8002     1  180.0000771  0.3347200  3
   8004   8007   8010   8011     1  0.0000000  0.6508444  3
   8004   8007   8010   8012     1  0.0000000  0.6508444  3
   8005   8004   8007   8010     1  0.0000000  0.6508444  3
   8005   8004   8007   8008     1  0.0000000  0.6508444  3
   8005   8004   8007   8009     1  0.0000000  0.6508444  3
   8006   8004   8007   8010     1  0.0000000  0.6508444  3
   8006   8004   8007   8008     1  0.0000000  0.6508444  3
   8006   8004   8007   8009     1  0.0000000  0.6508444  3
   8008   8007   8004   8032     1  0.0000000  1.0460000  1
   8008   8007   8004   8032     1  0.0000000  0.0000000  3
   8008   8007   8010   8013     1  0.0000000  0.6508444  3
   8008   8007   8010   8011     1  0.0000000  0.6508444  3
   8008   8007   8010   8012     1  0.0000000  0.6508444  3
   8009   8007   8004   8032     1  0.0000000  1.0460000  1
   8009   8007   8004   8032     1  0.0000000  0.0000000  3
   8009   8007   8010   8013     1  0.0000000  0.6508444  3
   8009   8007   8010   8011     1  0.0000000  0.6508444  3
   8009   8007   8010   8012     1  0.0000000  0.6508444  3
   8010   8013   8014   8015     1  0.0000000  1.2552000  3
   8010   8013   8014   8016     1  0.0000000  1.2552000  3
   8010   8013   8023   8024     1  0.0000000  1.2552000  3
   8010   8013   8023   8025     1  0.0000000  1.2552000  3
   8011   8010   8013   8014     1  0.0000000  1.2552000  3
   8011   8010   8013   8023     1  0.0000000  1.2552000  3
   8012   8010   8013   8014     1  0.0000000  1.2552000  3
   8012   8010   8013   8023     1  0.0000000  1.2552000  3
   8013   8014   8017   8018     1  0.0000000  0.6508444  3
   8013   8014   8017   8019     1  0.0000000  0.6508444  3
   8013   8023   8026   8027     1  0.0000000  0.6508444  3
   8013   8023   8026   8028     1  0.0000000  0.6508444  3
   8014   8013   8023   8024     1  0.0000000  1.2552000  3
   8014   8013   8023   8025     1  0.0000000  1.2552000  3
   8015   8014   8013   8023     1  0.0000000  1.2552000  3
   8015   8014   8017   8020     1  0.0000000  0.6508444  3
   8015   8014   8017   8018     1  0.0000000  0.6508444  3
   8015   8014   8017   8019     1  0.0000000  0.6508444  3
   8016   8014   8013   8023     1  0.0000000  1.2552000  3
   8016   8014   8017   8020     1  0.0000000  0.6508444  3
   8016   8014   8017   8018     1  0.0000000  0.6508444  3
   8016   8014   8017   8019     1  0.0000000  0.6508444  3
   8018   8017   8020   8021     1  0.0000000  3.3472000  1
   8018   8017   8020   8021     1  0.0000000  0.0000000  2
   8018   8017   8020   8021     1  180.0000771  0.3347200  3
   8018   8017   8020   8022     1  0.0000000  3.3472000  1
   8018   8017   8020   8022     1  0.0000000  0.0000000  2
   8018   8017   8020   8022     1  180.0000771  0.3347200  3
   8019   8017   8020   8021     1  0.0000000  3.3472000  1
   8019   8017   8020   8021     1  0.0000000  0.0000000  2
   8019   8017   8020   8021     1  180.0000771  0.3347200  3
   8019   8017   8020   8022     1  0.0000000  3.3472000  1
   8019   8017   8020   8022     1  0.0000000  0.0000000  2
   8019   8017   8020   8022     1  180.0000771  0.3347200  3
   8024   8023   8026   8029     1  0.0000000  0.6508444  3
   8024   8023   8026   8027     1  0.0000000  0.6508444  3
   8024   8023   8026   8028     1  0.0000000  0.6508444  3
   8025   8023   8026   8029     1  0.0000000  0.6508444  3
   8025   8023   8026   8027     1  0.0000000  0.6508444  3
   8025   8023   8026   8028     1  0.0000000  0.6508444  3
   8027   8026   8029   8030     1  0.0000000  3.3472000  1
   8027   8026   8029   8030     1  0.0000000  0.0000000  2
   8027   8026   8029   8030     1  180.0000771  0.3347200  3
   8027   8026   8029   8031     1  0.0000000  3.3472000  1
   8027   8026   8029   8031     1  0.0000000  0.0000000  2
   8027   8026   8029   8031     1  180.0000771  0.3347200  3
   8028   8026   8029   8030     1  0.0000000  3.3472000  1
   8028   8026   8029   8030     1  0.0000000  0.0000000  2
   8028   8026   8029   8030     1  180.0000771  0.3347200  3
   8028   8026   8029   8031     1  0.0000000  3.3472000  1
   8028   8026   8029   8031     1  0.0000000  0.0000000  2
   8028   8026   8029   8031     1  180.0000771  0.3347200  3
   8033   8036   8039   8040     1  0.0000000  0.6508444  3
   8033   8036   8039   8041     1  0.0000000  0.6508444  3
   8034   8033   8036   8039     1  0.0000000  0.6508444  3
   8034   8033   8036   8037     1  0.0000000  0.6508444  3
   8034   8033   8036   8038     1  0.0000000  0.6508444  3
   8035   8033   8036   8039     1  0.0000000  0.6508444  3
   8035   8033   8036   8037     1  0.0000000  0.6508444  3
   8035   8033   8036   8038     1  0.0000000  0.6508444  3
   8037   8036   8039   8042     1  0.0000000  0.6508444  3
   8037   8036   8039   8040     1  0.0000000  0.6508444  3
   8037   8036   8039   8041     1  0.0000000  0.6508444  3
   8037   8036   8033   8061     1  0.0000000  1.0460000  1
   8037   8036   8033   8061     1  0.0000000  0.0000000  3
   8038   8036   8039   8042     1  0.0000000  0.6508444  3
   8038   8036   8039   8040     1  0.0000000  0.6508444  3
   8038   8036   8039   8041     1  0.0000000  0.6508444  3
   8038   8036   8033   8061     1  0.0000000  1.0460000  1
   8038   8036   8033   8061     1  0.0000000  0.0000000  3
   8039   8042   8043   8044     1  0.0000000  1.2552000  3
   8039   8042   8043   8045     1  0.0000000  1.2552000  3
   8039   8042   8052   8053     1  0.0000000  1.2552000  3
   8039   8042   8052   8054     1  0.0000000  1.2552000  3
   8040   8039   8042   8043     1  0.0000000  1.2552000  3
   8040   8039   8042   8052     1  0.0000000  1.2552000  3
   8041   8039   8042   8043     1  0.0000000  1.2552000  3
   8041   8039   8042   8052     1  0.0000000  1.2552000  3
   8042   8043   8046   8047     1  0.0000000  0.6508444  3
   8042   8043   8046   8048     1  0.0000000  0.6508444  3
   8042   8052   8055   8056     1  0.0000000  0.6508444  3
   8042   8052   8055   8057     1  0.0000000  0.6508444  3
   8043   8042   8052   8053     1  0.0000000  1.2552000  3
   8043   8042   8052   8054     1  0.0000000  1.2552000  3
   8044   8043   8046   8049     1  0.0000000  0.6508444  3
   8044   8043   8046   8047     1  0.0000000  0.6508444  3
   8044   8043   8046   8048     1  0.0000000  0.6508444  3
   8044   8043   8042   8052     1  0.0000000  1.2552000  3
   8045   8043   8046   8049     1  0.0000000  0.6508444  3
   8045   8043   8046   8047     1  0.0000000  0.6508444  3
   8045   8043   8046   8048     1  0.0000000  0.6508444  3
   8045   8043   8042   8052     1  0.0000000  1.2552000  3
   8047   8046   8049   8050     1  0.0000000  3.3472000  1
   8047   8046   8049   8050     1  0.0000000  0.0000000  2
   8047   8046   8049   8050     1  180.0000771  0.3347200  3
   8047   8046   8049   8051     1  0.0000000  3.3472000  1
   8047   8046   8049   8051     1  0.0000000  0.0000000  2
   8047   8046   8049   8051     1  180.0000771  0.3347200  3
   8048   8046   8049   8050     1  0.0000000  3.3472000  1
   8048   8046   8049   8050     1  0.0000000  0.0000000  2
   8048   8046   8049   8050     1  180.0000771  0.3347200  3
   8048   8046   8049   8051     1  0.0000000  3.3472000  1
   8048   8046   8049   8051     1  0.0000000  0.0000000  2
   8048   8046   8049   8051     1  180.0000771  0.3347200  3
   8053   8052   8055   8058     1  0.0000000  0.6508444  3
   8053   8052   8055   8056     1  0.0000000  0.6508444  3
   8053   8052   8055   8057     1  0.0000000  0.6508444  3
   8054   8052   8055   8058     1  0.0000000  0.6508444  3
   8054   8052   8055   8056     1  0.0000000  0.6508444  3
   8054   8052   8055   8057     1  0.0000000  0.6508444  3
   8056   8055   8058   8059     1  0.0000000  3.3472000  1
   8056   8055   8058   8059     1  0.0000000  0.0000000  2
   8056   8055   8058   8059     1  180.0000771  0.3347200  3
   8056   8055   8058   8060     1  0.0000000  3.3472000  1
   8056   8055   8058   8060     1  0.0000000  0.0000000  2
   8056   8055   8058   8060     1  180.0000771  0.3347200  3
   8057   8055   8058   8059     1  0.0000000  3.3472000  1
   8057   8055   8058   8059     1  0.0000000  0.0000000  2
   8057   8055   8058   8059     1  180.0000771  0.3347200  3
   8057   8055   8058   8060     1  0.0000000  3.3472000  1
   8057   8055   8058   8060     1  0.0000000  0.0000000  2
   8057   8055   8058   8060     1  180.0000771  0.3347200  3
   8062   8065   8068   8069     1  0.0000000  0.6508444  3
   8062   8065   8068   8070     1  0.0000000  0.6508444  3
   8063   8062   8065   8068     1  0.0000000  0.6508444  3
   8063   8062   8065   8066     1  0.0000000  0.6508444  3
   8063   8062   8065   8067     1  0.0000000  0.6508444  3
   8064   8062   8065   8068     1  0.0000000  0.6508444  3
   8064   8062   8065   8066     1  0.0000000  0.6508444  3
   8064   8062   8065   8067     1  0.0000000  0.6508444  3
   8066   8065   8062   8090     1  0.0000000  1.0460000  1
   8066   8065   8062   8090     1  0.0000000  0.0000000  3
   8066   8065   8068   8071     1  0.0000000  0.6508444  3
   8066   8065   8068   8069     1  0.0000000  0.6508444  3
   8066   8065   8068   8070     1  0.0000000  0.6508444  3
   8067   8065   8062   8090     1  0.0000000  1.0460000  1
   8067   8065   8062   8090     1  0.0000000  0.0000000  3
   8067   8065   8068   8071     1  0.0000000  0.6508444  3
   8067   8065   8068   8069     1  0.0000000  0.6508444  3
   8067   8065   8068   8070     1  0.0000000  0.6508444  3
   8068   8071   8072   8073     1  0.0000000  1.2552000  3
   8068   8071   8072   8074     1  0.0000000  1.2552000  3
   8068   8071   8081   8082     1  0.0000000  1.2552000  3
   8068   8071   8081   8083     1  0.0000000  1.2552000  3
   8069   8068   8071   8072     1  0.0000000  1.2552000  3
   8069   8068   8071   8081     1  0.0000000  1.2552000  3
   8070   8068   8071   8072     1  0.0000000  1.2552000  3
   8070   8068   8071   8081     1  0.0000000  1.2552000  3
   8071   8072   8075   8076     1  0.0000000  0.6508444  3
   8071   8072   8075   8077     1  0.0000000  0.6508444  3
   8071   8081   8084   8085     1  0.0000000  0.6508444  3
   8071   8081   8084   8086     1  0.0000000  0.6508444  3
   8072   8071   8081   8082     1  0.0000000  1.2552000  3
   8072   8071   8081   8083     1  0.0000000  1.2552000  3
   8073   8072   8071   8081     1  0.0000000  1.2552000  3
   8073   8072   8075   8078     1  0.0000000  0.6508444  3
   8073   8072   8075   8076     1  0.0000000  0.6508444  3
   8073   8072   8075   8077     1  0.0000000  0.6508444  3
   8074   8072   8071   8081     1  0.0000000  1.2552000  3
   8074   8072   8075   8078     1  0.0000000  0.6508444  3
   8074   8072   8075   8076     1  0.0000000  0.6508444  3
   8074   8072   8075   8077     1  0.0000000  0.6508444  3
   8076   8075   8078   8079     1  0.0000000  3.3472000  1
   8076   8075   8078   8079     1  0.0000000  0.0000000  2
   8076   8075   8078   8079     1  180.0000771  0.3347200  3
   8076   8075   8078   8080     1  0.0000000  3.3472000  1
   8076   8075   8078   8080     1  0.0000000  0.0000000  2
   8076   8075   8078   8080     1  180.0000771  0.3347200  3
   8077   8075   8078   8079     1  0.0000000  3.3472000  1
   8077   8075   8078   8079     1  0.0000000  0.0000000  2
   8077   8075   8078   8079     1  180.0000771  0.3347200  3
   8077   8075   8078   8080     1  0.0000000  3.3472000  1
   8077   8075   8078   8080     1  0.0000000  0.0000000  2
   8077   8075   8078   8080     1  180.0000771  0.3347200  3
   8082   8081   8084   8087     1  0.0000000  0.6508444  3
   8082   8081   8084   8085     1  0.0000000  0.6508444  3
   8082   8081   8084   8086     1  0.0000000  0.6508444  3
   8083   8081   8084   8087     1  0.0000000  0.6508444  3
   8083   8081   8084   8085     1  0.0000000  0.6508444  3
   8083   8081   8084   8086     1  0.0000000  0.6508444  3
   8085   8084   8087   8088     1  0.0000000  3.3472000  1
   8085   8084   8087   8088     1  0.0000000  0.0000000  2
   8085   8084   8087   8088     1  180.0000771  0.3347200  3
   8085   8084   8087   8089     1  0.0000000  3.3472000  1
   8085   8084   8087   8089     1  0.0000000  0.0000000  2
   8085   8084   8087   8089     1  180.0000771  0.3347200  3
   8086   8084   8087   8088     1  0.0000000  3.3472000  1
   8086   8084   8087   8088     1  0.0000000  0.0000000  2
   8086   8084   8087   8088     1  180.0000771  0.3347200  3
   8086   8084   8087   8089     1  0.0000000  3.3472000  1
   8086   8084   8087   8089     1  0.0000000  0.0000000  2
   8086   8084   8087   8089     1  180.0000771  0.3347200  3
   8091   8094   8097   8098     1  0.0000000  0.6508444  3
   8091   8094   8097   8099     1  0.0000000  0.6508444  3
   8092   8091   8094   8097     1  0.0000000  0.6508444  3
   8092   8091   8094   8095     1  0.0000000  0.6508444  3
   8092   8091   8094   8096     1  0.0000000  0.6508444  3
   8093   8091   8094   8097     1  0.0000000  0.6508444  3
   8093   8091   8094   8095     1  0.0000000  0.6508444  3
   8093   8091   8094   8096     1  0.0000000  0.6508444  3
   8095   8094   8097   8100     1  0.0000000  0.6508444  3
   8095   8094   8097   8098     1  0.0000000  0.6508444  3
   8095   8094   8097   8099     1  0.0000000  0.6508444  3
   8095   8094   8091   8119     1  0.0000000  1.0460000  1
   8095   8094   8091   8119     1  0.0000000  0.0000000  3
   8096   8094   8097   8100     1  0.0000000  0.6508444  3
   8096   8094   8097   8098     1  0.0000000  0.6508444  3
   8096   8094   8097   8099     1  0.0000000  0.6508444  3
   8096   8094   8091   8119     1  0.0000000  1.0460000  1
   8096   8094   8091   8119     1  0.0000000  0.0000000  3
   8097   8100   8101   8102     1  0.0000000  1.2552000  3
   8097   8100   8101   8103     1  0.0000000  1.2552000  3
   8097   8100   8110   8111     1  0.0000000  1.2552000  3
   8097   8100   8110   8112     1  0.0000000  1.2552000  3
   8098   8097   8100   8101     1  0.0000000  1.2552000  3
   8098   8097   8100   8110     1  0.0000000  1.2552000  3
   8099   8097   8100   8101     1  0.0000000  1.2552000  3
   8099   8097   8100   8110     1  0.0000000  1.2552000  3
   8100   8101   8104   8105     1  0.0000000  0.6508444  3
   8100   8101   8104   8106     1  0.0000000  0.6508444  3
   8100   8110   8113   8114     1  0.0000000  0.6508444  3
   8100   8110   8113   8115     1  0.0000000  0.6508444  3
   8101   8100   8110   8111     1  0.0000000  1.2552000  3
   8101   8100   8110   8112     1  0.0000000  1.2552000  3
   8102   8101   8104   8107     1  0.0000000  0.6508444  3
   8102   8101   8104   8105     1  0.0000000  0.6508444  3
   8102   8101   8104   8106     1  0.0000000  0.6508444  3
   8102   8101   8100   8110     1  0.0000000  1.2552000  3
   8103   8101   8104   8107     1  0.0000000  0.6508444  3
   8103   8101   8104   8105     1  0.0000000  0.6508444  3
   8103   8101   8104   8106     1  0.0000000  0.6508444  3
   8103   8101   8100   8110     1  0.0000000  1.2552000  3
   8105   8104   8107   8108     1  0.0000000  3.3472000  1
   8105   8104   8107   8108     1  0.0000000  0.0000000  2
   8105   8104   8107   8108     1  180.0000771  0.3347200  3
   8105   8104   8107   8109     1  0.0000000  3.3472000  1
   8105   8104   8107   8109     1  0.0000000  0.0000000  2
   8105   8104   8107   8109     1  180.0000771  0.3347200  3
   8106   8104   8107   8108     1  0.0000000  3.3472000  1
   8106   8104   8107   8108     1  0.0000000  0.0000000  2
   8106   8104   8107   8108     1  180.0000771  0.3347200  3
   8106   8104   8107   8109     1  0.0000000  3.3472000  1
   8106   8104   8107   8109     1  0.0000000  0.0000000  2
   8106   8104   8107   8109     1  180.0000771  0.3347200  3
   8111   8110   8113   8116     1  0.0000000  0.6508444  3
   8111   8110   8113   8114     1  0.0000000  0.6508444  3
   8111   8110   8113   8115     1  0.0000000  0.6508444  3
   8112   8110   8113   8116     1  0.0000000  0.6508444  3
   8112   8110   8113   8114     1  0.0000000  0.6508444  3
   8112   8110   8113   8115     1  0.0000000  0.6508444  3
   8114   8113   8116   8117     1  0.0000000  3.3472000  1
   8114   8113   8116   8117     1  0.0000000  0.0000000  2
   8114   8113   8116   8117     1  180.0000771  0.3347200  3
   8114   8113   8116   8118     1  0.0000000  3.3472000  1
   8114   8113   8116   8118     1  0.0000000  0.0000000  2
   8114   8113   8116   8118     1  180.0000771  0.3347200  3
   8115   8113   8116   8117     1  0.0000000  3.3472000  1
   8115   8113   8116   8117     1  0.0000000  0.0000000  2
   8115   8113   8116   8117     1  180.0000771  0.3347200  3
   8115   8113   8116   8118     1  0.0000000  3.3472000  1
   8115   8113   8116   8118     1  0.0000000  0.0000000  2
   8115   8113   8116   8118     1  180.0000771  0.3347200  3
   8120   8123   8126   8127     1  0.0000000  0.6508444  3
   8120   8123   8126   8128     1  0.0000000  0.6508444  3
   8121   8120   8123   8126     1  0.0000000  0.6508444  3
   8121   8120   8123   8124     1  0.0000000  0.6508444  3
   8121   8120   8123   8125     1  0.0000000  0.6508444  3
   8122   8120   8123   8126     1  0.0000000  0.6508444  3
   8122   8120   8123   8124     1  0.0000000  0.6508444  3
   8122   8120   8123   8125     1  0.0000000  0.6508444  3
   8124   8123   8120   8148     1  0.0000000  1.0460000  1
   8124   8123   8120   8148     1  0.0000000  0.0000000  3
   8124   8123   8126   8129     1  0.0000000  0.6508444  3
   8124   8123   8126   8127     1  0.0000000  0.6508444  3
   8124   8123   8126   8128     1  0.0000000  0.6508444  3
   8125   8123   8120   8148     1  0.0000000  1.0460000  1
   8125   8123   8120   8148     1  0.0000000  0.0000000  3
   8125   8123   8126   8129     1  0.0000000  0.6508444  3
   8125   8123   8126   8127     1  0.0000000  0.6508444  3
   8125   8123   8126   8128     1  0.0000000  0.6508444  3
   8126   8129   8130   8131     1  0.0000000  1.2552000  3
   8126   8129   8130   8132     1  0.0000000  1.2552000  3
   8126   8129   8139   8140     1  0.0000000  1.2552000  3
   8126   8129   8139   8141     1  0.0000000  1.2552000  3
   8127   8126   8129   8130     1  0.0000000  1.2552000  3
   8127   8126   8129   8139     1  0.0000000  1.2552000  3
   8128   8126   8129   8130     1  0.0000000  1.2552000  3
   8128   8126   8129   8139     1  0.0000000  1.2552000  3
   8129   8130   8133   8134     1  0.0000000  0.6508444  3
   8129   8130   8133   8135     1  0.0000000  0.6508444  3
   8129   8139   8142   8143     1  0.0000000  0.6508444  3
   8129   8139   8142   8144     1  0.0000000  0.6508444  3
   8130   8129   8139   8140     1  0.0000000  1.2552000  3
   8130   8129   8139   8141     1  0.0000000  1.2552000  3
   8131   8130   8129   8139     1  0.0000000  1.2552000  3
   8131   8130   8133   8136     1  0.0000000  0.6508444  3
   8131   8130   8133   8134     1  0.0000000  0.6508444  3
   8131   8130   8133   8135     1  0.0000000  0.6508444  3
   8132   8130   8129   8139     1  0.0000000  1.2552000  3
   8132   8130   8133   8136     1  0.0000000  0.6508444  3
   8132   8130   8133   8134     1  0.0000000  0.6508444  3
   8132   8130   8133   8135     1  0.0000000  0.6508444  3
   8134   8133   8136   8137     1  0.0000000  3.3472000  1
   8134   8133   8136   8137     1  0.0000000  0.0000000  2
   8134   8133   8136   8137     1  180.0000771  0.3347200  3
   8134   8133   8136   8138     1  0.0000000  3.3472000  1
   8134   8133   8136   8138     1  0.0000000  0.0000000  2
   8134   8133   8136   8138     1  180.0000771  0.3347200  3
   8135   8133   8136   8137     1  0.0000000  3.3472000  1
   8135   8133   8136   8137     1  0.0000000  0.0000000  2
   8135   8133   8136   8137     1  180.0000771  0.3347200  3
   8135   8133   8136   8138     1  0.0000000  3.3472000  1
   8135   8133   8136   8138     1  0.0000000  0.0000000  2
   8135   8133   8136   8138     1  180.0000771  0.3347200  3
   8140   8139   8142   8145     1  0.0000000  0.6508444  3
   8140   8139   8142   8143     1  0.0000000  0.6508444  3
   8140   8139   8142   8144     1  0.0000000  0.6508444  3
   8141   8139   8142   8145     1  0.0000000  0.6508444  3
   8141   8139   8142   8143     1  0.0000000  0.6508444  3
   8141   8139   8142   8144     1  0.0000000  0.6508444  3
   8143   8142   8145   8146     1  0.0000000  3.3472000  1
   8143   8142   8145   8146     1  0.0000000  0.0000000  2
   8143   8142   8145   8146     1  180.0000771  0.3347200  3
   8143   8142   8145   8147     1  0.0000000  3.3472000  1
   8143   8142   8145   8147     1  0.0000000  0.0000000  2
   8143   8142   8145   8147     1  180.0000771  0.3347200  3
   8144   8142   8145   8146     1  0.0000000  3.3472000  1
   8144   8142   8145   8146     1  0.0000000  0.0000000  2
   8144   8142   8145   8146     1  180.0000771  0.3347200  3
   8144   8142   8145   8147     1  0.0000000  3.3472000  1
   8144   8142   8145   8147     1  0.0000000  0.0000000  2
   8144   8142   8145   8147     1  180.0000771  0.3347200  3
   8149   8152   8155   8156     1  0.0000000  0.6508444  3
   8149   8152   8155   8157     1  0.0000000  0.6508444  3
   8150   8149   8152   8155     1  0.0000000  0.6508444  3
   8150   8149   8152   8153     1  0.0000000  0.6508444  3
   8150   8149   8152   8154     1  0.0000000  0.6508444  3
   8151   8149   8152   8155     1  0.0000000  0.6508444  3
   8151   8149   8152   8153     1  0.0000000  0.6508444  3
   8151   8149   8152   8154     1  0.0000000  0.6508444  3
   8153   8152   8155   8158     1  0.0000000  0.6508444  3
   8153   8152   8155   8156     1  0.0000000  0.6508444  3
   8153   8152   8155   8157     1  0.0000000  0.6508444  3
   8153   8152   8149   8177     1  0.0000000  1.0460000  1
   8153   8152   8149   8177     1  0.0000000  0.0000000  3
   8154   8152   8155   8158     1  0.0000000  0.6508444  3
   8154   8152   8155   8156     1  0.0000000  0.6508444  3
   8154   8152   8155   8157     1  0.0000000  0.6508444  3
   8154   8152   8149   8177     1  0.0000000  1.0460000  1
   8154   8152   8149   8177     1  0.0000000  0.0000000  3
   8155   8158   8159   8160     1  0.0000000  1.2552000  3
   8155   8158   8159   8161     1  0.0000000  1.2552000  3
   8155   8158   8168   8169     1  0.0000000  1.2552000  3
   8155   8158   8168   8170     1  0.0000000  1.2552000  3
   8156   8155   8158   8159     1  0.0000000  1.2552000  3
   8156   8155   8158   8168     1  0.0000000  1.2552000  3
   8157   8155   8158   8159     1  0.0000000  1.2552000  3
   8157   8155   8158   8168     1  0.0000000  1.2552000  3
   8158   8159   8162   8163     1  0.0000000  0.6508444  3
   8158   8159   8162   8164     1  0.0000000  0.6508444  3
   8158   8168   8171   8172     1  0.0000000  0.6508444  3
   8158   8168   8171   8173     1  0.0000000  0.6508444  3
   8159   8158   8168   8169     1  0.0000000  1.2552000  3
   8159   8158   8168   8170     1  0.0000000  1.2552000  3
   8160   8159   8162   8165     1  0.0000000  0.6508444  3
   8160   8159   8162   8163     1  0.0000000  0.6508444  3
   8160   8159   8162   8164     1  0.0000000  0.6508444  3
   8160   8159   8158   8168     1  0.0000000  1.2552000  3
   8161   8159   8162   8165     1  0.0000000  0.6508444  3
   8161   8159   8162   8163     1  0.0000000  0.6508444  3
   8161   8159   8162   8164     1  0.0000000  0.6508444  3
   8161   8159   8158   8168     1  0.0000000  1.2552000  3
   8163   8162   8165   8166     1  0.0000000  3.3472000  1
   8163   8162   8165   8166     1  0.0000000  0.0000000  2
   8163   8162   8165   8166     1  180.0000771  0.3347200  3
   8163   8162   8165   8167     1  0.0000000  3.3472000  1
   8163   8162   8165   8167     1  0.0000000  0.0000000  2
   8163   8162   8165   8167     1  180.0000771  0.3347200  3
   8164   8162   8165   8166     1  0.0000000  3.3472000  1
   8164   8162   8165   8166     1  0.0000000  0.0000000  2
   8164   8162   8165   8166     1  180.0000771  0.3347200  3
   8164   8162   8165   8167     1  0.0000000  3.3472000  1
   8164   8162   8165   8167     1  0.0000000  0.0000000  2
   8164   8162   8165   8167     1  180.0000771  0.3347200  3
   8169   8168   8171   8174     1  0.0000000  0.6508444  3
   8169   8168   8171   8172     1  0.0000000  0.6508444  3
   8169   8168   8171   8173     1  0.0000000  0.6508444  3
   8170   8168   8171   8174     1  0.0000000  0.6508444  3
   8170   8168   8171   8172     1  0.0000000  0.6508444  3
   8170   8168   8171   8173     1  0.0000000  0.6508444  3
   8172   8171   8174   8175     1  0.0000000  3.3472000  1
   8172   8171   8174   8175     1  0.0000000  0.0000000  2
   8172   8171   8174   8175     1  180.0000771  0.3347200  3
   8172   8171   8174   8176     1  0.0000000  3.3472000  1
   8172   8171   8174   8176     1  0.0000000  0.0000000  2
   8172   8171   8174   8176     1  180.0000771  0.3347200  3
   8173   8171   8174   8175     1  0.0000000  3.3472000  1
   8173   8171   8174   8175     1  0.0000000  0.0000000  2
   8173   8171   8174   8175     1  180.0000771  0.3347200  3
   8173   8171   8174   8176     1  0.0000000  3.3472000  1
   8173   8171   8174   8176     1  0.0000000  0.0000000  2
   8173   8171   8174   8176     1  180.0000771  0.3347200  3
   8178   8181   8184   8185     1  0.0000000  0.6508444  3
   8178   8181   8184   8186     1  0.0000000  0.6508444  3
   8179   8178   8181   8184     1  0.0000000  0.6508444  3
   8179   8178   8181   8182     1  0.0000000  0.6508444  3
   8179   8178   8181   8183     1  0.0000000  0.6508444  3
   8180   8178   8181   8184     1  0.0000000  0.6508444  3
   8180   8178   8181   8182     1  0.0000000  0.6508444  3
   8180   8178   8181   8183     1  0.0000000  0.6508444  3
   8182   8181   8178   8206     1  0.0000000  1.0460000  1
   8182   8181   8178   8206     1  0.0000000  0.0000000  3
   8182   8181   8184   8187     1  0.0000000  0.6508444  3
   8182   8181   8184   8185     1  0.0000000  0.6508444  3
   8182   8181   8184   8186     1  0.0000000  0.6508444  3
   8183   8181   8178   8206     1  0.0000000  1.0460000  1
   8183   8181   8178   8206     1  0.0000000  0.0000000  3
   8183   8181   8184   8187     1  0.0000000  0.6508444  3
   8183   8181   8184   8185     1  0.0000000  0.6508444  3
   8183   8181   8184   8186     1  0.0000000  0.6508444  3
   8184   8187   8188   8189     1  0.0000000  1.2552000  3
   8184   8187   8188   8190     1  0.0000000  1.2552000  3
   8184   8187   8197   8198     1  0.0000000  1.2552000  3
   8184   8187   8197   8199     1  0.0000000  1.2552000  3
   8185   8184   8187   8188     1  0.0000000  1.2552000  3
   8185   8184   8187   8197     1  0.0000000  1.2552000  3
   8186   8184   8187   8188     1  0.0000000  1.2552000  3
   8186   8184   8187   8197     1  0.0000000  1.2552000  3
   8187   8188   8191   8192     1  0.0000000  0.6508444  3
   8187   8188   8191   8193     1  0.0000000  0.6508444  3
   8187   8197   8200   8201     1  0.0000000  0.6508444  3
   8187   8197   8200   8202     1  0.0000000  0.6508444  3
   8188   8187   8197   8198     1  0.0000000  1.2552000  3
   8188   8187   8197   8199     1  0.0000000  1.2552000  3
   8189   8188   8187   8197     1  0.0000000  1.2552000  3
   8189   8188   8191   8194     1  0.0000000  0.6508444  3
   8189   8188   8191   8192     1  0.0000000  0.6508444  3
   8189   8188   8191   8193     1  0.0000000  0.6508444  3
   8190   8188   8187   8197     1  0.0000000  1.2552000  3
   8190   8188   8191   8194     1  0.0000000  0.6508444  3
   8190   8188   8191   8192     1  0.0000000  0.6508444  3
   8190   8188   8191   8193     1  0.0000000  0.6508444  3
   8192   8191   8194   8195     1  0.0000000  3.3472000  1
   8192   8191   8194   8195     1  0.0000000  0.0000000  2
   8192   8191   8194   8195     1  180.0000771  0.3347200  3
   8192   8191   8194   8196     1  0.0000000  3.3472000  1
   8192   8191   8194   8196     1  0.0000000  0.0000000  2
   8192   8191   8194   8196     1  180.0000771  0.3347200  3
   8193   8191   8194   8195     1  0.0000000  3.3472000  1
   8193   8191   8194   8195     1  0.0000000  0.0000000  2
   8193   8191   8194   8195     1  180.0000771  0.3347200  3
   8193   8191   8194   8196     1  0.0000000  3.3472000  1
   8193   8191   8194   8196     1  0.0000000  0.0000000  2
   8193   8191   8194   8196     1  180.0000771  0.3347200  3
   8198   8197   8200   8203     1  0.0000000  0.6508444  3
   8198   8197   8200   8201     1  0.0000000  0.6508444  3
   8198   8197   8200   8202     1  0.0000000  0.6508444  3
   8199   8197   8200   8203     1  0.0000000  0.6508444  3
   8199   8197   8200   8201     1  0.0000000  0.6508444  3
   8199   8197   8200   8202     1  0.0000000  0.6508444  3
   8201   8200   8203   8204     1  0.0000000  3.3472000  1
   8201   8200   8203   8204     1  0.0000000  0.0000000  2
   8201   8200   8203   8204     1  180.0000771  0.3347200  3
   8201   8200   8203   8205     1  0.0000000  3.3472000  1
   8201   8200   8203   8205     1  0.0000000  0.0000000  2
   8201   8200   8203   8205     1  180.0000771  0.3347200  3
   8202   8200   8203   8204     1  0.0000000  3.3472000  1
   8202   8200   8203   8204     1  0.0000000  0.0000000  2
   8202   8200   8203   8204     1  180.0000771  0.3347200  3
   8202   8200   8203   8205     1  0.0000000  3.3472000  1
   8202   8200   8203   8205     1  0.0000000  0.0000000  2
   8202   8200   8203   8205     1  180.0000771  0.3347200  3
   8207   8210   8213   8214     1  0.0000000  0.6508444  3
   8207   8210   8213   8215     1  0.0000000  0.6508444  3
   8208   8207   8210   8213     1  0.0000000  0.6508444  3
   8208   8207   8210   8211     1  0.0000000  0.6508444  3
   8208   8207   8210   8212     1  0.0000000  0.6508444  3
   8209   8207   8210   8213     1  0.0000000  0.6508444  3
   8209   8207   8210   8211     1  0.0000000  0.6508444  3
   8209   8207   8210   8212     1  0.0000000  0.6508444  3
   8211   8210   8213   8216     1  0.0000000  0.6508444  3
   8211   8210   8213   8214     1  0.0000000  0.6508444  3
   8211   8210   8213   8215     1  0.0000000  0.6508444  3
   8211   8210   8207   8235     1  0.0000000  1.0460000  1
   8211   8210   8207   8235     1  0.0000000  0.0000000  3
   8212   8210   8213   8216     1  0.0000000  0.6508444  3
   8212   8210   8213   8214     1  0.0000000  0.6508444  3
   8212   8210   8213   8215     1  0.0000000  0.6508444  3
   8212   8210   8207   8235     1  0.0000000  1.0460000  1
   8212   8210   8207   8235     1  0.0000000  0.0000000  3
   8213   8216   8217   8218     1  0.0000000  1.2552000  3
   8213   8216   8217   8219     1  0.0000000  1.2552000  3
   8213   8216   8226   8227     1  0.0000000  1.2552000  3
   8213   8216   8226   8228     1  0.0000000  1.2552000  3
   8214   8213   8216   8217     1  0.0000000  1.2552000  3
   8214   8213   8216   8226     1  0.0000000  1.2552000  3
   8215   8213   8216   8217     1  0.0000000  1.2552000  3
   8215   8213   8216   8226     1  0.0000000  1.2552000  3
   8216   8217   8220   8221     1  0.0000000  0.6508444  3
   8216   8217   8220   8222     1  0.0000000  0.6508444  3
   8216   8226   8229   8230     1  0.0000000  0.6508444  3
   8216   8226   8229   8231     1  0.0000000  0.6508444  3
   8217   8216   8226   8227     1  0.0000000  1.2552000  3
   8217   8216   8226   8228     1  0.0000000  1.2552000  3
   8218   8217   8220   8223     1  0.0000000  0.6508444  3
   8218   8217   8220   8221     1  0.0000000  0.6508444  3
   8218   8217   8220   8222     1  0.0000000  0.6508444  3
   8218   8217   8216   8226     1  0.0000000  1.2552000  3
   8219   8217   8220   8223     1  0.0000000  0.6508444  3
   8219   8217   8220   8221     1  0.0000000  0.6508444  3
   8219   8217   8220   8222     1  0.0000000  0.6508444  3
   8219   8217   8216   8226     1  0.0000000  1.2552000  3
   8221   8220   8223   8224     1  0.0000000  3.3472000  1
   8221   8220   8223   8224     1  0.0000000  0.0000000  2
   8221   8220   8223   8224     1  180.0000771  0.3347200  3
   8221   8220   8223   8225     1  0.0000000  3.3472000  1
   8221   8220   8223   8225     1  0.0000000  0.0000000  2
   8221   8220   8223   8225     1  180.0000771  0.3347200  3
   8222   8220   8223   8224     1  0.0000000  3.3472000  1
   8222   8220   8223   8224     1  0.0000000  0.0000000  2
   8222   8220   8223   8224     1  180.0000771  0.3347200  3
   8222   8220   8223   8225     1  0.0000000  3.3472000  1
   8222   8220   8223   8225     1  0.0000000  0.0000000  2
   8222   8220   8223   8225     1  180.0000771  0.3347200  3
   8227   8226   8229   8232     1  0.0000000  0.6508444  3
   8227   8226   8229   8230     1  0.0000000  0.6508444  3
   8227   8226   8229   8231     1  0.0000000  0.6508444  3
   8228   8226   8229   8232     1  0.0000000  0.6508444  3
   8228   8226   8229   8230     1  0.0000000  0.6508444  3
   8228   8226   8229   8231     1  0.0000000  0.6508444  3
   8230   8229   8232   8233     1  0.0000000  3.3472000  1
   8230   8229   8232   8233     1  0.0000000  0.0000000  2
   8230   8229   8232   8233     1  180.0000771  0.3347200  3
   8230   8229   8232   8234     1  0.0000000  3.3472000  1
   8230   8229   8232   8234     1  0.0000000  0.0000000  2
   8230   8229   8232   8234     1  180.0000771  0.3347200  3
   8231   8229   8232   8233     1  0.0000000  3.3472000  1
   8231   8229   8232   8233     1  0.0000000  0.0000000  2
   8231   8229   8232   8233     1  180.0000771  0.3347200  3
   8231   8229   8232   8234     1  0.0000000  3.3472000  1
   8231   8229   8232   8234     1  0.0000000  0.0000000  2
   8231   8229   8232   8234     1  180.0000771  0.3347200  3
   8236   8239   8242   8243     1  0.0000000  0.6508444  3
   8236   8239   8242   8244     1  0.0000000  0.6508444  3
   8237   8236   8239   8242     1  0.0000000  0.6508444  3
   8237   8236   8239   8240     1  0.0000000  0.6508444  3
   8237   8236   8239   8241     1  0.0000000  0.6508444  3
   8238   8236   8239   8242     1  0.0000000  0.6508444  3
   8238   8236   8239   8240     1  0.0000000  0.6508444  3
   8238   8236   8239   8241     1  0.0000000  0.6508444  3
   8240   8239   8236   8264     1  0.0000000  1.0460000  1
   8240   8239   8236   8264     1  0.0000000  0.0000000  3
   8240   8239   8242   8245     1  0.0000000  0.6508444  3
   8240   8239   8242   8243     1  0.0000000  0.6508444  3
   8240   8239   8242   8244     1  0.0000000  0.6508444  3
   8241   8239   8236   8264     1  0.0000000  1.0460000  1
   8241   8239   8236   8264     1  0.0000000  0.0000000  3
   8241   8239   8242   8245     1  0.0000000  0.6508444  3
   8241   8239   8242   8243     1  0.0000000  0.6508444  3
   8241   8239   8242   8244     1  0.0000000  0.6508444  3
   8242   8245   8246   8247     1  0.0000000  1.2552000  3
   8242   8245   8246   8248     1  0.0000000  1.2552000  3
   8242   8245   8255   8256     1  0.0000000  1.2552000  3
   8242   8245   8255   8257     1  0.0000000  1.2552000  3
   8243   8242   8245   8246     1  0.0000000  1.2552000  3
   8243   8242   8245   8255     1  0.0000000  1.2552000  3
   8244   8242   8245   8246     1  0.0000000  1.2552000  3
   8244   8242   8245   8255     1  0.0000000  1.2552000  3
   8245   8246   8249   8250     1  0.0000000  0.6508444  3
   8245   8246   8249   8251     1  0.0000000  0.6508444  3
   8245   8255   8258   8259     1  0.0000000  0.6508444  3
   8245   8255   8258   8260     1  0.0000000  0.6508444  3
   8246   8245   8255   8256     1  0.0000000  1.2552000  3
   8246   8245   8255   8257     1  0.0000000  1.2552000  3
   8247   8246   8245   8255     1  0.0000000  1.2552000  3
   8247   8246   8249   8252     1  0.0000000  0.6508444  3
   8247   8246   8249   8250     1  0.0000000  0.6508444  3
   8247   8246   8249   8251     1  0.0000000  0.6508444  3
   8248   8246   8245   8255     1  0.0000000  1.2552000  3
   8248   8246   8249   8252     1  0.0000000  0.6508444  3
   8248   8246   8249   8250     1  0.0000000  0.6508444  3
   8248   8246   8249   8251     1  0.0000000  0.6508444  3
   8250   8249   8252   8253     1  0.0000000  3.3472000  1
   8250   8249   8252   8253     1  0.0000000  0.0000000  2
   8250   8249   8252   8253     1  180.0000771  0.3347200  3
   8250   8249   8252   8254     1  0.0000000  3.3472000  1
   8250   8249   8252   8254     1  0.0000000  0.0000000  2
   8250   8249   8252   8254     1  180.0000771  0.3347200  3
   8251   8249   8252   8253     1  0.0000000  3.3472000  1
   8251   8249   8252   8253     1  0.0000000  0.0000000  2
   8251   8249   8252   8253     1  180.0000771  0.3347200  3
   8251   8249   8252   8254     1  0.0000000  3.3472000  1
   8251   8249   8252   8254     1  0.0000000  0.0000000  2
   8251   8249   8252   8254     1  180.0000771  0.3347200  3
   8256   8255   8258   8261     1  0.0000000  0.6508444  3
   8256   8255   8258   8259     1  0.0000000  0.6508444  3
   8256   8255   8258   8260     1  0.0000000  0.6508444  3
   8257   8255   8258   8261     1  0.0000000  0.6508444  3
   8257   8255   8258   8259     1  0.0000000  0.6508444  3
   8257   8255   8258   8260     1  0.0000000  0.6508444  3
   8259   8258   8261   8262     1  0.0000000  3.3472000  1
   8259   8258   8261   8262     1  0.0000000  0.0000000  2
   8259   8258   8261   8262     1  180.0000771  0.3347200  3
   8259   8258   8261   8263     1  0.0000000  3.3472000  1
   8259   8258   8261   8263     1  0.0000000  0.0000000  2
   8259   8258   8261   8263     1  180.0000771  0.3347200  3
   8260   8258   8261   8262     1  0.0000000  3.3472000  1
   8260   8258   8261   8262     1  0.0000000  0.0000000  2
   8260   8258   8261   8262     1  180.0000771  0.3347200  3
   8260   8258   8261   8263     1  0.0000000  3.3472000  1
   8260   8258   8261   8263     1  0.0000000  0.0000000  2
   8260   8258   8261   8263     1  180.0000771  0.3347200  3
   8265   8268   8271   8272     1  0.0000000  0.6508444  3
   8265   8268   8271   8273     1  0.0000000  0.6508444  3
   8266   8265   8268   8271     1  0.0000000  0.6508444  3
   8266   8265   8268   8269     1  0.0000000  0.6508444  3
   8266   8265   8268   8270     1  0.0000000  0.6508444  3
   8267   8265   8268   8271     1  0.0000000  0.6508444  3
   8267   8265   8268   8269     1  0.0000000  0.6508444  3
   8267   8265   8268   8270     1  0.0000000  0.6508444  3
   8269   8268   8271   8274     1  0.0000000  0.6508444  3
   8269   8268   8271   8272     1  0.0000000  0.6508444  3
   8269   8268   8271   8273     1  0.0000000  0.6508444  3
   8269   8268   8265   8293     1  0.0000000  1.0460000  1
   8269   8268   8265   8293     1  0.0000000  0.0000000  3
   8270   8268   8271   8274     1  0.0000000  0.6508444  3
   8270   8268   8271   8272     1  0.0000000  0.6508444  3
   8270   8268   8271   8273     1  0.0000000  0.6508444  3
   8270   8268   8265   8293     1  0.0000000  1.0460000  1
   8270   8268   8265   8293     1  0.0000000  0.0000000  3
   8271   8274   8275   8276     1  0.0000000  1.2552000  3
   8271   8274   8275   8277     1  0.0000000  1.2552000  3
   8271   8274   8284   8285     1  0.0000000  1.2552000  3
   8271   8274   8284   8286     1  0.0000000  1.2552000  3
   8272   8271   8274   8275     1  0.0000000  1.2552000  3
   8272   8271   8274   8284     1  0.0000000  1.2552000  3
   8273   8271   8274   8275     1  0.0000000  1.2552000  3
   8273   8271   8274   8284     1  0.0000000  1.2552000  3
   8274   8275   8278   8279     1  0.0000000  0.6508444  3
   8274   8275   8278   8280     1  0.0000000  0.6508444  3
   8274   8284   8287   8288     1  0.0000000  0.6508444  3
   8274   8284   8287   8289     1  0.0000000  0.6508444  3
   8275   8274   8284   8285     1  0.0000000  1.2552000  3
   8275   8274   8284   8286     1  0.0000000  1.2552000  3
   8276   8275   8278   8281     1  0.0000000  0.6508444  3
   8276   8275   8278   8279     1  0.0000000  0.6508444  3
   8276   8275   8278   8280     1  0.0000000  0.6508444  3
   8276   8275   8274   8284     1  0.0000000  1.2552000  3
   8277   8275   8278   8281     1  0.0000000  0.6508444  3
   8277   8275   8278   8279     1  0.0000000  0.6508444  3
   8277   8275   8278   8280     1  0.0000000  0.6508444  3
   8277   8275   8274   8284     1  0.0000000  1.2552000  3
   8279   8278   8281   8282     1  0.0000000  3.3472000  1
   8279   8278   8281   8282     1  0.0000000  0.0000000  2
   8279   8278   8281   8282     1  180.0000771  0.3347200  3
   8279   8278   8281   8283     1  0.0000000  3.3472000  1
   8279   8278   8281   8283     1  0.0000000  0.0000000  2
   8279   8278   8281   8283     1  180.0000771  0.3347200  3
   8280   8278   8281   8282     1  0.0000000  3.3472000  1
   8280   8278   8281   8282     1  0.0000000  0.0000000  2
   8280   8278   8281   8282     1  180.0000771  0.3347200  3
   8280   8278   8281   8283     1  0.0000000  3.3472000  1
   8280   8278   8281   8283     1  0.0000000  0.0000000  2
   8280   8278   8281   8283     1  180.0000771  0.3347200  3
   8285   8284   8287   8290     1  0.0000000  0.6508444  3
   8285   8284   8287   8288     1  0.0000000  0.6508444  3
   8285   8284   8287   8289     1  0.0000000  0.6508444  3
   8286   8284   8287   8290     1  0.0000000  0.6508444  3
   8286   8284   8287   8288     1  0.0000000  0.6508444  3
   8286   8284   8287   8289     1  0.0000000  0.6508444  3
   8288   8287   8290   8291     1  0.0000000  3.3472000  1
   8288   8287   8290   8291     1  0.0000000  0.0000000  2
   8288   8287   8290   8291     1  180.0000771  0.3347200  3
   8288   8287   8290   8292     1  0.0000000  3.3472000  1
   8288   8287   8290   8292     1  0.0000000  0.0000000  2
   8288   8287   8290   8292     1  180.0000771  0.3347200  3
   8289   8287   8290   8291     1  0.0000000  3.3472000  1
   8289   8287   8290   8291     1  0.0000000  0.0000000  2
   8289   8287   8290   8291     1  180.0000771  0.3347200  3
   8289   8287   8290   8292     1  0.0000000  3.3472000  1
   8289   8287   8290   8292     1  0.0000000  0.0000000  2
   8289   8287   8290   8292     1  180.0000771  0.3347200  3
   8294   8297   8300   8301     1  0.0000000  0.6508444  3
   8294   8297   8300   8302     1  0.0000000  0.6508444  3
   8295   8294   8297   8300     1  0.0000000  0.6508444  3
   8295   8294   8297   8298     1  0.0000000  0.6508444  3
   8295   8294   8297   8299     1  0.0000000  0.6508444  3
   8296   8294   8297   8300     1  0.0000000  0.6508444  3
   8296   8294   8297   8298     1  0.0000000  0.6508444  3
   8296   8294   8297   8299     1  0.0000000  0.6508444  3
   8298   8297   8294   8322     1  0.0000000  1.0460000  1
   8298   8297   8294   8322     1  0.0000000  0.0000000  3
   8298   8297   8300   8303     1  0.0000000  0.6508444  3
   8298   8297   8300   8301     1  0.0000000  0.6508444  3
   8298   8297   8300   8302     1  0.0000000  0.6508444  3
   8299   8297   8294   8322     1  0.0000000  1.0460000  1
   8299   8297   8294   8322     1  0.0000000  0.0000000  3
   8299   8297   8300   8303     1  0.0000000  0.6508444  3
   8299   8297   8300   8301     1  0.0000000  0.6508444  3
   8299   8297   8300   8302     1  0.0000000  0.6508444  3
   8300   8303   8304   8305     1  0.0000000  1.2552000  3
   8300   8303   8304   8306     1  0.0000000  1.2552000  3
   8300   8303   8313   8314     1  0.0000000  1.2552000  3
   8300   8303   8313   8315     1  0.0000000  1.2552000  3
   8301   8300   8303   8304     1  0.0000000  1.2552000  3
   8301   8300   8303   8313     1  0.0000000  1.2552000  3
   8302   8300   8303   8304     1  0.0000000  1.2552000  3
   8302   8300   8303   8313     1  0.0000000  1.2552000  3
   8303   8304   8307   8308     1  0.0000000  0.6508444  3
   8303   8304   8307   8309     1  0.0000000  0.6508444  3
   8303   8313   8316   8317     1  0.0000000  0.6508444  3
   8303   8313   8316   8318     1  0.0000000  0.6508444  3
   8304   8303   8313   8314     1  0.0000000  1.2552000  3
   8304   8303   8313   8315     1  0.0000000  1.2552000  3
   8305   8304   8303   8313     1  0.0000000  1.2552000  3
   8305   8304   8307   8310     1  0.0000000  0.6508444  3
   8305   8304   8307   8308     1  0.0000000  0.6508444  3
   8305   8304   8307   8309     1  0.0000000  0.6508444  3
   8306   8304   8303   8313     1  0.0000000  1.2552000  3
   8306   8304   8307   8310     1  0.0000000  0.6508444  3
   8306   8304   8307   8308     1  0.0000000  0.6508444  3
   8306   8304   8307   8309     1  0.0000000  0.6508444  3
   8308   8307   8310   8311     1  0.0000000  3.3472000  1
   8308   8307   8310   8311     1  0.0000000  0.0000000  2
   8308   8307   8310   8311     1  180.0000771  0.3347200  3
   8308   8307   8310   8312     1  0.0000000  3.3472000  1
   8308   8307   8310   8312     1  0.0000000  0.0000000  2
   8308   8307   8310   8312     1  180.0000771  0.3347200  3
   8309   8307   8310   8311     1  0.0000000  3.3472000  1
   8309   8307   8310   8311     1  0.0000000  0.0000000  2
   8309   8307   8310   8311     1  180.0000771  0.3347200  3
   8309   8307   8310   8312     1  0.0000000  3.3472000  1
   8309   8307   8310   8312     1  0.0000000  0.0000000  2
   8309   8307   8310   8312     1  180.0000771  0.3347200  3
   8314   8313   8316   8319     1  0.0000000  0.6508444  3
   8314   8313   8316   8317     1  0.0000000  0.6508444  3
   8314   8313   8316   8318     1  0.0000000  0.6508444  3
   8315   8313   8316   8319     1  0.0000000  0.6508444  3
   8315   8313   8316   8317     1  0.0000000  0.6508444  3
   8315   8313   8316   8318     1  0.0000000  0.6508444  3
   8317   8316   8319   8320     1  0.0000000  3.3472000  1
   8317   8316   8319   8320     1  0.0000000  0.0000000  2
   8317   8316   8319   8320     1  180.0000771  0.3347200  3
   8317   8316   8319   8321     1  0.0000000  3.3472000  1
   8317   8316   8319   8321     1  0.0000000  0.0000000  2
   8317   8316   8319   8321     1  180.0000771  0.3347200  3
   8318   8316   8319   8320     1  0.0000000  3.3472000  1
   8318   8316   8319   8320     1  0.0000000  0.0000000  2
   8318   8316   8319   8320     1  180.0000771  0.3347200  3
   8318   8316   8319   8321     1  0.0000000  3.3472000  1
   8318   8316   8319   8321     1  0.0000000  0.0000000  2
   8318   8316   8319   8321     1  180.0000771  0.3347200  3
   8323   8326   8329   8330     1  0.0000000  0.6508444  3
   8323   8326   8329   8331     1  0.0000000  0.6508444  3
   8324   8323   8326   8329     1  0.0000000  0.6508444  3
   8324   8323   8326   8327     1  0.0000000  0.6508444  3
   8324   8323   8326   8328     1  0.0000000  0.6508444  3
   8325   8323   8326   8329     1  0.0000000  0.6508444  3
   8325   8323   8326   8327     1  0.0000000  0.6508444  3
   8325   8323   8326   8328     1  0.0000000  0.6508444  3
   8327   8326   8329   8332     1  0.0000000  0.6508444  3
   8327   8326   8329   8330     1  0.0000000  0.6508444  3
   8327   8326   8329   8331     1  0.0000000  0.6508444  3
   8327   8326   8323   8351     1  0.0000000  1.0460000  1
   8327   8326   8323   8351     1  0.0000000  0.0000000  3
   8328   8326   8329   8332     1  0.0000000  0.6508444  3
   8328   8326   8329   8330     1  0.0000000  0.6508444  3
   8328   8326   8329   8331     1  0.0000000  0.6508444  3
   8328   8326   8323   8351     1  0.0000000  1.0460000  1
   8328   8326   8323   8351     1  0.0000000  0.0000000  3
   8329   8332   8333   8334     1  0.0000000  1.2552000  3
   8329   8332   8333   8335     1  0.0000000  1.2552000  3
   8329   8332   8342   8343     1  0.0000000  1.2552000  3
   8329   8332   8342   8344     1  0.0000000  1.2552000  3
   8330   8329   8332   8333     1  0.0000000  1.2552000  3
   8330   8329   8332   8342     1  0.0000000  1.2552000  3
   8331   8329   8332   8333     1  0.0000000  1.2552000  3
   8331   8329   8332   8342     1  0.0000000  1.2552000  3
   8332   8333   8336   8337     1  0.0000000  0.6508444  3
   8332   8333   8336   8338     1  0.0000000  0.6508444  3
   8332   8342   8345   8346     1  0.0000000  0.6508444  3
   8332   8342   8345   8347     1  0.0000000  0.6508444  3
   8333   8332   8342   8343     1  0.0000000  1.2552000  3
   8333   8332   8342   8344     1  0.0000000  1.2552000  3
   8334   8333   8336   8339     1  0.0000000  0.6508444  3
   8334   8333   8336   8337     1  0.0000000  0.6508444  3
   8334   8333   8336   8338     1  0.0000000  0.6508444  3
   8334   8333   8332   8342     1  0.0000000  1.2552000  3
   8335   8333   8336   8339     1  0.0000000  0.6508444  3
   8335   8333   8336   8337     1  0.0000000  0.6508444  3
   8335   8333   8336   8338     1  0.0000000  0.6508444  3
   8335   8333   8332   8342     1  0.0000000  1.2552000  3
   8337   8336   8339   8340     1  0.0000000  3.3472000  1
   8337   8336   8339   8340     1  0.0000000  0.0000000  2
   8337   8336   8339   8340     1  180.0000771  0.3347200  3
   8337   8336   8339   8341     1  0.0000000  3.3472000  1
   8337   8336   8339   8341     1  0.0000000  0.0000000  2
   8337   8336   8339   8341     1  180.0000771  0.3347200  3
   8338   8336   8339   8340     1  0.0000000  3.3472000  1
   8338   8336   8339   8340     1  0.0000000  0.0000000  2
   8338   8336   8339   8340     1  180.0000771  0.3347200  3
   8338   8336   8339   8341     1  0.0000000  3.3472000  1
   8338   8336   8339   8341     1  0.0000000  0.0000000  2
   8338   8336   8339   8341     1  180.0000771  0.3347200  3
   8343   8342   8345   8348     1  0.0000000  0.6508444  3
   8343   8342   8345   8346     1  0.0000000  0.6508444  3
   8343   8342   8345   8347     1  0.0000000  0.6508444  3
   8344   8342   8345   8348     1  0.0000000  0.6508444  3
   8344   8342   8345   8346     1  0.0000000  0.6508444  3
   8344   8342   8345   8347     1  0.0000000  0.6508444  3
   8346   8345   8348   8349     1  0.0000000  3.3472000  1
   8346   8345   8348   8349     1  0.0000000  0.0000000  2
   8346   8345   8348   8349     1  180.0000771  0.3347200  3
   8346   8345   8348   8350     1  0.0000000  3.3472000  1
   8346   8345   8348   8350     1  0.0000000  0.0000000  2
   8346   8345   8348   8350     1  180.0000771  0.3347200  3
   8347   8345   8348   8349     1  0.0000000  3.3472000  1
   8347   8345   8348   8349     1  0.0000000  0.0000000  2
   8347   8345   8348   8349     1  180.0000771  0.3347200  3
   8347   8345   8348   8350     1  0.0000000  3.3472000  1
   8347   8345   8348   8350     1  0.0000000  0.0000000  2
   8347   8345   8348   8350     1  180.0000771  0.3347200  3
   8352   8355   8358   8359     1  0.0000000  0.6508444  3
   8352   8355   8358   8360     1  0.0000000  0.6508444  3
   8353   8352   8355   8358     1  0.0000000  0.6508444  3
   8353   8352   8355   8356     1  0.0000000  0.6508444  3
   8353   8352   8355   8357     1  0.0000000  0.6508444  3
   8354   8352   8355   8358     1  0.0000000  0.6508444  3
   8354   8352   8355   8356     1  0.0000000  0.6508444  3
   8354   8352   8355   8357     1  0.0000000  0.6508444  3
   8356   8355   8352   8380     1  0.0000000  1.0460000  1
   8356   8355   8352   8380     1  0.0000000  0.0000000  3
   8356   8355   8358   8361     1  0.0000000  0.6508444  3
   8356   8355   8358   8359     1  0.0000000  0.6508444  3
   8356   8355   8358   8360     1  0.0000000  0.6508444  3
   8357   8355   8352   8380     1  0.0000000  1.0460000  1
   8357   8355   8352   8380     1  0.0000000  0.0000000  3
   8357   8355   8358   8361     1  0.0000000  0.6508444  3
   8357   8355   8358   8359     1  0.0000000  0.6508444  3
   8357   8355   8358   8360     1  0.0000000  0.6508444  3
   8358   8361   8362   8363     1  0.0000000  1.2552000  3
   8358   8361   8362   8364     1  0.0000000  1.2552000  3
   8358   8361   8371   8372     1  0.0000000  1.2552000  3
   8358   8361   8371   8373     1  0.0000000  1.2552000  3
   8359   8358   8361   8362     1  0.0000000  1.2552000  3
   8359   8358   8361   8371     1  0.0000000  1.2552000  3
   8360   8358   8361   8362     1  0.0000000  1.2552000  3
   8360   8358   8361   8371     1  0.0000000  1.2552000  3
   8361   8362   8365   8366     1  0.0000000  0.6508444  3
   8361   8362   8365   8367     1  0.0000000  0.6508444  3
   8361   8371   8374   8375     1  0.0000000  0.6508444  3
   8361   8371   8374   8376     1  0.0000000  0.6508444  3
   8362   8361   8371   8372     1  0.0000000  1.2552000  3
   8362   8361   8371   8373     1  0.0000000  1.2552000  3
   8363   8362   8361   8371     1  0.0000000  1.2552000  3
   8363   8362   8365   8368     1  0.0000000  0.6508444  3
   8363   8362   8365   8366     1  0.0000000  0.6508444  3
   8363   8362   8365   8367     1  0.0000000  0.6508444  3
   8364   8362   8361   8371     1  0.0000000  1.2552000  3
   8364   8362   8365   8368     1  0.0000000  0.6508444  3
   8364   8362   8365   8366     1  0.0000000  0.6508444  3
   8364   8362   8365   8367     1  0.0000000  0.6508444  3
   8366   8365   8368   8369     1  0.0000000  3.3472000  1
   8366   8365   8368   8369     1  0.0000000  0.0000000  2
   8366   8365   8368   8369     1  180.0000771  0.3347200  3
   8366   8365   8368   8370     1  0.0000000  3.3472000  1
   8366   8365   8368   8370     1  0.0000000  0.0000000  2
   8366   8365   8368   8370     1  180.0000771  0.3347200  3
   8367   8365   8368   8369     1  0.0000000  3.3472000  1
   8367   8365   8368   8369     1  0.0000000  0.0000000  2
   8367   8365   8368   8369     1  180.0000771  0.3347200  3
   8367   8365   8368   8370     1  0.0000000  3.3472000  1
   8367   8365   8368   8370     1  0.0000000  0.0000000  2
   8367   8365   8368   8370     1  180.0000771  0.3347200  3
   8372   8371   8374   8377     1  0.0000000  0.6508444  3
   8372   8371   8374   8375     1  0.0000000  0.6508444  3
   8372   8371   8374   8376     1  0.0000000  0.6508444  3
   8373   8371   8374   8377     1  0.0000000  0.6508444  3
   8373   8371   8374   8375     1  0.0000000  0.6508444  3
   8373   8371   8374   8376     1  0.0000000  0.6508444  3
   8375   8374   8377   8378     1  0.0000000  3.3472000  1
   8375   8374   8377   8378     1  0.0000000  0.0000000  2
   8375   8374   8377   8378     1  180.0000771  0.3347200  3
   8375   8374   8377   8379     1  0.0000000  3.3472000  1
   8375   8374   8377   8379     1  0.0000000  0.0000000  2
   8375   8374   8377   8379     1  180.0000771  0.3347200  3
   8376   8374   8377   8378     1  0.0000000  3.3472000  1
   8376   8374   8377   8378     1  0.0000000  0.0000000  2
   8376   8374   8377   8378     1  180.0000771  0.3347200  3
   8376   8374   8377   8379     1  0.0000000  3.3472000  1
   8376   8374   8377   8379     1  0.0000000  0.0000000  2
   8376   8374   8377   8379     1  180.0000771  0.3347200  3
   8381   8384   8387   8388     1  0.0000000  0.6508444  3
   8381   8384   8387   8389     1  0.0000000  0.6508444  3
   8382   8381   8384   8387     1  0.0000000  0.6508444  3
   8382   8381   8384   8385     1  0.0000000  0.6508444  3
   8382   8381   8384   8386     1  0.0000000  0.6508444  3
   8383   8381   8384   8387     1  0.0000000  0.6508444  3
   8383   8381   8384   8385     1  0.0000000  0.6508444  3
   8383   8381   8384   8386     1  0.0000000  0.6508444  3
   8385   8384   8387   8390     1  0.0000000  0.6508444  3
   8385   8384   8387   8388     1  0.0000000  0.6508444  3
   8385   8384   8387   8389     1  0.0000000  0.6508444  3
   8385   8384   8381   8409     1  0.0000000  1.0460000  1
   8385   8384   8381   8409     1  0.0000000  0.0000000  3
   8386   8384   8387   8390     1  0.0000000  0.6508444  3
   8386   8384   8387   8388     1  0.0000000  0.6508444  3
   8386   8384   8387   8389     1  0.0000000  0.6508444  3
   8386   8384   8381   8409     1  0.0000000  1.0460000  1
   8386   8384   8381   8409     1  0.0000000  0.0000000  3
   8387   8390   8391   8392     1  0.0000000  1.2552000  3
   8387   8390   8391   8393     1  0.0000000  1.2552000  3
   8387   8390   8400   8401     1  0.0000000  1.2552000  3
   8387   8390   8400   8402     1  0.0000000  1.2552000  3
   8388   8387   8390   8391     1  0.0000000  1.2552000  3
   8388   8387   8390   8400     1  0.0000000  1.2552000  3
   8389   8387   8390   8391     1  0.0000000  1.2552000  3
   8389   8387   8390   8400     1  0.0000000  1.2552000  3
   8390   8391   8394   8395     1  0.0000000  0.6508444  3
   8390   8391   8394   8396     1  0.0000000  0.6508444  3
   8390   8400   8403   8404     1  0.0000000  0.6508444  3
   8390   8400   8403   8405     1  0.0000000  0.6508444  3
   8391   8390   8400   8401     1  0.0000000  1.2552000  3
   8391   8390   8400   8402     1  0.0000000  1.2552000  3
   8392   8391   8394   8397     1  0.0000000  0.6508444  3
   8392   8391   8394   8395     1  0.0000000  0.6508444  3
   8392   8391   8394   8396     1  0.0000000  0.6508444  3
   8392   8391   8390   8400     1  0.0000000  1.2552000  3
   8393   8391   8394   8397     1  0.0000000  0.6508444  3
   8393   8391   8394   8395     1  0.0000000  0.6508444  3
   8393   8391   8394   8396     1  0.0000000  0.6508444  3
   8393   8391   8390   8400     1  0.0000000  1.2552000  3
   8395   8394   8397   8398     1  0.0000000  3.3472000  1
   8395   8394   8397   8398     1  0.0000000  0.0000000  2
   8395   8394   8397   8398     1  180.0000771  0.3347200  3
   8395   8394   8397   8399     1  0.0000000  3.3472000  1
   8395   8394   8397   8399     1  0.0000000  0.0000000  2
   8395   8394   8397   8399     1  180.0000771  0.3347200  3
   8396   8394   8397   8398     1  0.0000000  3.3472000  1
   8396   8394   8397   8398     1  0.0000000  0.0000000  2
   8396   8394   8397   8398     1  180.0000771  0.3347200  3
   8396   8394   8397   8399     1  0.0000000  3.3472000  1
   8396   8394   8397   8399     1  0.0000000  0.0000000  2
   8396   8394   8397   8399     1  180.0000771  0.3347200  3
   8401   8400   8403   8406     1  0.0000000  0.6508444  3
   8401   8400   8403   8404     1  0.0000000  0.6508444  3
   8401   8400   8403   8405     1  0.0000000  0.6508444  3
   8402   8400   8403   8406     1  0.0000000  0.6508444  3
   8402   8400   8403   8404     1  0.0000000  0.6508444  3
   8402   8400   8403   8405     1  0.0000000  0.6508444  3
   8404   8403   8406   8407     1  0.0000000  3.3472000  1
   8404   8403   8406   8407     1  0.0000000  0.0000000  2
   8404   8403   8406   8407     1  180.0000771  0.3347200  3
   8404   8403   8406   8408     1  0.0000000  3.3472000  1
   8404   8403   8406   8408     1  0.0000000  0.0000000  2
   8404   8403   8406   8408     1  180.0000771  0.3347200  3
   8405   8403   8406   8407     1  0.0000000  3.3472000  1
   8405   8403   8406   8407     1  0.0000000  0.0000000  2
   8405   8403   8406   8407     1  180.0000771  0.3347200  3
   8405   8403   8406   8408     1  0.0000000  3.3472000  1
   8405   8403   8406   8408     1  0.0000000  0.0000000  2
   8405   8403   8406   8408     1  180.0000771  0.3347200  3
   8410   8413   8416   8417     1  0.0000000  0.6508444  3
   8410   8413   8416   8418     1  0.0000000  0.6508444  3
   8411   8410   8413   8416     1  0.0000000  0.6508444  3
   8411   8410   8413   8414     1  0.0000000  0.6508444  3
   8411   8410   8413   8415     1  0.0000000  0.6508444  3
   8412   8410   8413   8416     1  0.0000000  0.6508444  3
   8412   8410   8413   8414     1  0.0000000  0.6508444  3
   8412   8410   8413   8415     1  0.0000000  0.6508444  3
   8414   8413   8410   8438     1  0.0000000  1.0460000  1
   8414   8413   8410   8438     1  0.0000000  0.0000000  3
   8414   8413   8416   8419     1  0.0000000  0.6508444  3
   8414   8413   8416   8417     1  0.0000000  0.6508444  3
   8414   8413   8416   8418     1  0.0000000  0.6508444  3
   8415   8413   8410   8438     1  0.0000000  1.0460000  1
   8415   8413   8410   8438     1  0.0000000  0.0000000  3
   8415   8413   8416   8419     1  0.0000000  0.6508444  3
   8415   8413   8416   8417     1  0.0000000  0.6508444  3
   8415   8413   8416   8418     1  0.0000000  0.6508444  3
   8416   8419   8420   8421     1  0.0000000  1.2552000  3
   8416   8419   8420   8422     1  0.0000000  1.2552000  3
   8416   8419   8429   8430     1  0.0000000  1.2552000  3
   8416   8419   8429   8431     1  0.0000000  1.2552000  3
   8417   8416   8419   8420     1  0.0000000  1.2552000  3
   8417   8416   8419   8429     1  0.0000000  1.2552000  3
   8418   8416   8419   8420     1  0.0000000  1.2552000  3
   8418   8416   8419   8429     1  0.0000000  1.2552000  3
   8419   8420   8423   8424     1  0.0000000  0.6508444  3
   8419   8420   8423   8425     1  0.0000000  0.6508444  3
   8419   8429   8432   8433     1  0.0000000  0.6508444  3
   8419   8429   8432   8434     1  0.0000000  0.6508444  3
   8420   8419   8429   8430     1  0.0000000  1.2552000  3
   8420   8419   8429   8431     1  0.0000000  1.2552000  3
   8421   8420   8419   8429     1  0.0000000  1.2552000  3
   8421   8420   8423   8426     1  0.0000000  0.6508444  3
   8421   8420   8423   8424     1  0.0000000  0.6508444  3
   8421   8420   8423   8425     1  0.0000000  0.6508444  3
   8422   8420   8419   8429     1  0.0000000  1.2552000  3
   8422   8420   8423   8426     1  0.0000000  0.6508444  3
   8422   8420   8423   8424     1  0.0000000  0.6508444  3
   8422   8420   8423   8425     1  0.0000000  0.6508444  3
   8424   8423   8426   8427     1  0.0000000  3.3472000  1
   8424   8423   8426   8427     1  0.0000000  0.0000000  2
   8424   8423   8426   8427     1  180.0000771  0.3347200  3
   8424   8423   8426   8428     1  0.0000000  3.3472000  1
   8424   8423   8426   8428     1  0.0000000  0.0000000  2
   8424   8423   8426   8428     1  180.0000771  0.3347200  3
   8425   8423   8426   8427     1  0.0000000  3.3472000  1
   8425   8423   8426   8427     1  0.0000000  0.0000000  2
   8425   8423   8426   8427     1  180.0000771  0.3347200  3
   8425   8423   8426   8428     1  0.0000000  3.3472000  1
   8425   8423   8426   8428     1  0.0000000  0.0000000  2
   8425   8423   8426   8428     1  180.0000771  0.3347200  3
   8430   8429   8432   8435     1  0.0000000  0.6508444  3
   8430   8429   8432   8433     1  0.0000000  0.6508444  3
   8430   8429   8432   8434     1  0.0000000  0.6508444  3
   8431   8429   8432   8435     1  0.0000000  0.6508444  3
   8431   8429   8432   8433     1  0.0000000  0.6508444  3
   8431   8429   8432   8434     1  0.0000000  0.6508444  3
   8433   8432   8435   8436     1  0.0000000  3.3472000  1
   8433   8432   8435   8436     1  0.0000000  0.0000000  2
   8433   8432   8435   8436     1  180.0000771  0.3347200  3
   8433   8432   8435   8437     1  0.0000000  3.3472000  1
   8433   8432   8435   8437     1  0.0000000  0.0000000  2
   8433   8432   8435   8437     1  180.0000771  0.3347200  3
   8434   8432   8435   8436     1  0.0000000  3.3472000  1
   8434   8432   8435   8436     1  0.0000000  0.0000000  2
   8434   8432   8435   8436     1  180.0000771  0.3347200  3
   8434   8432   8435   8437     1  0.0000000  3.3472000  1
   8434   8432   8435   8437     1  0.0000000  0.0000000  2
   8434   8432   8435   8437     1  180.0000771  0.3347200  3
   8439   8442   8445   8446     1  0.0000000  0.6508444  3
   8439   8442   8445   8447     1  0.0000000  0.6508444  3
   8440   8439   8442   8445     1  0.0000000  0.6508444  3
   8440   8439   8442   8443     1  0.0000000  0.6508444  3
   8440   8439   8442   8444     1  0.0000000  0.6508444  3
   8441   8439   8442   8445     1  0.0000000  0.6508444  3
   8441   8439   8442   8443     1  0.0000000  0.6508444  3
   8441   8439   8442   8444     1  0.0000000  0.6508444  3
   8443   8442   8445   8448     1  0.0000000  0.6508444  3
   8443   8442   8445   8446     1  0.0000000  0.6508444  3
   8443   8442   8445   8447     1  0.0000000  0.6508444  3
   8443   8442   8439   8467     1  0.0000000  1.0460000  1
   8443   8442   8439   8467     1  0.0000000  0.0000000  3
   8444   8442   8445   8448     1  0.0000000  0.6508444  3
   8444   8442   8445   8446     1  0.0000000  0.6508444  3
   8444   8442   8445   8447     1  0.0000000  0.6508444  3
   8444   8442   8439   8467     1  0.0000000  1.0460000  1
   8444   8442   8439   8467     1  0.0000000  0.0000000  3
   8445   8448   8449   8450     1  0.0000000  1.2552000  3
   8445   8448   8449   8451     1  0.0000000  1.2552000  3
   8445   8448   8458   8459     1  0.0000000  1.2552000  3
   8445   8448   8458   8460     1  0.0000000  1.2552000  3
   8446   8445   8448   8449     1  0.0000000  1.2552000  3
   8446   8445   8448   8458     1  0.0000000  1.2552000  3
   8447   8445   8448   8449     1  0.0000000  1.2552000  3
   8447   8445   8448   8458     1  0.0000000  1.2552000  3
   8448   8449   8452   8453     1  0.0000000  0.6508444  3
   8448   8449   8452   8454     1  0.0000000  0.6508444  3
   8448   8458   8461   8462     1  0.0000000  0.6508444  3
   8448   8458   8461   8463     1  0.0000000  0.6508444  3
   8449   8448   8458   8459     1  0.0000000  1.2552000  3
   8449   8448   8458   8460     1  0.0000000  1.2552000  3
   8450   8449   8452   8455     1  0.0000000  0.6508444  3
   8450   8449   8452   8453     1  0.0000000  0.6508444  3
   8450   8449   8452   8454     1  0.0000000  0.6508444  3
   8450   8449   8448   8458     1  0.0000000  1.2552000  3
   8451   8449   8452   8455     1  0.0000000  0.6508444  3
   8451   8449   8452   8453     1  0.0000000  0.6508444  3
   8451   8449   8452   8454     1  0.0000000  0.6508444  3
   8451   8449   8448   8458     1  0.0000000  1.2552000  3
   8453   8452   8455   8456     1  0.0000000  3.3472000  1
   8453   8452   8455   8456     1  0.0000000  0.0000000  2
   8453   8452   8455   8456     1  180.0000771  0.3347200  3
   8453   8452   8455   8457     1  0.0000000  3.3472000  1
   8453   8452   8455   8457     1  0.0000000  0.0000000  2
   8453   8452   8455   8457     1  180.0000771  0.3347200  3
   8454   8452   8455   8456     1  0.0000000  3.3472000  1
   8454   8452   8455   8456     1  0.0000000  0.0000000  2
   8454   8452   8455   8456     1  180.0000771  0.3347200  3
   8454   8452   8455   8457     1  0.0000000  3.3472000  1
   8454   8452   8455   8457     1  0.0000000  0.0000000  2
   8454   8452   8455   8457     1  180.0000771  0.3347200  3
   8459   8458   8461   8464     1  0.0000000  0.6508444  3
   8459   8458   8461   8462     1  0.0000000  0.6508444  3
   8459   8458   8461   8463     1  0.0000000  0.6508444  3
   8460   8458   8461   8464     1  0.0000000  0.6508444  3
   8460   8458   8461   8462     1  0.0000000  0.6508444  3
   8460   8458   8461   8463     1  0.0000000  0.6508444  3
   8462   8461   8464   8465     1  0.0000000  3.3472000  1
   8462   8461   8464   8465     1  0.0000000  0.0000000  2
   8462   8461   8464   8465     1  180.0000771  0.3347200  3
   8462   8461   8464   8466     1  0.0000000  3.3472000  1
   8462   8461   8464   8466     1  0.0000000  0.0000000  2
   8462   8461   8464   8466     1  180.0000771  0.3347200  3
   8463   8461   8464   8465     1  0.0000000  3.3472000  1
   8463   8461   8464   8465     1  0.0000000  0.0000000  2
   8463   8461   8464   8465     1  180.0000771  0.3347200  3
   8463   8461   8464   8466     1  0.0000000  3.3472000  1
   8463   8461   8464   8466     1  0.0000000  0.0000000  2
   8463   8461   8464   8466     1  180.0000771  0.3347200  3
   8468   8471   8474   8475     1  0.0000000  0.6508444  3
   8468   8471   8474   8476     1  0.0000000  0.6508444  3
   8469   8468   8471   8474     1  0.0000000  0.6508444  3
   8469   8468   8471   8472     1  0.0000000  0.6508444  3
   8469   8468   8471   8473     1  0.0000000  0.6508444  3
   8470   8468   8471   8474     1  0.0000000  0.6508444  3
   8470   8468   8471   8472     1  0.0000000  0.6508444  3
   8470   8468   8471   8473     1  0.0000000  0.6508444  3
   8472   8471   8468   8496     1  0.0000000  1.0460000  1
   8472   8471   8468   8496     1  0.0000000  0.0000000  3
   8472   8471   8474   8477     1  0.0000000  0.6508444  3
   8472   8471   8474   8475     1  0.0000000  0.6508444  3
   8472   8471   8474   8476     1  0.0000000  0.6508444  3
   8473   8471   8468   8496     1  0.0000000  1.0460000  1
   8473   8471   8468   8496     1  0.0000000  0.0000000  3
   8473   8471   8474   8477     1  0.0000000  0.6508444  3
   8473   8471   8474   8475     1  0.0000000  0.6508444  3
   8473   8471   8474   8476     1  0.0000000  0.6508444  3
   8474   8477   8478   8479     1  0.0000000  1.2552000  3
   8474   8477   8478   8480     1  0.0000000  1.2552000  3
   8474   8477   8487   8488     1  0.0000000  1.2552000  3
   8474   8477   8487   8489     1  0.0000000  1.2552000  3
   8475   8474   8477   8478     1  0.0000000  1.2552000  3
   8475   8474   8477   8487     1  0.0000000  1.2552000  3
   8476   8474   8477   8478     1  0.0000000  1.2552000  3
   8476   8474   8477   8487     1  0.0000000  1.2552000  3
   8477   8478   8481   8482     1  0.0000000  0.6508444  3
   8477   8478   8481   8483     1  0.0000000  0.6508444  3
   8477   8487   8490   8491     1  0.0000000  0.6508444  3
   8477   8487   8490   8492     1  0.0000000  0.6508444  3
   8478   8477   8487   8488     1  0.0000000  1.2552000  3
   8478   8477   8487   8489     1  0.0000000  1.2552000  3
   8479   8478   8477   8487     1  0.0000000  1.2552000  3
   8479   8478   8481   8484     1  0.0000000  0.6508444  3
   8479   8478   8481   8482     1  0.0000000  0.6508444  3
   8479   8478   8481   8483     1  0.0000000  0.6508444  3
   8480   8478   8477   8487     1  0.0000000  1.2552000  3
   8480   8478   8481   8484     1  0.0000000  0.6508444  3
   8480   8478   8481   8482     1  0.0000000  0.6508444  3
   8480   8478   8481   8483     1  0.0000000  0.6508444  3
   8482   8481   8484   8485     1  0.0000000  3.3472000  1
   8482   8481   8484   8485     1  0.0000000  0.0000000  2
   8482   8481   8484   8485     1  180.0000771  0.3347200  3
   8482   8481   8484   8486     1  0.0000000  3.3472000  1
   8482   8481   8484   8486     1  0.0000000  0.0000000  2
   8482   8481   8484   8486     1  180.0000771  0.3347200  3
   8483   8481   8484   8485     1  0.0000000  3.3472000  1
   8483   8481   8484   8485     1  0.0000000  0.0000000  2
   8483   8481   8484   8485     1  180.0000771  0.3347200  3
   8483   8481   8484   8486     1  0.0000000  3.3472000  1
   8483   8481   8484   8486     1  0.0000000  0.0000000  2
   8483   8481   8484   8486     1  180.0000771  0.3347200  3
   8488   8487   8490   8493     1  0.0000000  0.6508444  3
   8488   8487   8490   8491     1  0.0000000  0.6508444  3
   8488   8487   8490   8492     1  0.0000000  0.6508444  3
   8489   8487   8490   8493     1  0.0000000  0.6508444  3
   8489   8487   8490   8491     1  0.0000000  0.6508444  3
   8489   8487   8490   8492     1  0.0000000  0.6508444  3
   8491   8490   8493   8494     1  0.0000000  3.3472000  1
   8491   8490   8493   8494     1  0.0000000  0.0000000  2
   8491   8490   8493   8494     1  180.0000771  0.3347200  3
   8491   8490   8493   8495     1  0.0000000  3.3472000  1
   8491   8490   8493   8495     1  0.0000000  0.0000000  2
   8491   8490   8493   8495     1  180.0000771  0.3347200  3
   8492   8490   8493   8494     1  0.0000000  3.3472000  1
   8492   8490   8493   8494     1  0.0000000  0.0000000  2
   8492   8490   8493   8494     1  180.0000771  0.3347200  3
   8492   8490   8493   8495     1  0.0000000  3.3472000  1
   8492   8490   8493   8495     1  0.0000000  0.0000000  2
   8492   8490   8493   8495     1  180.0000771  0.3347200  3
   8497   8500   8503   8504     1  0.0000000  0.6508444  3
   8497   8500   8503   8505     1  0.0000000  0.6508444  3
   8498   8497   8500   8503     1  0.0000000  0.6508444  3
   8498   8497   8500   8501     1  0.0000000  0.6508444  3
   8498   8497   8500   8502     1  0.0000000  0.6508444  3
   8499   8497   8500   8503     1  0.0000000  0.6508444  3
   8499   8497   8500   8501     1  0.0000000  0.6508444  3
   8499   8497   8500   8502     1  0.0000000  0.6508444  3
   8501   8500   8503   8506     1  0.0000000  0.6508444  3
   8501   8500   8503   8504     1  0.0000000  0.6508444  3
   8501   8500   8503   8505     1  0.0000000  0.6508444  3
   8501   8500   8497   8525     1  0.0000000  1.0460000  1
   8501   8500   8497   8525     1  0.0000000  0.0000000  3
   8502   8500   8503   8506     1  0.0000000  0.6508444  3
   8502   8500   8503   8504     1  0.0000000  0.6508444  3
   8502   8500   8503   8505     1  0.0000000  0.6508444  3
   8502   8500   8497   8525     1  0.0000000  1.0460000  1
   8502   8500   8497   8525     1  0.0000000  0.0000000  3
   8503   8506   8507   8508     1  0.0000000  1.2552000  3
   8503   8506   8507   8509     1  0.0000000  1.2552000  3
   8503   8506   8516   8517     1  0.0000000  1.2552000  3
   8503   8506   8516   8518     1  0.0000000  1.2552000  3
   8504   8503   8506   8507     1  0.0000000  1.2552000  3
   8504   8503   8506   8516     1  0.0000000  1.2552000  3
   8505   8503   8506   8507     1  0.0000000  1.2552000  3
   8505   8503   8506   8516     1  0.0000000  1.2552000  3
   8506   8507   8510   8511     1  0.0000000  0.6508444  3
   8506   8507   8510   8512     1  0.0000000  0.6508444  3
   8506   8516   8519   8520     1  0.0000000  0.6508444  3
   8506   8516   8519   8521     1  0.0000000  0.6508444  3
   8507   8506   8516   8517     1  0.0000000  1.2552000  3
   8507   8506   8516   8518     1  0.0000000  1.2552000  3
   8508   8507   8510   8513     1  0.0000000  0.6508444  3
   8508   8507   8510   8511     1  0.0000000  0.6508444  3
   8508   8507   8510   8512     1  0.0000000  0.6508444  3
   8508   8507   8506   8516     1  0.0000000  1.2552000  3
   8509   8507   8510   8513     1  0.0000000  0.6508444  3
   8509   8507   8510   8511     1  0.0000000  0.6508444  3
   8509   8507   8510   8512     1  0.0000000  0.6508444  3
   8509   8507   8506   8516     1  0.0000000  1.2552000  3
   8511   8510   8513   8514     1  0.0000000  3.3472000  1
   8511   8510   8513   8514     1  0.0000000  0.0000000  2
   8511   8510   8513   8514     1  180.0000771  0.3347200  3
   8511   8510   8513   8515     1  0.0000000  3.3472000  1
   8511   8510   8513   8515     1  0.0000000  0.0000000  2
   8511   8510   8513   8515     1  180.0000771  0.3347200  3
   8512   8510   8513   8514     1  0.0000000  3.3472000  1
   8512   8510   8513   8514     1  0.0000000  0.0000000  2
   8512   8510   8513   8514     1  180.0000771  0.3347200  3
   8512   8510   8513   8515     1  0.0000000  3.3472000  1
   8512   8510   8513   8515     1  0.0000000  0.0000000  2
   8512   8510   8513   8515     1  180.0000771  0.3347200  3
   8517   8516   8519   8522     1  0.0000000  0.6508444  3
   8517   8516   8519   8520     1  0.0000000  0.6508444  3
   8517   8516   8519   8521     1  0.0000000  0.6508444  3
   8518   8516   8519   8522     1  0.0000000  0.6508444  3
   8518   8516   8519   8520     1  0.0000000  0.6508444  3
   8518   8516   8519   8521     1  0.0000000  0.6508444  3
   8520   8519   8522   8523     1  0.0000000  3.3472000  1
   8520   8519   8522   8523     1  0.0000000  0.0000000  2
   8520   8519   8522   8523     1  180.0000771  0.3347200  3
   8520   8519   8522   8524     1  0.0000000  3.3472000  1
   8520   8519   8522   8524     1  0.0000000  0.0000000  2
   8520   8519   8522   8524     1  180.0000771  0.3347200  3
   8521   8519   8522   8523     1  0.0000000  3.3472000  1
   8521   8519   8522   8523     1  0.0000000  0.0000000  2
   8521   8519   8522   8523     1  180.0000771  0.3347200  3
   8521   8519   8522   8524     1  0.0000000  3.3472000  1
   8521   8519   8522   8524     1  0.0000000  0.0000000  2
   8521   8519   8522   8524     1  180.0000771  0.3347200  3
   8526   8529   8532   8533     1  0.0000000  0.6508444  3
   8526   8529   8532   8534     1  0.0000000  0.6508444  3
   8527   8526   8529   8532     1  0.0000000  0.6508444  3
   8527   8526   8529   8530     1  0.0000000  0.6508444  3
   8527   8526   8529   8531     1  0.0000000  0.6508444  3
   8528   8526   8529   8532     1  0.0000000  0.6508444  3
   8528   8526   8529   8530     1  0.0000000  0.6508444  3
   8528   8526   8529   8531     1  0.0000000  0.6508444  3
   8530   8529   8526   8554     1  0.0000000  1.0460000  1
   8530   8529   8526   8554     1  0.0000000  0.0000000  3
   8530   8529   8532   8535     1  0.0000000  0.6508444  3
   8530   8529   8532   8533     1  0.0000000  0.6508444  3
   8530   8529   8532   8534     1  0.0000000  0.6508444  3
   8531   8529   8526   8554     1  0.0000000  1.0460000  1
   8531   8529   8526   8554     1  0.0000000  0.0000000  3
   8531   8529   8532   8535     1  0.0000000  0.6508444  3
   8531   8529   8532   8533     1  0.0000000  0.6508444  3
   8531   8529   8532   8534     1  0.0000000  0.6508444  3
   8532   8535   8536   8537     1  0.0000000  1.2552000  3
   8532   8535   8536   8538     1  0.0000000  1.2552000  3
   8532   8535   8545   8546     1  0.0000000  1.2552000  3
   8532   8535   8545   8547     1  0.0000000  1.2552000  3
   8533   8532   8535   8536     1  0.0000000  1.2552000  3
   8533   8532   8535   8545     1  0.0000000  1.2552000  3
   8534   8532   8535   8536     1  0.0000000  1.2552000  3
   8534   8532   8535   8545     1  0.0000000  1.2552000  3
   8535   8536   8539   8540     1  0.0000000  0.6508444  3
   8535   8536   8539   8541     1  0.0000000  0.6508444  3
   8535   8545   8548   8549     1  0.0000000  0.6508444  3
   8535   8545   8548   8550     1  0.0000000  0.6508444  3
   8536   8535   8545   8546     1  0.0000000  1.2552000  3
   8536   8535   8545   8547     1  0.0000000  1.2552000  3
   8537   8536   8535   8545     1  0.0000000  1.2552000  3
   8537   8536   8539   8542     1  0.0000000  0.6508444  3
   8537   8536   8539   8540     1  0.0000000  0.6508444  3
   8537   8536   8539   8541     1  0.0000000  0.6508444  3
   8538   8536   8535   8545     1  0.0000000  1.2552000  3
   8538   8536   8539   8542     1  0.0000000  0.6508444  3
   8538   8536   8539   8540     1  0.0000000  0.6508444  3
   8538   8536   8539   8541     1  0.0000000  0.6508444  3
   8540   8539   8542   8543     1  0.0000000  3.3472000  1
   8540   8539   8542   8543     1  0.0000000  0.0000000  2
   8540   8539   8542   8543     1  180.0000771  0.3347200  3
   8540   8539   8542   8544     1  0.0000000  3.3472000  1
   8540   8539   8542   8544     1  0.0000000  0.0000000  2
   8540   8539   8542   8544     1  180.0000771  0.3347200  3
   8541   8539   8542   8543     1  0.0000000  3.3472000  1
   8541   8539   8542   8543     1  0.0000000  0.0000000  2
   8541   8539   8542   8543     1  180.0000771  0.3347200  3
   8541   8539   8542   8544     1  0.0000000  3.3472000  1
   8541   8539   8542   8544     1  0.0000000  0.0000000  2
   8541   8539   8542   8544     1  180.0000771  0.3347200  3
   8546   8545   8548   8551     1  0.0000000  0.6508444  3
   8546   8545   8548   8549     1  0.0000000  0.6508444  3
   8546   8545   8548   8550     1  0.0000000  0.6508444  3
   8547   8545   8548   8551     1  0.0000000  0.6508444  3
   8547   8545   8548   8549     1  0.0000000  0.6508444  3
   8547   8545   8548   8550     1  0.0000000  0.6508444  3
   8549   8548   8551   8552     1  0.0000000  3.3472000  1
   8549   8548   8551   8552     1  0.0000000  0.0000000  2
   8549   8548   8551   8552     1  180.0000771  0.3347200  3
   8549   8548   8551   8553     1  0.0000000  3.3472000  1
   8549   8548   8551   8553     1  0.0000000  0.0000000  2
   8549   8548   8551   8553     1  180.0000771  0.3347200  3
   8550   8548   8551   8552     1  0.0000000  3.3472000  1
   8550   8548   8551   8552     1  0.0000000  0.0000000  2
   8550   8548   8551   8552     1  180.0000771  0.3347200  3
   8550   8548   8551   8553     1  0.0000000  3.3472000  1
   8550   8548   8551   8553     1  0.0000000  0.0000000  2
   8550   8548   8551   8553     1  180.0000771  0.3347200  3
   8555   8558   8561   8562     1  0.0000000  0.6508444  3
   8555   8558   8561   8563     1  0.0000000  0.6508444  3
   8556   8555   8558   8561     1  0.0000000  0.6508444  3
   8556   8555   8558   8559     1  0.0000000  0.6508444  3
   8556   8555   8558   8560     1  0.0000000  0.6508444  3
   8557   8555   8558   8561     1  0.0000000  0.6508444  3
   8557   8555   8558   8559     1  0.0000000  0.6508444  3
   8557   8555   8558   8560     1  0.0000000  0.6508444  3
   8559   8558   8561   8564     1  0.0000000  0.6508444  3
   8559   8558   8561   8562     1  0.0000000  0.6508444  3
   8559   8558   8561   8563     1  0.0000000  0.6508444  3
   8559   8558   8555   8583     1  0.0000000  1.0460000  1
   8559   8558   8555   8583     1  0.0000000  0.0000000  3
   8560   8558   8561   8564     1  0.0000000  0.6508444  3
   8560   8558   8561   8562     1  0.0000000  0.6508444  3
   8560   8558   8561   8563     1  0.0000000  0.6508444  3
   8560   8558   8555   8583     1  0.0000000  1.0460000  1
   8560   8558   8555   8583     1  0.0000000  0.0000000  3
   8561   8564   8565   8566     1  0.0000000  1.2552000  3
   8561   8564   8565   8567     1  0.0000000  1.2552000  3
   8561   8564   8574   8575     1  0.0000000  1.2552000  3
   8561   8564   8574   8576     1  0.0000000  1.2552000  3
   8562   8561   8564   8565     1  0.0000000  1.2552000  3
   8562   8561   8564   8574     1  0.0000000  1.2552000  3
   8563   8561   8564   8565     1  0.0000000  1.2552000  3
   8563   8561   8564   8574     1  0.0000000  1.2552000  3
   8564   8565   8568   8569     1  0.0000000  0.6508444  3
   8564   8565   8568   8570     1  0.0000000  0.6508444  3
   8564   8574   8577   8578     1  0.0000000  0.6508444  3
   8564   8574   8577   8579     1  0.0000000  0.6508444  3
   8565   8564   8574   8575     1  0.0000000  1.2552000  3
   8565   8564   8574   8576     1  0.0000000  1.2552000  3
   8566   8565   8568   8571     1  0.0000000  0.6508444  3
   8566   8565   8568   8569     1  0.0000000  0.6508444  3
   8566   8565   8568   8570     1  0.0000000  0.6508444  3
   8566   8565   8564   8574     1  0.0000000  1.2552000  3
   8567   8565   8568   8571     1  0.0000000  0.6508444  3
   8567   8565   8568   8569     1  0.0000000  0.6508444  3
   8567   8565   8568   8570     1  0.0000000  0.6508444  3
   8567   8565   8564   8574     1  0.0000000  1.2552000  3
   8569   8568   8571   8572     1  0.0000000  3.3472000  1
   8569   8568   8571   8572     1  0.0000000  0.0000000  2
   8569   8568   8571   8572     1  180.0000771  0.3347200  3
   8569   8568   8571   8573     1  0.0000000  3.3472000  1
   8569   8568   8571   8573     1  0.0000000  0.0000000  2
   8569   8568   8571   8573     1  180.0000771  0.3347200  3
   8570   8568   8571   8572     1  0.0000000  3.3472000  1
   8570   8568   8571   8572     1  0.0000000  0.0000000  2
   8570   8568   8571   8572     1  180.0000771  0.3347200  3
   8570   8568   8571   8573     1  0.0000000  3.3472000  1
   8570   8568   8571   8573     1  0.0000000  0.0000000  2
   8570   8568   8571   8573     1  180.0000771  0.3347200  3
   8575   8574   8577   8580     1  0.0000000  0.6508444  3
   8575   8574   8577   8578     1  0.0000000  0.6508444  3
   8575   8574   8577   8579     1  0.0000000  0.6508444  3
   8576   8574   8577   8580     1  0.0000000  0.6508444  3
   8576   8574   8577   8578     1  0.0000000  0.6508444  3
   8576   8574   8577   8579     1  0.0000000  0.6508444  3
   8578   8577   8580   8581     1  0.0000000  3.3472000  1
   8578   8577   8580   8581     1  0.0000000  0.0000000  2
   8578   8577   8580   8581     1  180.0000771  0.3347200  3
   8578   8577   8580   8582     1  0.0000000  3.3472000  1
   8578   8577   8580   8582     1  0.0000000  0.0000000  2
   8578   8577   8580   8582     1  180.0000771  0.3347200  3
   8579   8577   8580   8581     1  0.0000000  3.3472000  1
   8579   8577   8580   8581     1  0.0000000  0.0000000  2
   8579   8577   8580   8581     1  180.0000771  0.3347200  3
   8579   8577   8580   8582     1  0.0000000  3.3472000  1
   8579   8577   8580   8582     1  0.0000000  0.0000000  2
   8579   8577   8580   8582     1  180.0000771  0.3347200  3
   8584   8587   8590   8591     1  0.0000000  0.6508444  3
   8584   8587   8590   8592     1  0.0000000  0.6508444  3
   8585   8584   8587   8590     1  0.0000000  0.6508444  3
   8585   8584   8587   8588     1  0.0000000  0.6508444  3
   8585   8584   8587   8589     1  0.0000000  0.6508444  3
   8586   8584   8587   8590     1  0.0000000  0.6508444  3
   8586   8584   8587   8588     1  0.0000000  0.6508444  3
   8586   8584   8587   8589     1  0.0000000  0.6508444  3
   8588   8587   8584   8612     1  0.0000000  1.0460000  1
   8588   8587   8584   8612     1  0.0000000  0.0000000  3
   8588   8587   8590   8593     1  0.0000000  0.6508444  3
   8588   8587   8590   8591     1  0.0000000  0.6508444  3
   8588   8587   8590   8592     1  0.0000000  0.6508444  3
   8589   8587   8584   8612     1  0.0000000  1.0460000  1
   8589   8587   8584   8612     1  0.0000000  0.0000000  3
   8589   8587   8590   8593     1  0.0000000  0.6508444  3
   8589   8587   8590   8591     1  0.0000000  0.6508444  3
   8589   8587   8590   8592     1  0.0000000  0.6508444  3
   8590   8593   8594   8595     1  0.0000000  1.2552000  3
   8590   8593   8594   8596     1  0.0000000  1.2552000  3
   8590   8593   8603   8604     1  0.0000000  1.2552000  3
   8590   8593   8603   8605     1  0.0000000  1.2552000  3
   8591   8590   8593   8594     1  0.0000000  1.2552000  3
   8591   8590   8593   8603     1  0.0000000  1.2552000  3
   8592   8590   8593   8594     1  0.0000000  1.2552000  3
   8592   8590   8593   8603     1  0.0000000  1.2552000  3
   8593   8594   8597   8598     1  0.0000000  0.6508444  3
   8593   8594   8597   8599     1  0.0000000  0.6508444  3
   8593   8603   8606   8607     1  0.0000000  0.6508444  3
   8593   8603   8606   8608     1  0.0000000  0.6508444  3
   8594   8593   8603   8604     1  0.0000000  1.2552000  3
   8594   8593   8603   8605     1  0.0000000  1.2552000  3
   8595   8594   8593   8603     1  0.0000000  1.2552000  3
   8595   8594   8597   8600     1  0.0000000  0.6508444  3
   8595   8594   8597   8598     1  0.0000000  0.6508444  3
   8595   8594   8597   8599     1  0.0000000  0.6508444  3
   8596   8594   8593   8603     1  0.0000000  1.2552000  3
   8596   8594   8597   8600     1  0.0000000  0.6508444  3
   8596   8594   8597   8598     1  0.0000000  0.6508444  3
   8596   8594   8597   8599     1  0.0000000  0.6508444  3
   8598   8597   8600   8601     1  0.0000000  3.3472000  1
   8598   8597   8600   8601     1  0.0000000  0.0000000  2
   8598   8597   8600   8601     1  180.0000771  0.3347200  3
   8598   8597   8600   8602     1  0.0000000  3.3472000  1
   8598   8597   8600   8602     1  0.0000000  0.0000000  2
   8598   8597   8600   8602     1  180.0000771  0.3347200  3
   8599   8597   8600   8601     1  0.0000000  3.3472000  1
   8599   8597   8600   8601     1  0.0000000  0.0000000  2
   8599   8597   8600   8601     1  180.0000771  0.3347200  3
   8599   8597   8600   8602     1  0.0000000  3.3472000  1
   8599   8597   8600   8602     1  0.0000000  0.0000000  2
   8599   8597   8600   8602     1  180.0000771  0.3347200  3
   8604   8603   8606   8609     1  0.0000000  0.6508444  3
   8604   8603   8606   8607     1  0.0000000  0.6508444  3
   8604   8603   8606   8608     1  0.0000000  0.6508444  3
   8605   8603   8606   8609     1  0.0000000  0.6508444  3
   8605   8603   8606   8607     1  0.0000000  0.6508444  3
   8605   8603   8606   8608     1  0.0000000  0.6508444  3
   8607   8606   8609   8610     1  0.0000000  3.3472000  1
   8607   8606   8609   8610     1  0.0000000  0.0000000  2
   8607   8606   8609   8610     1  180.0000771  0.3347200  3
   8607   8606   8609   8611     1  0.0000000  3.3472000  1
   8607   8606   8609   8611     1  0.0000000  0.0000000  2
   8607   8606   8609   8611     1  180.0000771  0.3347200  3
   8608   8606   8609   8610     1  0.0000000  3.3472000  1
   8608   8606   8609   8610     1  0.0000000  0.0000000  2
   8608   8606   8609   8610     1  180.0000771  0.3347200  3
   8608   8606   8609   8611     1  0.0000000  3.3472000  1
   8608   8606   8609   8611     1  0.0000000  0.0000000  2
   8608   8606   8609   8611     1  180.0000771  0.3347200  3
   8613   8616   8619   8620     1  0.0000000  0.6508444  3
   8613   8616   8619   8621     1  0.0000000  0.6508444  3
   8614   8613   8616   8619     1  0.0000000  0.6508444  3
   8614   8613   8616   8617     1  0.0000000  0.6508444  3
   8614   8613   8616   8618     1  0.0000000  0.6508444  3
   8615   8613   8616   8619     1  0.0000000  0.6508444  3
   8615   8613   8616   8617     1  0.0000000  0.6508444  3
   8615   8613   8616   8618     1  0.0000000  0.6508444  3
   8617   8616   8619   8622     1  0.0000000  0.6508444  3
   8617   8616   8619   8620     1  0.0000000  0.6508444  3
   8617   8616   8619   8621     1  0.0000000  0.6508444  3
   8617   8616   8613   8641     1  0.0000000  1.0460000  1
   8617   8616   8613   8641     1  0.0000000  0.0000000  3
   8618   8616   8619   8622     1  0.0000000  0.6508444  3
   8618   8616   8619   8620     1  0.0000000  0.6508444  3
   8618   8616   8619   8621     1  0.0000000  0.6508444  3
   8618   8616   8613   8641     1  0.0000000  1.0460000  1
   8618   8616   8613   8641     1  0.0000000  0.0000000  3
   8619   8622   8623   8624     1  0.0000000  1.2552000  3
   8619   8622   8623   8625     1  0.0000000  1.2552000  3
   8619   8622   8632   8633     1  0.0000000  1.2552000  3
   8619   8622   8632   8634     1  0.0000000  1.2552000  3
   8620   8619   8622   8623     1  0.0000000  1.2552000  3
   8620   8619   8622   8632     1  0.0000000  1.2552000  3
   8621   8619   8622   8623     1  0.0000000  1.2552000  3
   8621   8619   8622   8632     1  0.0000000  1.2552000  3
   8622   8623   8626   8627     1  0.0000000  0.6508444  3
   8622   8623   8626   8628     1  0.0000000  0.6508444  3
   8622   8632   8635   8636     1  0.0000000  0.6508444  3
   8622   8632   8635   8637     1  0.0000000  0.6508444  3
   8623   8622   8632   8633     1  0.0000000  1.2552000  3
   8623   8622   8632   8634     1  0.0000000  1.2552000  3
   8624   8623   8626   8629     1  0.0000000  0.6508444  3
   8624   8623   8626   8627     1  0.0000000  0.6508444  3
   8624   8623   8626   8628     1  0.0000000  0.6508444  3
   8624   8623   8622   8632     1  0.0000000  1.2552000  3
   8625   8623   8626   8629     1  0.0000000  0.6508444  3
   8625   8623   8626   8627     1  0.0000000  0.6508444  3
   8625   8623   8626   8628     1  0.0000000  0.6508444  3
   8625   8623   8622   8632     1  0.0000000  1.2552000  3
   8627   8626   8629   8630     1  0.0000000  3.3472000  1
   8627   8626   8629   8630     1  0.0000000  0.0000000  2
   8627   8626   8629   8630     1  180.0000771  0.3347200  3
   8627   8626   8629   8631     1  0.0000000  3.3472000  1
   8627   8626   8629   8631     1  0.0000000  0.0000000  2
   8627   8626   8629   8631     1  180.0000771  0.3347200  3
   8628   8626   8629   8630     1  0.0000000  3.3472000  1
   8628   8626   8629   8630     1  0.0000000  0.0000000  2
   8628   8626   8629   8630     1  180.0000771  0.3347200  3
   8628   8626   8629   8631     1  0.0000000  3.3472000  1
   8628   8626   8629   8631     1  0.0000000  0.0000000  2
   8628   8626   8629   8631     1  180.0000771  0.3347200  3
   8633   8632   8635   8638     1  0.0000000  0.6508444  3
   8633   8632   8635   8636     1  0.0000000  0.6508444  3
   8633   8632   8635   8637     1  0.0000000  0.6508444  3
   8634   8632   8635   8638     1  0.0000000  0.6508444  3
   8634   8632   8635   8636     1  0.0000000  0.6508444  3
   8634   8632   8635   8637     1  0.0000000  0.6508444  3
   8636   8635   8638   8639     1  0.0000000  3.3472000  1
   8636   8635   8638   8639     1  0.0000000  0.0000000  2
   8636   8635   8638   8639     1  180.0000771  0.3347200  3
   8636   8635   8638   8640     1  0.0000000  3.3472000  1
   8636   8635   8638   8640     1  0.0000000  0.0000000  2
   8636   8635   8638   8640     1  180.0000771  0.3347200  3
   8637   8635   8638   8639     1  0.0000000  3.3472000  1
   8637   8635   8638   8639     1  0.0000000  0.0000000  2
   8637   8635   8638   8639     1  180.0000771  0.3347200  3
   8637   8635   8638   8640     1  0.0000000  3.3472000  1
   8637   8635   8638   8640     1  0.0000000  0.0000000  2
   8637   8635   8638   8640     1  180.0000771  0.3347200  3
   8642   8645   8648   8649     1  0.0000000  0.6508444  3
   8642   8645   8648   8650     1  0.0000000  0.6508444  3
   8643   8642   8645   8648     1  0.0000000  0.6508444  3
   8643   8642   8645   8646     1  0.0000000  0.6508444  3
   8643   8642   8645   8647     1  0.0000000  0.6508444  3
   8644   8642   8645   8648     1  0.0000000  0.6508444  3
   8644   8642   8645   8646     1  0.0000000  0.6508444  3
   8644   8642   8645   8647     1  0.0000000  0.6508444  3
   8646   8645   8642   8670     1  0.0000000  1.0460000  1
   8646   8645   8642   8670     1  0.0000000  0.0000000  3
   8646   8645   8648   8651     1  0.0000000  0.6508444  3
   8646   8645   8648   8649     1  0.0000000  0.6508444  3
   8646   8645   8648   8650     1  0.0000000  0.6508444  3
   8647   8645   8642   8670     1  0.0000000  1.0460000  1
   8647   8645   8642   8670     1  0.0000000  0.0000000  3
   8647   8645   8648   8651     1  0.0000000  0.6508444  3
   8647   8645   8648   8649     1  0.0000000  0.6508444  3
   8647   8645   8648   8650     1  0.0000000  0.6508444  3
   8648   8651   8652   8653     1  0.0000000  1.2552000  3
   8648   8651   8652   8654     1  0.0000000  1.2552000  3
   8648   8651   8661   8662     1  0.0000000  1.2552000  3
   8648   8651   8661   8663     1  0.0000000  1.2552000  3
   8649   8648   8651   8652     1  0.0000000  1.2552000  3
   8649   8648   8651   8661     1  0.0000000  1.2552000  3
   8650   8648   8651   8652     1  0.0000000  1.2552000  3
   8650   8648   8651   8661     1  0.0000000  1.2552000  3
   8651   8652   8655   8656     1  0.0000000  0.6508444  3
   8651   8652   8655   8657     1  0.0000000  0.6508444  3
   8651   8661   8664   8665     1  0.0000000  0.6508444  3
   8651   8661   8664   8666     1  0.0000000  0.6508444  3
   8652   8651   8661   8662     1  0.0000000  1.2552000  3
   8652   8651   8661   8663     1  0.0000000  1.2552000  3
   8653   8652   8651   8661     1  0.0000000  1.2552000  3
   8653   8652   8655   8658     1  0.0000000  0.6508444  3
   8653   8652   8655   8656     1  0.0000000  0.6508444  3
   8653   8652   8655   8657     1  0.0000000  0.6508444  3
   8654   8652   8651   8661     1  0.0000000  1.2552000  3
   8654   8652   8655   8658     1  0.0000000  0.6508444  3
   8654   8652   8655   8656     1  0.0000000  0.6508444  3
   8654   8652   8655   8657     1  0.0000000  0.6508444  3
   8656   8655   8658   8659     1  0.0000000  3.3472000  1
   8656   8655   8658   8659     1  0.0000000  0.0000000  2
   8656   8655   8658   8659     1  180.0000771  0.3347200  3
   8656   8655   8658   8660     1  0.0000000  3.3472000  1
   8656   8655   8658   8660     1  0.0000000  0.0000000  2
   8656   8655   8658   8660     1  180.0000771  0.3347200  3
   8657   8655   8658   8659     1  0.0000000  3.3472000  1
   8657   8655   8658   8659     1  0.0000000  0.0000000  2
   8657   8655   8658   8659     1  180.0000771  0.3347200  3
   8657   8655   8658   8660     1  0.0000000  3.3472000  1
   8657   8655   8658   8660     1  0.0000000  0.0000000  2
   8657   8655   8658   8660     1  180.0000771  0.3347200  3
   8662   8661   8664   8667     1  0.0000000  0.6508444  3
   8662   8661   8664   8665     1  0.0000000  0.6508444  3
   8662   8661   8664   8666     1  0.0000000  0.6508444  3
   8663   8661   8664   8667     1  0.0000000  0.6508444  3
   8663   8661   8664   8665     1  0.0000000  0.6508444  3
   8663   8661   8664   8666     1  0.0000000  0.6508444  3
   8665   8664   8667   8668     1  0.0000000  3.3472000  1
   8665   8664   8667   8668     1  0.0000000  0.0000000  2
   8665   8664   8667   8668     1  180.0000771  0.3347200  3
   8665   8664   8667   8669     1  0.0000000  3.3472000  1
   8665   8664   8667   8669     1  0.0000000  0.0000000  2
   8665   8664   8667   8669     1  180.0000771  0.3347200  3
   8666   8664   8667   8668     1  0.0000000  3.3472000  1
   8666   8664   8667   8668     1  0.0000000  0.0000000  2
   8666   8664   8667   8668     1  180.0000771  0.3347200  3
   8666   8664   8667   8669     1  0.0000000  3.3472000  1
   8666   8664   8667   8669     1  0.0000000  0.0000000  2
   8666   8664   8667   8669     1  180.0000771  0.3347200  3
   8671   8674   8677   8678     1  0.0000000  0.6508444  3
   8671   8674   8677   8679     1  0.0000000  0.6508444  3
   8672   8671   8674   8677     1  0.0000000  0.6508444  3
   8672   8671   8674   8675     1  0.0000000  0.6508444  3
   8672   8671   8674   8676     1  0.0000000  0.6508444  3
   8673   8671   8674   8677     1  0.0000000  0.6508444  3
   8673   8671   8674   8675     1  0.0000000  0.6508444  3
   8673   8671   8674   8676     1  0.0000000  0.6508444  3
   8675   8674   8677   8680     1  0.0000000  0.6508444  3
   8675   8674   8677   8678     1  0.0000000  0.6508444  3
   8675   8674   8677   8679     1  0.0000000  0.6508444  3
   8675   8674   8671   8699     1  0.0000000  1.0460000  1
   8675   8674   8671   8699     1  0.0000000  0.0000000  3
   8676   8674   8677   8680     1  0.0000000  0.6508444  3
   8676   8674   8677   8678     1  0.0000000  0.6508444  3
   8676   8674   8677   8679     1  0.0000000  0.6508444  3
   8676   8674   8671   8699     1  0.0000000  1.0460000  1
   8676   8674   8671   8699     1  0.0000000  0.0000000  3
   8677   8680   8681   8682     1  0.0000000  1.2552000  3
   8677   8680   8681   8683     1  0.0000000  1.2552000  3
   8677   8680   8690   8691     1  0.0000000  1.2552000  3
   8677   8680   8690   8692     1  0.0000000  1.2552000  3
   8678   8677   8680   8681     1  0.0000000  1.2552000  3
   8678   8677   8680   8690     1  0.0000000  1.2552000  3
   8679   8677   8680   8681     1  0.0000000  1.2552000  3
   8679   8677   8680   8690     1  0.0000000  1.2552000  3
   8680   8681   8684   8685     1  0.0000000  0.6508444  3
   8680   8681   8684   8686     1  0.0000000  0.6508444  3
   8680   8690   8693   8694     1  0.0000000  0.6508444  3
   8680   8690   8693   8695     1  0.0000000  0.6508444  3
   8681   8680   8690   8691     1  0.0000000  1.2552000  3
   8681   8680   8690   8692     1  0.0000000  1.2552000  3
   8682   8681   8684   8687     1  0.0000000  0.6508444  3
   8682   8681   8684   8685     1  0.0000000  0.6508444  3
   8682   8681   8684   8686     1  0.0000000  0.6508444  3
   8682   8681   8680   8690     1  0.0000000  1.2552000  3
   8683   8681   8684   8687     1  0.0000000  0.6508444  3
   8683   8681   8684   8685     1  0.0000000  0.6508444  3
   8683   8681   8684   8686     1  0.0000000  0.6508444  3
   8683   8681   8680   8690     1  0.0000000  1.2552000  3
   8685   8684   8687   8688     1  0.0000000  3.3472000  1
   8685   8684   8687   8688     1  0.0000000  0.0000000  2
   8685   8684   8687   8688     1  180.0000771  0.3347200  3
   8685   8684   8687   8689     1  0.0000000  3.3472000  1
   8685   8684   8687   8689     1  0.0000000  0.0000000  2
   8685   8684   8687   8689     1  180.0000771  0.3347200  3
   8686   8684   8687   8688     1  0.0000000  3.3472000  1
   8686   8684   8687   8688     1  0.0000000  0.0000000  2
   8686   8684   8687   8688     1  180.0000771  0.3347200  3
   8686   8684   8687   8689     1  0.0000000  3.3472000  1
   8686   8684   8687   8689     1  0.0000000  0.0000000  2
   8686   8684   8687   8689     1  180.0000771  0.3347200  3
   8691   8690   8693   8696     1  0.0000000  0.6508444  3
   8691   8690   8693   8694     1  0.0000000  0.6508444  3
   8691   8690   8693   8695     1  0.0000000  0.6508444  3
   8692   8690   8693   8696     1  0.0000000  0.6508444  3
   8692   8690   8693   8694     1  0.0000000  0.6508444  3
   8692   8690   8693   8695     1  0.0000000  0.6508444  3
   8694   8693   8696   8697     1  0.0000000  3.3472000  1
   8694   8693   8696   8697     1  0.0000000  0.0000000  2
   8694   8693   8696   8697     1  180.0000771  0.3347200  3
   8694   8693   8696   8698     1  0.0000000  3.3472000  1
   8694   8693   8696   8698     1  0.0000000  0.0000000  2
   8694   8693   8696   8698     1  180.0000771  0.3347200  3
   8695   8693   8696   8697     1  0.0000000  3.3472000  1
   8695   8693   8696   8697     1  0.0000000  0.0000000  2
   8695   8693   8696   8697     1  180.0000771  0.3347200  3
   8695   8693   8696   8698     1  0.0000000  3.3472000  1
   8695   8693   8696   8698     1  0.0000000  0.0000000  2
   8695   8693   8696   8698     1  180.0000771  0.3347200  3
   8700   8703   8706   8707     1  0.0000000  0.6508444  3
   8700   8703   8706   8708     1  0.0000000  0.6508444  3
   8701   8700   8703   8706     1  0.0000000  0.6508444  3
   8701   8700   8703   8704     1  0.0000000  0.6508444  3
   8701   8700   8703   8705     1  0.0000000  0.6508444  3
   8702   8700   8703   8706     1  0.0000000  0.6508444  3
   8702   8700   8703   8704     1  0.0000000  0.6508444  3
   8702   8700   8703   8705     1  0.0000000  0.6508444  3
   8704   8703   8700   8728     1  0.0000000  1.0460000  1
   8704   8703   8700   8728     1  0.0000000  0.0000000  3
   8704   8703   8706   8709     1  0.0000000  0.6508444  3
   8704   8703   8706   8707     1  0.0000000  0.6508444  3
   8704   8703   8706   8708     1  0.0000000  0.6508444  3
   8705   8703   8700   8728     1  0.0000000  1.0460000  1
   8705   8703   8700   8728     1  0.0000000  0.0000000  3
   8705   8703   8706   8709     1  0.0000000  0.6508444  3
   8705   8703   8706   8707     1  0.0000000  0.6508444  3
   8705   8703   8706   8708     1  0.0000000  0.6508444  3
   8706   8709   8710   8711     1  0.0000000  1.2552000  3
   8706   8709   8710   8712     1  0.0000000  1.2552000  3
   8706   8709   8719   8720     1  0.0000000  1.2552000  3
   8706   8709   8719   8721     1  0.0000000  1.2552000  3
   8707   8706   8709   8710     1  0.0000000  1.2552000  3
   8707   8706   8709   8719     1  0.0000000  1.2552000  3
   8708   8706   8709   8710     1  0.0000000  1.2552000  3
   8708   8706   8709   8719     1  0.0000000  1.2552000  3
   8709   8710   8713   8714     1  0.0000000  0.6508444  3
   8709   8710   8713   8715     1  0.0000000  0.6508444  3
   8709   8719   8722   8723     1  0.0000000  0.6508444  3
   8709   8719   8722   8724     1  0.0000000  0.6508444  3
   8710   8709   8719   8720     1  0.0000000  1.2552000  3
   8710   8709   8719   8721     1  0.0000000  1.2552000  3
   8711   8710   8709   8719     1  0.0000000  1.2552000  3
   8711   8710   8713   8716     1  0.0000000  0.6508444  3
   8711   8710   8713   8714     1  0.0000000  0.6508444  3
   8711   8710   8713   8715     1  0.0000000  0.6508444  3
   8712   8710   8709   8719     1  0.0000000  1.2552000  3
   8712   8710   8713   8716     1  0.0000000  0.6508444  3
   8712   8710   8713   8714     1  0.0000000  0.6508444  3
   8712   8710   8713   8715     1  0.0000000  0.6508444  3
   8714   8713   8716   8717     1  0.0000000  3.3472000  1
   8714   8713   8716   8717     1  0.0000000  0.0000000  2
   8714   8713   8716   8717     1  180.0000771  0.3347200  3
   8714   8713   8716   8718     1  0.0000000  3.3472000  1
   8714   8713   8716   8718     1  0.0000000  0.0000000  2
   8714   8713   8716   8718     1  180.0000771  0.3347200  3
   8715   8713   8716   8717     1  0.0000000  3.3472000  1
   8715   8713   8716   8717     1  0.0000000  0.0000000  2
   8715   8713   8716   8717     1  180.0000771  0.3347200  3
   8715   8713   8716   8718     1  0.0000000  3.3472000  1
   8715   8713   8716   8718     1  0.0000000  0.0000000  2
   8715   8713   8716   8718     1  180.0000771  0.3347200  3
   8720   8719   8722   8725     1  0.0000000  0.6508444  3
   8720   8719   8722   8723     1  0.0000000  0.6508444  3
   8720   8719   8722   8724     1  0.0000000  0.6508444  3
   8721   8719   8722   8725     1  0.0000000  0.6508444  3
   8721   8719   8722   8723     1  0.0000000  0.6508444  3
   8721   8719   8722   8724     1  0.0000000  0.6508444  3
   8723   8722   8725   8726     1  0.0000000  3.3472000  1
   8723   8722   8725   8726     1  0.0000000  0.0000000  2
   8723   8722   8725   8726     1  180.0000771  0.3347200  3
   8723   8722   8725   8727     1  0.0000000  3.3472000  1
   8723   8722   8725   8727     1  0.0000000  0.0000000  2
   8723   8722   8725   8727     1  180.0000771  0.3347200  3
   8724   8722   8725   8726     1  0.0000000  3.3472000  1
   8724   8722   8725   8726     1  0.0000000  0.0000000  2
   8724   8722   8725   8726     1  180.0000771  0.3347200  3
   8724   8722   8725   8727     1  0.0000000  3.3472000  1
   8724   8722   8725   8727     1  0.0000000  0.0000000  2
   8724   8722   8725   8727     1  180.0000771  0.3347200  3
   8729   8732   8735   8736     1  0.0000000  0.6508444  3
   8729   8732   8735   8737     1  0.0000000  0.6508444  3
   8730   8729   8732   8735     1  0.0000000  0.6508444  3
   8730   8729   8732   8733     1  0.0000000  0.6508444  3
   8730   8729   8732   8734     1  0.0000000  0.6508444  3
   8731   8729   8732   8735     1  0.0000000  0.6508444  3
   8731   8729   8732   8733     1  0.0000000  0.6508444  3
   8731   8729   8732   8734     1  0.0000000  0.6508444  3
   8733   8732   8735   8738     1  0.0000000  0.6508444  3
   8733   8732   8735   8736     1  0.0000000  0.6508444  3
   8733   8732   8735   8737     1  0.0000000  0.6508444  3
   8733   8732   8729   8757     1  0.0000000  1.0460000  1
   8733   8732   8729   8757     1  0.0000000  0.0000000  3
   8734   8732   8735   8738     1  0.0000000  0.6508444  3
   8734   8732   8735   8736     1  0.0000000  0.6508444  3
   8734   8732   8735   8737     1  0.0000000  0.6508444  3
   8734   8732   8729   8757     1  0.0000000  1.0460000  1
   8734   8732   8729   8757     1  0.0000000  0.0000000  3
   8735   8738   8739   8740     1  0.0000000  1.2552000  3
   8735   8738   8739   8741     1  0.0000000  1.2552000  3
   8735   8738   8748   8749     1  0.0000000  1.2552000  3
   8735   8738   8748   8750     1  0.0000000  1.2552000  3
   8736   8735   8738   8739     1  0.0000000  1.2552000  3
   8736   8735   8738   8748     1  0.0000000  1.2552000  3
   8737   8735   8738   8739     1  0.0000000  1.2552000  3
   8737   8735   8738   8748     1  0.0000000  1.2552000  3
   8738   8739   8742   8743     1  0.0000000  0.6508444  3
   8738   8739   8742   8744     1  0.0000000  0.6508444  3
   8738   8748   8751   8752     1  0.0000000  0.6508444  3
   8738   8748   8751   8753     1  0.0000000  0.6508444  3
   8739   8738   8748   8749     1  0.0000000  1.2552000  3
   8739   8738   8748   8750     1  0.0000000  1.2552000  3
   8740   8739   8742   8745     1  0.0000000  0.6508444  3
   8740   8739   8742   8743     1  0.0000000  0.6508444  3
   8740   8739   8742   8744     1  0.0000000  0.6508444  3
   8740   8739   8738   8748     1  0.0000000  1.2552000  3
   8741   8739   8742   8745     1  0.0000000  0.6508444  3
   8741   8739   8742   8743     1  0.0000000  0.6508444  3
   8741   8739   8742   8744     1  0.0000000  0.6508444  3
   8741   8739   8738   8748     1  0.0000000  1.2552000  3
   8743   8742   8745   8746     1  0.0000000  3.3472000  1
   8743   8742   8745   8746     1  0.0000000  0.0000000  2
   8743   8742   8745   8746     1  180.0000771  0.3347200  3
   8743   8742   8745   8747     1  0.0000000  3.3472000  1
   8743   8742   8745   8747     1  0.0000000  0.0000000  2
   8743   8742   8745   8747     1  180.0000771  0.3347200  3
   8744   8742   8745   8746     1  0.0000000  3.3472000  1
   8744   8742   8745   8746     1  0.0000000  0.0000000  2
   8744   8742   8745   8746     1  180.0000771  0.3347200  3
   8744   8742   8745   8747     1  0.0000000  3.3472000  1
   8744   8742   8745   8747     1  0.0000000  0.0000000  2
   8744   8742   8745   8747     1  180.0000771  0.3347200  3
   8749   8748   8751   8754     1  0.0000000  0.6508444  3
   8749   8748   8751   8752     1  0.0000000  0.6508444  3
   8749   8748   8751   8753     1  0.0000000  0.6508444  3
   8750   8748   8751   8754     1  0.0000000  0.6508444  3
   8750   8748   8751   8752     1  0.0000000  0.6508444  3
   8750   8748   8751   8753     1  0.0000000  0.6508444  3
   8752   8751   8754   8755     1  0.0000000  3.3472000  1
   8752   8751   8754   8755     1  0.0000000  0.0000000  2
   8752   8751   8754   8755     1  180.0000771  0.3347200  3
   8752   8751   8754   8756     1  0.0000000  3.3472000  1
   8752   8751   8754   8756     1  0.0000000  0.0000000  2
   8752   8751   8754   8756     1  180.0000771  0.3347200  3
   8753   8751   8754   8755     1  0.0000000  3.3472000  1
   8753   8751   8754   8755     1  0.0000000  0.0000000  2
   8753   8751   8754   8755     1  180.0000771  0.3347200  3
   8753   8751   8754   8756     1  0.0000000  3.3472000  1
   8753   8751   8754   8756     1  0.0000000  0.0000000  2
   8753   8751   8754   8756     1  180.0000771  0.3347200  3
   8758   8761   8764   8765     1  0.0000000  0.6508444  3
   8758   8761   8764   8766     1  0.0000000  0.6508444  3
   8759   8758   8761   8764     1  0.0000000  0.6508444  3
   8759   8758   8761   8762     1  0.0000000  0.6508444  3
   8759   8758   8761   8763     1  0.0000000  0.6508444  3
   8760   8758   8761   8764     1  0.0000000  0.6508444  3
   8760   8758   8761   8762     1  0.0000000  0.6508444  3
   8760   8758   8761   8763     1  0.0000000  0.6508444  3
   8762   8761   8758   8786     1  0.0000000  1.0460000  1
   8762   8761   8758   8786     1  0.0000000  0.0000000  3
   8762   8761   8764   8767     1  0.0000000  0.6508444  3
   8762   8761   8764   8765     1  0.0000000  0.6508444  3
   8762   8761   8764   8766     1  0.0000000  0.6508444  3
   8763   8761   8758   8786     1  0.0000000  1.0460000  1
   8763   8761   8758   8786     1  0.0000000  0.0000000  3
   8763   8761   8764   8767     1  0.0000000  0.6508444  3
   8763   8761   8764   8765     1  0.0000000  0.6508444  3
   8763   8761   8764   8766     1  0.0000000  0.6508444  3
   8764   8767   8768   8769     1  0.0000000  1.2552000  3
   8764   8767   8768   8770     1  0.0000000  1.2552000  3
   8764   8767   8777   8778     1  0.0000000  1.2552000  3
   8764   8767   8777   8779     1  0.0000000  1.2552000  3
   8765   8764   8767   8768     1  0.0000000  1.2552000  3
   8765   8764   8767   8777     1  0.0000000  1.2552000  3
   8766   8764   8767   8768     1  0.0000000  1.2552000  3
   8766   8764   8767   8777     1  0.0000000  1.2552000  3
   8767   8768   8771   8772     1  0.0000000  0.6508444  3
   8767   8768   8771   8773     1  0.0000000  0.6508444  3
   8767   8777   8780   8781     1  0.0000000  0.6508444  3
   8767   8777   8780   8782     1  0.0000000  0.6508444  3
   8768   8767   8777   8778     1  0.0000000  1.2552000  3
   8768   8767   8777   8779     1  0.0000000  1.2552000  3
   8769   8768   8767   8777     1  0.0000000  1.2552000  3
   8769   8768   8771   8774     1  0.0000000  0.6508444  3
   8769   8768   8771   8772     1  0.0000000  0.6508444  3
   8769   8768   8771   8773     1  0.0000000  0.6508444  3
   8770   8768   8767   8777     1  0.0000000  1.2552000  3
   8770   8768   8771   8774     1  0.0000000  0.6508444  3
   8770   8768   8771   8772     1  0.0000000  0.6508444  3
   8770   8768   8771   8773     1  0.0000000  0.6508444  3
   8772   8771   8774   8775     1  0.0000000  3.3472000  1
   8772   8771   8774   8775     1  0.0000000  0.0000000  2
   8772   8771   8774   8775     1  180.0000771  0.3347200  3
   8772   8771   8774   8776     1  0.0000000  3.3472000  1
   8772   8771   8774   8776     1  0.0000000  0.0000000  2
   8772   8771   8774   8776     1  180.0000771  0.3347200  3
   8773   8771   8774   8775     1  0.0000000  3.3472000  1
   8773   8771   8774   8775     1  0.0000000  0.0000000  2
   8773   8771   8774   8775     1  180.0000771  0.3347200  3
   8773   8771   8774   8776     1  0.0000000  3.3472000  1
   8773   8771   8774   8776     1  0.0000000  0.0000000  2
   8773   8771   8774   8776     1  180.0000771  0.3347200  3
   8778   8777   8780   8783     1  0.0000000  0.6508444  3
   8778   8777   8780   8781     1  0.0000000  0.6508444  3
   8778   8777   8780   8782     1  0.0000000  0.6508444  3
   8779   8777   8780   8783     1  0.0000000  0.6508444  3
   8779   8777   8780   8781     1  0.0000000  0.6508444  3
   8779   8777   8780   8782     1  0.0000000  0.6508444  3
   8781   8780   8783   8784     1  0.0000000  3.3472000  1
   8781   8780   8783   8784     1  0.0000000  0.0000000  2
   8781   8780   8783   8784     1  180.0000771  0.3347200  3
   8781   8780   8783   8785     1  0.0000000  3.3472000  1
   8781   8780   8783   8785     1  0.0000000  0.0000000  2
   8781   8780   8783   8785     1  180.0000771  0.3347200  3
   8782   8780   8783   8784     1  0.0000000  3.3472000  1
   8782   8780   8783   8784     1  0.0000000  0.0000000  2
   8782   8780   8783   8784     1  180.0000771  0.3347200  3
   8782   8780   8783   8785     1  0.0000000  3.3472000  1
   8782   8780   8783   8785     1  0.0000000  0.0000000  2
   8782   8780   8783   8785     1  180.0000771  0.3347200  3
   8787   8790   8793   8794     1  0.0000000  0.6508444  3
   8787   8790   8793   8795     1  0.0000000  0.6508444  3
   8788   8787   8790   8793     1  0.0000000  0.6508444  3
   8788   8787   8790   8791     1  0.0000000  0.6508444  3
   8788   8787   8790   8792     1  0.0000000  0.6508444  3
   8789   8787   8790   8793     1  0.0000000  0.6508444  3
   8789   8787   8790   8791     1  0.0000000  0.6508444  3
   8789   8787   8790   8792     1  0.0000000  0.6508444  3
   8791   8790   8793   8796     1  0.0000000  0.6508444  3
   8791   8790   8793   8794     1  0.0000000  0.6508444  3
   8791   8790   8793   8795     1  0.0000000  0.6508444  3
   8791   8790   8787   8815     1  0.0000000  1.0460000  1
   8791   8790   8787   8815     1  0.0000000  0.0000000  3
   8792   8790   8793   8796     1  0.0000000  0.6508444  3
   8792   8790   8793   8794     1  0.0000000  0.6508444  3
   8792   8790   8793   8795     1  0.0000000  0.6508444  3
   8792   8790   8787   8815     1  0.0000000  1.0460000  1
   8792   8790   8787   8815     1  0.0000000  0.0000000  3
   8793   8796   8797   8798     1  0.0000000  1.2552000  3
   8793   8796   8797   8799     1  0.0000000  1.2552000  3
   8793   8796   8806   8807     1  0.0000000  1.2552000  3
   8793   8796   8806   8808     1  0.0000000  1.2552000  3
   8794   8793   8796   8797     1  0.0000000  1.2552000  3
   8794   8793   8796   8806     1  0.0000000  1.2552000  3
   8795   8793   8796   8797     1  0.0000000  1.2552000  3
   8795   8793   8796   8806     1  0.0000000  1.2552000  3
   8796   8797   8800   8801     1  0.0000000  0.6508444  3
   8796   8797   8800   8802     1  0.0000000  0.6508444  3
   8796   8806   8809   8810     1  0.0000000  0.6508444  3
   8796   8806   8809   8811     1  0.0000000  0.6508444  3
   8797   8796   8806   8807     1  0.0000000  1.2552000  3
   8797   8796   8806   8808     1  0.0000000  1.2552000  3
   8798   8797   8800   8803     1  0.0000000  0.6508444  3
   8798   8797   8800   8801     1  0.0000000  0.6508444  3
   8798   8797   8800   8802     1  0.0000000  0.6508444  3
   8798   8797   8796   8806     1  0.0000000  1.2552000  3
   8799   8797   8800   8803     1  0.0000000  0.6508444  3
   8799   8797   8800   8801     1  0.0000000  0.6508444  3
   8799   8797   8800   8802     1  0.0000000  0.6508444  3
   8799   8797   8796   8806     1  0.0000000  1.2552000  3
   8801   8800   8803   8804     1  0.0000000  3.3472000  1
   8801   8800   8803   8804     1  0.0000000  0.0000000  2
   8801   8800   8803   8804     1  180.0000771  0.3347200  3
   8801   8800   8803   8805     1  0.0000000  3.3472000  1
   8801   8800   8803   8805     1  0.0000000  0.0000000  2
   8801   8800   8803   8805     1  180.0000771  0.3347200  3
   8802   8800   8803   8804     1  0.0000000  3.3472000  1
   8802   8800   8803   8804     1  0.0000000  0.0000000  2
   8802   8800   8803   8804     1  180.0000771  0.3347200  3
   8802   8800   8803   8805     1  0.0000000  3.3472000  1
   8802   8800   8803   8805     1  0.0000000  0.0000000  2
   8802   8800   8803   8805     1  180.0000771  0.3347200  3
   8807   8806   8809   8812     1  0.0000000  0.6508444  3
   8807   8806   8809   8810     1  0.0000000  0.6508444  3
   8807   8806   8809   8811     1  0.0000000  0.6508444  3
   8808   8806   8809   8812     1  0.0000000  0.6508444  3
   8808   8806   8809   8810     1  0.0000000  0.6508444  3
   8808   8806   8809   8811     1  0.0000000  0.6508444  3
   8810   8809   8812   8813     1  0.0000000  3.3472000  1
   8810   8809   8812   8813     1  0.0000000  0.0000000  2
   8810   8809   8812   8813     1  180.0000771  0.3347200  3
   8810   8809   8812   8814     1  0.0000000  3.3472000  1
   8810   8809   8812   8814     1  0.0000000  0.0000000  2
   8810   8809   8812   8814     1  180.0000771  0.3347200  3
   8811   8809   8812   8813     1  0.0000000  3.3472000  1
   8811   8809   8812   8813     1  0.0000000  0.0000000  2
   8811   8809   8812   8813     1  180.0000771  0.3347200  3
   8811   8809   8812   8814     1  0.0000000  3.3472000  1
   8811   8809   8812   8814     1  0.0000000  0.0000000  2
   8811   8809   8812   8814     1  180.0000771  0.3347200  3
   8816   8819   8822   8823     1  0.0000000  0.6508444  3
   8816   8819   8822   8824     1  0.0000000  0.6508444  3
   8817   8816   8819   8822     1  0.0000000  0.6508444  3
   8817   8816   8819   8820     1  0.0000000  0.6508444  3
   8817   8816   8819   8821     1  0.0000000  0.6508444  3
   8818   8816   8819   8822     1  0.0000000  0.6508444  3
   8818   8816   8819   8820     1  0.0000000  0.6508444  3
   8818   8816   8819   8821     1  0.0000000  0.6508444  3
   8820   8819   8816   8844     1  0.0000000  1.0460000  1
   8820   8819   8816   8844     1  0.0000000  0.0000000  3
   8820   8819   8822   8825     1  0.0000000  0.6508444  3
   8820   8819   8822   8823     1  0.0000000  0.6508444  3
   8820   8819   8822   8824     1  0.0000000  0.6508444  3
   8821   8819   8816   8844     1  0.0000000  1.0460000  1
   8821   8819   8816   8844     1  0.0000000  0.0000000  3
   8821   8819   8822   8825     1  0.0000000  0.6508444  3
   8821   8819   8822   8823     1  0.0000000  0.6508444  3
   8821   8819   8822   8824     1  0.0000000  0.6508444  3
   8822   8825   8826   8827     1  0.0000000  1.2552000  3
   8822   8825   8826   8828     1  0.0000000  1.2552000  3
   8822   8825   8835   8836     1  0.0000000  1.2552000  3
   8822   8825   8835   8837     1  0.0000000  1.2552000  3
   8823   8822   8825   8826     1  0.0000000  1.2552000  3
   8823   8822   8825   8835     1  0.0000000  1.2552000  3
   8824   8822   8825   8826     1  0.0000000  1.2552000  3
   8824   8822   8825   8835     1  0.0000000  1.2552000  3
   8825   8826   8829   8830     1  0.0000000  0.6508444  3
   8825   8826   8829   8831     1  0.0000000  0.6508444  3
   8825   8835   8838   8839     1  0.0000000  0.6508444  3
   8825   8835   8838   8840     1  0.0000000  0.6508444  3
   8826   8825   8835   8836     1  0.0000000  1.2552000  3
   8826   8825   8835   8837     1  0.0000000  1.2552000  3
   8827   8826   8825   8835     1  0.0000000  1.2552000  3
   8827   8826   8829   8832     1  0.0000000  0.6508444  3
   8827   8826   8829   8830     1  0.0000000  0.6508444  3
   8827   8826   8829   8831     1  0.0000000  0.6508444  3
   8828   8826   8825   8835     1  0.0000000  1.2552000  3
   8828   8826   8829   8832     1  0.0000000  0.6508444  3
   8828   8826   8829   8830     1  0.0000000  0.6508444  3
   8828   8826   8829   8831     1  0.0000000  0.6508444  3
   8830   8829   8832   8833     1  0.0000000  3.3472000  1
   8830   8829   8832   8833     1  0.0000000  0.0000000  2
   8830   8829   8832   8833     1  180.0000771  0.3347200  3
   8830   8829   8832   8834     1  0.0000000  3.3472000  1
   8830   8829   8832   8834     1  0.0000000  0.0000000  2
   8830   8829   8832   8834     1  180.0000771  0.3347200  3
   8831   8829   8832   8833     1  0.0000000  3.3472000  1
   8831   8829   8832   8833     1  0.0000000  0.0000000  2
   8831   8829   8832   8833     1  180.0000771  0.3347200  3
   8831   8829   8832   8834     1  0.0000000  3.3472000  1
   8831   8829   8832   8834     1  0.0000000  0.0000000  2
   8831   8829   8832   8834     1  180.0000771  0.3347200  3
   8836   8835   8838   8841     1  0.0000000  0.6508444  3
   8836   8835   8838   8839     1  0.0000000  0.6508444  3
   8836   8835   8838   8840     1  0.0000000  0.6508444  3
   8837   8835   8838   8841     1  0.0000000  0.6508444  3
   8837   8835   8838   8839     1  0.0000000  0.6508444  3
   8837   8835   8838   8840     1  0.0000000  0.6508444  3
   8839   8838   8841   8842     1  0.0000000  3.3472000  1
   8839   8838   8841   8842     1  0.0000000  0.0000000  2
   8839   8838   8841   8842     1  180.0000771  0.3347200  3
   8839   8838   8841   8843     1  0.0000000  3.3472000  1
   8839   8838   8841   8843     1  0.0000000  0.0000000  2
   8839   8838   8841   8843     1  180.0000771  0.3347200  3
   8840   8838   8841   8842     1  0.0000000  3.3472000  1
   8840   8838   8841   8842     1  0.0000000  0.0000000  2
   8840   8838   8841   8842     1  180.0000771  0.3347200  3
   8840   8838   8841   8843     1  0.0000000  3.3472000  1
   8840   8838   8841   8843     1  0.0000000  0.0000000  2
   8840   8838   8841   8843     1  180.0000771  0.3347200  3
   8845   8848   8851   8852     1  0.0000000  0.6508444  3
   8845   8848   8851   8853     1  0.0000000  0.6508444  3
   8846   8845   8848   8851     1  0.0000000  0.6508444  3
   8846   8845   8848   8849     1  0.0000000  0.6508444  3
   8846   8845   8848   8850     1  0.0000000  0.6508444  3
   8847   8845   8848   8851     1  0.0000000  0.6508444  3
   8847   8845   8848   8849     1  0.0000000  0.6508444  3
   8847   8845   8848   8850     1  0.0000000  0.6508444  3
   8849   8848   8851   8854     1  0.0000000  0.6508444  3
   8849   8848   8851   8852     1  0.0000000  0.6508444  3
   8849   8848   8851   8853     1  0.0000000  0.6508444  3
   8849   8848   8845   8873     1  0.0000000  1.0460000  1
   8849   8848   8845   8873     1  0.0000000  0.0000000  3
   8850   8848   8851   8854     1  0.0000000  0.6508444  3
   8850   8848   8851   8852     1  0.0000000  0.6508444  3
   8850   8848   8851   8853     1  0.0000000  0.6508444  3
   8850   8848   8845   8873     1  0.0000000  1.0460000  1
   8850   8848   8845   8873     1  0.0000000  0.0000000  3
   8851   8854   8855   8856     1  0.0000000  1.2552000  3
   8851   8854   8855   8857     1  0.0000000  1.2552000  3
   8851   8854   8864   8865     1  0.0000000  1.2552000  3
   8851   8854   8864   8866     1  0.0000000  1.2552000  3
   8852   8851   8854   8855     1  0.0000000  1.2552000  3
   8852   8851   8854   8864     1  0.0000000  1.2552000  3
   8853   8851   8854   8855     1  0.0000000  1.2552000  3
   8853   8851   8854   8864     1  0.0000000  1.2552000  3
   8854   8855   8858   8859     1  0.0000000  0.6508444  3
   8854   8855   8858   8860     1  0.0000000  0.6508444  3
   8854   8864   8867   8868     1  0.0000000  0.6508444  3
   8854   8864   8867   8869     1  0.0000000  0.6508444  3
   8855   8854   8864   8865     1  0.0000000  1.2552000  3
   8855   8854   8864   8866     1  0.0000000  1.2552000  3
   8856   8855   8858   8861     1  0.0000000  0.6508444  3
   8856   8855   8858   8859     1  0.0000000  0.6508444  3
   8856   8855   8858   8860     1  0.0000000  0.6508444  3
   8856   8855   8854   8864     1  0.0000000  1.2552000  3
   8857   8855   8858   8861     1  0.0000000  0.6508444  3
   8857   8855   8858   8859     1  0.0000000  0.6508444  3
   8857   8855   8858   8860     1  0.0000000  0.6508444  3
   8857   8855   8854   8864     1  0.0000000  1.2552000  3
   8859   8858   8861   8862     1  0.0000000  3.3472000  1
   8859   8858   8861   8862     1  0.0000000  0.0000000  2
   8859   8858   8861   8862     1  180.0000771  0.3347200  3
   8859   8858   8861   8863     1  0.0000000  3.3472000  1
   8859   8858   8861   8863     1  0.0000000  0.0000000  2
   8859   8858   8861   8863     1  180.0000771  0.3347200  3
   8860   8858   8861   8862     1  0.0000000  3.3472000  1
   8860   8858   8861   8862     1  0.0000000  0.0000000  2
   8860   8858   8861   8862     1  180.0000771  0.3347200  3
   8860   8858   8861   8863     1  0.0000000  3.3472000  1
   8860   8858   8861   8863     1  0.0000000  0.0000000  2
   8860   8858   8861   8863     1  180.0000771  0.3347200  3
   8865   8864   8867   8870     1  0.0000000  0.6508444  3
   8865   8864   8867   8868     1  0.0000000  0.6508444  3
   8865   8864   8867   8869     1  0.0000000  0.6508444  3
   8866   8864   8867   8870     1  0.0000000  0.6508444  3
   8866   8864   8867   8868     1  0.0000000  0.6508444  3
   8866   8864   8867   8869     1  0.0000000  0.6508444  3
   8868   8867   8870   8871     1  0.0000000  3.3472000  1
   8868   8867   8870   8871     1  0.0000000  0.0000000  2
   8868   8867   8870   8871     1  180.0000771  0.3347200  3
   8868   8867   8870   8872     1  0.0000000  3.3472000  1
   8868   8867   8870   8872     1  0.0000000  0.0000000  2
   8868   8867   8870   8872     1  180.0000771  0.3347200  3
   8869   8867   8870   8871     1  0.0000000  3.3472000  1
   8869   8867   8870   8871     1  0.0000000  0.0000000  2
   8869   8867   8870   8871     1  180.0000771  0.3347200  3
   8869   8867   8870   8872     1  0.0000000  3.3472000  1
   8869   8867   8870   8872     1  0.0000000  0.0000000  2
   8869   8867   8870   8872     1  180.0000771  0.3347200  3
   8874   8877   8880   8881     1  0.0000000  0.6508444  3
   8874   8877   8880   8882     1  0.0000000  0.6508444  3
   8875   8874   8877   8880     1  0.0000000  0.6508444  3
   8875   8874   8877   8878     1  0.0000000  0.6508444  3
   8875   8874   8877   8879     1  0.0000000  0.6508444  3
   8876   8874   8877   8880     1  0.0000000  0.6508444  3
   8876   8874   8877   8878     1  0.0000000  0.6508444  3
   8876   8874   8877   8879     1  0.0000000  0.6508444  3
   8878   8877   8874   8902     1  0.0000000  1.0460000  1
   8878   8877   8874   8902     1  0.0000000  0.0000000  3
   8878   8877   8880   8883     1  0.0000000  0.6508444  3
   8878   8877   8880   8881     1  0.0000000  0.6508444  3
   8878   8877   8880   8882     1  0.0000000  0.6508444  3
   8879   8877   8874   8902     1  0.0000000  1.0460000  1
   8879   8877   8874   8902     1  0.0000000  0.0000000  3
   8879   8877   8880   8883     1  0.0000000  0.6508444  3
   8879   8877   8880   8881     1  0.0000000  0.6508444  3
   8879   8877   8880   8882     1  0.0000000  0.6508444  3
   8880   8883   8884   8885     1  0.0000000  1.2552000  3
   8880   8883   8884   8886     1  0.0000000  1.2552000  3
   8880   8883   8893   8894     1  0.0000000  1.2552000  3
   8880   8883   8893   8895     1  0.0000000  1.2552000  3
   8881   8880   8883   8884     1  0.0000000  1.2552000  3
   8881   8880   8883   8893     1  0.0000000  1.2552000  3
   8882   8880   8883   8884     1  0.0000000  1.2552000  3
   8882   8880   8883   8893     1  0.0000000  1.2552000  3
   8883   8884   8887   8888     1  0.0000000  0.6508444  3
   8883   8884   8887   8889     1  0.0000000  0.6508444  3
   8883   8893   8896   8897     1  0.0000000  0.6508444  3
   8883   8893   8896   8898     1  0.0000000  0.6508444  3
   8884   8883   8893   8894     1  0.0000000  1.2552000  3
   8884   8883   8893   8895     1  0.0000000  1.2552000  3
   8885   8884   8883   8893     1  0.0000000  1.2552000  3
   8885   8884   8887   8890     1  0.0000000  0.6508444  3
   8885   8884   8887   8888     1  0.0000000  0.6508444  3
   8885   8884   8887   8889     1  0.0000000  0.6508444  3
   8886   8884   8883   8893     1  0.0000000  1.2552000  3
   8886   8884   8887   8890     1  0.0000000  0.6508444  3
   8886   8884   8887   8888     1  0.0000000  0.6508444  3
   8886   8884   8887   8889     1  0.0000000  0.6508444  3
   8888   8887   8890   8891     1  0.0000000  3.3472000  1
   8888   8887   8890   8891     1  0.0000000  0.0000000  2
   8888   8887   8890   8891     1  180.0000771  0.3347200  3
   8888   8887   8890   8892     1  0.0000000  3.3472000  1
   8888   8887   8890   8892     1  0.0000000  0.0000000  2
   8888   8887   8890   8892     1  180.0000771  0.3347200  3
   8889   8887   8890   8891     1  0.0000000  3.3472000  1
   8889   8887   8890   8891     1  0.0000000  0.0000000  2
   8889   8887   8890   8891     1  180.0000771  0.3347200  3
   8889   8887   8890   8892     1  0.0000000  3.3472000  1
   8889   8887   8890   8892     1  0.0000000  0.0000000  2
   8889   8887   8890   8892     1  180.0000771  0.3347200  3
   8894   8893   8896   8899     1  0.0000000  0.6508444  3
   8894   8893   8896   8897     1  0.0000000  0.6508444  3
   8894   8893   8896   8898     1  0.0000000  0.6508444  3
   8895   8893   8896   8899     1  0.0000000  0.6508444  3
   8895   8893   8896   8897     1  0.0000000  0.6508444  3
   8895   8893   8896   8898     1  0.0000000  0.6508444  3
   8897   8896   8899   8900     1  0.0000000  3.3472000  1
   8897   8896   8899   8900     1  0.0000000  0.0000000  2
   8897   8896   8899   8900     1  180.0000771  0.3347200  3
   8897   8896   8899   8901     1  0.0000000  3.3472000  1
   8897   8896   8899   8901     1  0.0000000  0.0000000  2
   8897   8896   8899   8901     1  180.0000771  0.3347200  3
   8898   8896   8899   8900     1  0.0000000  3.3472000  1
   8898   8896   8899   8900     1  0.0000000  0.0000000  2
   8898   8896   8899   8900     1  180.0000771  0.3347200  3
   8898   8896   8899   8901     1  0.0000000  3.3472000  1
   8898   8896   8899   8901     1  0.0000000  0.0000000  2
   8898   8896   8899   8901     1  180.0000771  0.3347200  3
   8903   8906   8909   8910     1  0.0000000  0.6508444  3
   8903   8906   8909   8911     1  0.0000000  0.6508444  3
   8904   8903   8906   8909     1  0.0000000  0.6508444  3
   8904   8903   8906   8907     1  0.0000000  0.6508444  3
   8904   8903   8906   8908     1  0.0000000  0.6508444  3
   8905   8903   8906   8909     1  0.0000000  0.6508444  3
   8905   8903   8906   8907     1  0.0000000  0.6508444  3
   8905   8903   8906   8908     1  0.0000000  0.6508444  3
   8907   8906   8909   8912     1  0.0000000  0.6508444  3
   8907   8906   8909   8910     1  0.0000000  0.6508444  3
   8907   8906   8909   8911     1  0.0000000  0.6508444  3
   8907   8906   8903   8931     1  0.0000000  1.0460000  1
   8907   8906   8903   8931     1  0.0000000  0.0000000  3
   8908   8906   8909   8912     1  0.0000000  0.6508444  3
   8908   8906   8909   8910     1  0.0000000  0.6508444  3
   8908   8906   8909   8911     1  0.0000000  0.6508444  3
   8908   8906   8903   8931     1  0.0000000  1.0460000  1
   8908   8906   8903   8931     1  0.0000000  0.0000000  3
   8909   8912   8913   8914     1  0.0000000  1.2552000  3
   8909   8912   8913   8915     1  0.0000000  1.2552000  3
   8909   8912   8922   8923     1  0.0000000  1.2552000  3
   8909   8912   8922   8924     1  0.0000000  1.2552000  3
   8910   8909   8912   8913     1  0.0000000  1.2552000  3
   8910   8909   8912   8922     1  0.0000000  1.2552000  3
   8911   8909   8912   8913     1  0.0000000  1.2552000  3
   8911   8909   8912   8922     1  0.0000000  1.2552000  3
   8912   8913   8916   8917     1  0.0000000  0.6508444  3
   8912   8913   8916   8918     1  0.0000000  0.6508444  3
   8912   8922   8925   8926     1  0.0000000  0.6508444  3
   8912   8922   8925   8927     1  0.0000000  0.6508444  3
   8913   8912   8922   8923     1  0.0000000  1.2552000  3
   8913   8912   8922   8924     1  0.0000000  1.2552000  3
   8914   8913   8916   8919     1  0.0000000  0.6508444  3
   8914   8913   8916   8917     1  0.0000000  0.6508444  3
   8914   8913   8916   8918     1  0.0000000  0.6508444  3
   8914   8913   8912   8922     1  0.0000000  1.2552000  3
   8915   8913   8916   8919     1  0.0000000  0.6508444  3
   8915   8913   8916   8917     1  0.0000000  0.6508444  3
   8915   8913   8916   8918     1  0.0000000  0.6508444  3
   8915   8913   8912   8922     1  0.0000000  1.2552000  3
   8917   8916   8919   8920     1  0.0000000  3.3472000  1
   8917   8916   8919   8920     1  0.0000000  0.0000000  2
   8917   8916   8919   8920     1  180.0000771  0.3347200  3
   8917   8916   8919   8921     1  0.0000000  3.3472000  1
   8917   8916   8919   8921     1  0.0000000  0.0000000  2
   8917   8916   8919   8921     1  180.0000771  0.3347200  3
   8918   8916   8919   8920     1  0.0000000  3.3472000  1
   8918   8916   8919   8920     1  0.0000000  0.0000000  2
   8918   8916   8919   8920     1  180.0000771  0.3347200  3
   8918   8916   8919   8921     1  0.0000000  3.3472000  1
   8918   8916   8919   8921     1  0.0000000  0.0000000  2
   8918   8916   8919   8921     1  180.0000771  0.3347200  3
   8923   8922   8925   8928     1  0.0000000  0.6508444  3
   8923   8922   8925   8926     1  0.0000000  0.6508444  3
   8923   8922   8925   8927     1  0.0000000  0.6508444  3
   8924   8922   8925   8928     1  0.0000000  0.6508444  3
   8924   8922   8925   8926     1  0.0000000  0.6508444  3
   8924   8922   8925   8927     1  0.0000000  0.6508444  3
   8926   8925   8928   8929     1  0.0000000  3.3472000  1
   8926   8925   8928   8929     1  0.0000000  0.0000000  2
   8926   8925   8928   8929     1  180.0000771  0.3347200  3
   8926   8925   8928   8930     1  0.0000000  3.3472000  1
   8926   8925   8928   8930     1  0.0000000  0.0000000  2
   8926   8925   8928   8930     1  180.0000771  0.3347200  3
   8927   8925   8928   8929     1  0.0000000  3.3472000  1
   8927   8925   8928   8929     1  0.0000000  0.0000000  2
   8927   8925   8928   8929     1  180.0000771  0.3347200  3
   8927   8925   8928   8930     1  0.0000000  3.3472000  1
   8927   8925   8928   8930     1  0.0000000  0.0000000  2
   8927   8925   8928   8930     1  180.0000771  0.3347200  3
   8932   8935   8938   8939     1  0.0000000  0.6508444  3
   8932   8935   8938   8940     1  0.0000000  0.6508444  3
   8933   8932   8935   8938     1  0.0000000  0.6508444  3
   8933   8932   8935   8936     1  0.0000000  0.6508444  3
   8933   8932   8935   8937     1  0.0000000  0.6508444  3
   8934   8932   8935   8938     1  0.0000000  0.6508444  3
   8934   8932   8935   8936     1  0.0000000  0.6508444  3
   8934   8932   8935   8937     1  0.0000000  0.6508444  3
   8936   8935   8932   8960     1  0.0000000  1.0460000  1
   8936   8935   8932   8960     1  0.0000000  0.0000000  3
   8936   8935   8938   8941     1  0.0000000  0.6508444  3
   8936   8935   8938   8939     1  0.0000000  0.6508444  3
   8936   8935   8938   8940     1  0.0000000  0.6508444  3
   8937   8935   8932   8960     1  0.0000000  1.0460000  1
   8937   8935   8932   8960     1  0.0000000  0.0000000  3
   8937   8935   8938   8941     1  0.0000000  0.6508444  3
   8937   8935   8938   8939     1  0.0000000  0.6508444  3
   8937   8935   8938   8940     1  0.0000000  0.6508444  3
   8938   8941   8942   8943     1  0.0000000  1.2552000  3
   8938   8941   8942   8944     1  0.0000000  1.2552000  3
   8938   8941   8951   8952     1  0.0000000  1.2552000  3
   8938   8941   8951   8953     1  0.0000000  1.2552000  3
   8939   8938   8941   8942     1  0.0000000  1.2552000  3
   8939   8938   8941   8951     1  0.0000000  1.2552000  3
   8940   8938   8941   8942     1  0.0000000  1.2552000  3
   8940   8938   8941   8951     1  0.0000000  1.2552000  3
   8941   8942   8945   8946     1  0.0000000  0.6508444  3
   8941   8942   8945   8947     1  0.0000000  0.6508444  3
   8941   8951   8954   8955     1  0.0000000  0.6508444  3
   8941   8951   8954   8956     1  0.0000000  0.6508444  3
   8942   8941   8951   8952     1  0.0000000  1.2552000  3
   8942   8941   8951   8953     1  0.0000000  1.2552000  3
   8943   8942   8941   8951     1  0.0000000  1.2552000  3
   8943   8942   8945   8948     1  0.0000000  0.6508444  3
   8943   8942   8945   8946     1  0.0000000  0.6508444  3
   8943   8942   8945   8947     1  0.0000000  0.6508444  3
   8944   8942   8941   8951     1  0.0000000  1.2552000  3
   8944   8942   8945   8948     1  0.0000000  0.6508444  3
   8944   8942   8945   8946     1  0.0000000  0.6508444  3
   8944   8942   8945   8947     1  0.0000000  0.6508444  3
   8946   8945   8948   8949     1  0.0000000  3.3472000  1
   8946   8945   8948   8949     1  0.0000000  0.0000000  2
   8946   8945   8948   8949     1  180.0000771  0.3347200  3
   8946   8945   8948   8950     1  0.0000000  3.3472000  1
   8946   8945   8948   8950     1  0.0000000  0.0000000  2
   8946   8945   8948   8950     1  180.0000771  0.3347200  3
   8947   8945   8948   8949     1  0.0000000  3.3472000  1
   8947   8945   8948   8949     1  0.0000000  0.0000000  2
   8947   8945   8948   8949     1  180.0000771  0.3347200  3
   8947   8945   8948   8950     1  0.0000000  3.3472000  1
   8947   8945   8948   8950     1  0.0000000  0.0000000  2
   8947   8945   8948   8950     1  180.0000771  0.3347200  3
   8952   8951   8954   8957     1  0.0000000  0.6508444  3
   8952   8951   8954   8955     1  0.0000000  0.6508444  3
   8952   8951   8954   8956     1  0.0000000  0.6508444  3
   8953   8951   8954   8957     1  0.0000000  0.6508444  3
   8953   8951   8954   8955     1  0.0000000  0.6508444  3
   8953   8951   8954   8956     1  0.0000000  0.6508444  3
   8955   8954   8957   8958     1  0.0000000  3.3472000  1
   8955   8954   8957   8958     1  0.0000000  0.0000000  2
   8955   8954   8957   8958     1  180.0000771  0.3347200  3
   8955   8954   8957   8959     1  0.0000000  3.3472000  1
   8955   8954   8957   8959     1  0.0000000  0.0000000  2
   8955   8954   8957   8959     1  180.0000771  0.3347200  3
   8956   8954   8957   8958     1  0.0000000  3.3472000  1
   8956   8954   8957   8958     1  0.0000000  0.0000000  2
   8956   8954   8957   8958     1  180.0000771  0.3347200  3
   8956   8954   8957   8959     1  0.0000000  3.3472000  1
   8956   8954   8957   8959     1  0.0000000  0.0000000  2
   8956   8954   8957   8959     1  180.0000771  0.3347200  3
   8961   8964   8967   8968     1  0.0000000  0.6508444  3
   8961   8964   8967   8969     1  0.0000000  0.6508444  3
   8962   8961   8964   8967     1  0.0000000  0.6508444  3
   8962   8961   8964   8965     1  0.0000000  0.6508444  3
   8962   8961   8964   8966     1  0.0000000  0.6508444  3
   8963   8961   8964   8967     1  0.0000000  0.6508444  3
   8963   8961   8964   8965     1  0.0000000  0.6508444  3
   8963   8961   8964   8966     1  0.0000000  0.6508444  3
   8965   8964   8967   8970     1  0.0000000  0.6508444  3
   8965   8964   8967   8968     1  0.0000000  0.6508444  3
   8965   8964   8967   8969     1  0.0000000  0.6508444  3
   8965   8964   8961   8989     1  0.0000000  1.0460000  1
   8965   8964   8961   8989     1  0.0000000  0.0000000  3
   8966   8964   8967   8970     1  0.0000000  0.6508444  3
   8966   8964   8967   8968     1  0.0000000  0.6508444  3
   8966   8964   8967   8969     1  0.0000000  0.6508444  3
   8966   8964   8961   8989     1  0.0000000  1.0460000  1
   8966   8964   8961   8989     1  0.0000000  0.0000000  3
   8967   8970   8971   8972     1  0.0000000  1.2552000  3
   8967   8970   8971   8973     1  0.0000000  1.2552000  3
   8967   8970   8980   8981     1  0.0000000  1.2552000  3
   8967   8970   8980   8982     1  0.0000000  1.2552000  3
   8968   8967   8970   8971     1  0.0000000  1.2552000  3
   8968   8967   8970   8980     1  0.0000000  1.2552000  3
   8969   8967   8970   8971     1  0.0000000  1.2552000  3
   8969   8967   8970   8980     1  0.0000000  1.2552000  3
   8970   8971   8974   8975     1  0.0000000  0.6508444  3
   8970   8971   8974   8976     1  0.0000000  0.6508444  3
   8970   8980   8983   8984     1  0.0000000  0.6508444  3
   8970   8980   8983   8985     1  0.0000000  0.6508444  3
   8971   8970   8980   8981     1  0.0000000  1.2552000  3
   8971   8970   8980   8982     1  0.0000000  1.2552000  3
   8972   8971   8974   8977     1  0.0000000  0.6508444  3
   8972   8971   8974   8975     1  0.0000000  0.6508444  3
   8972   8971   8974   8976     1  0.0000000  0.6508444  3
   8972   8971   8970   8980     1  0.0000000  1.2552000  3
   8973   8971   8974   8977     1  0.0000000  0.6508444  3
   8973   8971   8974   8975     1  0.0000000  0.6508444  3
   8973   8971   8974   8976     1  0.0000000  0.6508444  3
   8973   8971   8970   8980     1  0.0000000  1.2552000  3
   8975   8974   8977   8978     1  0.0000000  3.3472000  1
   8975   8974   8977   8978     1  0.0000000  0.0000000  2
   8975   8974   8977   8978     1  180.0000771  0.3347200  3
   8975   8974   8977   8979     1  0.0000000  3.3472000  1
   8975   8974   8977   8979     1  0.0000000  0.0000000  2
   8975   8974   8977   8979     1  180.0000771  0.3347200  3
   8976   8974   8977   8978     1  0.0000000  3.3472000  1
   8976   8974   8977   8978     1  0.0000000  0.0000000  2
   8976   8974   8977   8978     1  180.0000771  0.3347200  3
   8976   8974   8977   8979     1  0.0000000  3.3472000  1
   8976   8974   8977   8979     1  0.0000000  0.0000000  2
   8976   8974   8977   8979     1  180.0000771  0.3347200  3
   8981   8980   8983   8986     1  0.0000000  0.6508444  3
   8981   8980   8983   8984     1  0.0000000  0.6508444  3
   8981   8980   8983   8985     1  0.0000000  0.6508444  3
   8982   8980   8983   8986     1  0.0000000  0.6508444  3
   8982   8980   8983   8984     1  0.0000000  0.6508444  3
   8982   8980   8983   8985     1  0.0000000  0.6508444  3
   8984   8983   8986   8987     1  0.0000000  3.3472000  1
   8984   8983   8986   8987     1  0.0000000  0.0000000  2
   8984   8983   8986   8987     1  180.0000771  0.3347200  3
   8984   8983   8986   8988     1  0.0000000  3.3472000  1
   8984   8983   8986   8988     1  0.0000000  0.0000000  2
   8984   8983   8986   8988     1  180.0000771  0.3347200  3
   8985   8983   8986   8987     1  0.0000000  3.3472000  1
   8985   8983   8986   8987     1  0.0000000  0.0000000  2
   8985   8983   8986   8987     1  180.0000771  0.3347200  3
   8985   8983   8986   8988     1  0.0000000  3.3472000  1
   8985   8983   8986   8988     1  0.0000000  0.0000000  2
   8985   8983   8986   8988     1  180.0000771  0.3347200  3
   8990   8993   8996   8997     1  0.0000000  0.6508444  3
   8990   8993   8996   8998     1  0.0000000  0.6508444  3
   8991   8990   8993   8996     1  0.0000000  0.6508444  3
   8991   8990   8993   8994     1  0.0000000  0.6508444  3
   8991   8990   8993   8995     1  0.0000000  0.6508444  3
   8992   8990   8993   8996     1  0.0000000  0.6508444  3
   8992   8990   8993   8994     1  0.0000000  0.6508444  3
   8992   8990   8993   8995     1  0.0000000  0.6508444  3
   8994   8993   8990   9018     1  0.0000000  1.0460000  1
   8994   8993   8990   9018     1  0.0000000  0.0000000  3
   8994   8993   8996   8999     1  0.0000000  0.6508444  3
   8994   8993   8996   8997     1  0.0000000  0.6508444  3
   8994   8993   8996   8998     1  0.0000000  0.6508444  3
   8995   8993   8990   9018     1  0.0000000  1.0460000  1
   8995   8993   8990   9018     1  0.0000000  0.0000000  3
   8995   8993   8996   8999     1  0.0000000  0.6508444  3
   8995   8993   8996   8997     1  0.0000000  0.6508444  3
   8995   8993   8996   8998     1  0.0000000  0.6508444  3
   8996   8999   9000   9001     1  0.0000000  1.2552000  3
   8996   8999   9000   9002     1  0.0000000  1.2552000  3
   8996   8999   9009   9010     1  0.0000000  1.2552000  3
   8996   8999   9009   9011     1  0.0000000  1.2552000  3
   8997   8996   8999   9000     1  0.0000000  1.2552000  3
   8997   8996   8999   9009     1  0.0000000  1.2552000  3
   8998   8996   8999   9000     1  0.0000000  1.2552000  3
   8998   8996   8999   9009     1  0.0000000  1.2552000  3
   8999   9000   9003   9004     1  0.0000000  0.6508444  3
   8999   9000   9003   9005     1  0.0000000  0.6508444  3
   8999   9009   9012   9013     1  0.0000000  0.6508444  3
   8999   9009   9012   9014     1  0.0000000  0.6508444  3
   9000   8999   9009   9010     1  0.0000000  1.2552000  3
   9000   8999   9009   9011     1  0.0000000  1.2552000  3
   9001   9000   8999   9009     1  0.0000000  1.2552000  3
   9001   9000   9003   9006     1  0.0000000  0.6508444  3
   9001   9000   9003   9004     1  0.0000000  0.6508444  3
   9001   9000   9003   9005     1  0.0000000  0.6508444  3
   9002   9000   8999   9009     1  0.0000000  1.2552000  3
   9002   9000   9003   9006     1  0.0000000  0.6508444  3
   9002   9000   9003   9004     1  0.0000000  0.6508444  3
   9002   9000   9003   9005     1  0.0000000  0.6508444  3
   9004   9003   9006   9007     1  0.0000000  3.3472000  1
   9004   9003   9006   9007     1  0.0000000  0.0000000  2
   9004   9003   9006   9007     1  180.0000771  0.3347200  3
   9004   9003   9006   9008     1  0.0000000  3.3472000  1
   9004   9003   9006   9008     1  0.0000000  0.0000000  2
   9004   9003   9006   9008     1  180.0000771  0.3347200  3
   9005   9003   9006   9007     1  0.0000000  3.3472000  1
   9005   9003   9006   9007     1  0.0000000  0.0000000  2
   9005   9003   9006   9007     1  180.0000771  0.3347200  3
   9005   9003   9006   9008     1  0.0000000  3.3472000  1
   9005   9003   9006   9008     1  0.0000000  0.0000000  2
   9005   9003   9006   9008     1  180.0000771  0.3347200  3
   9010   9009   9012   9015     1  0.0000000  0.6508444  3
   9010   9009   9012   9013     1  0.0000000  0.6508444  3
   9010   9009   9012   9014     1  0.0000000  0.6508444  3
   9011   9009   9012   9015     1  0.0000000  0.6508444  3
   9011   9009   9012   9013     1  0.0000000  0.6508444  3
   9011   9009   9012   9014     1  0.0000000  0.6508444  3
   9013   9012   9015   9016     1  0.0000000  3.3472000  1
   9013   9012   9015   9016     1  0.0000000  0.0000000  2
   9013   9012   9015   9016     1  180.0000771  0.3347200  3
   9013   9012   9015   9017     1  0.0000000  3.3472000  1
   9013   9012   9015   9017     1  0.0000000  0.0000000  2
   9013   9012   9015   9017     1  180.0000771  0.3347200  3
   9014   9012   9015   9016     1  0.0000000  3.3472000  1
   9014   9012   9015   9016     1  0.0000000  0.0000000  2
   9014   9012   9015   9016     1  180.0000771  0.3347200  3
   9014   9012   9015   9017     1  0.0000000  3.3472000  1
   9014   9012   9015   9017     1  0.0000000  0.0000000  2
   9014   9012   9015   9017     1  180.0000771  0.3347200  3
   9019   9022   9025   9026     1  0.0000000  0.6508444  3
   9019   9022   9025   9027     1  0.0000000  0.6508444  3
   9020   9019   9022   9025     1  0.0000000  0.6508444  3
   9020   9019   9022   9023     1  0.0000000  0.6508444  3
   9020   9019   9022   9024     1  0.0000000  0.6508444  3
   9021   9019   9022   9025     1  0.0000000  0.6508444  3
   9021   9019   9022   9023     1  0.0000000  0.6508444  3
   9021   9019   9022   9024     1  0.0000000  0.6508444  3
   9023   9022   9025   9028     1  0.0000000  0.6508444  3
   9023   9022   9025   9026     1  0.0000000  0.6508444  3
   9023   9022   9025   9027     1  0.0000000  0.6508444  3
   9023   9022   9019   9047     1  0.0000000  1.0460000  1
   9023   9022   9019   9047     1  0.0000000  0.0000000  3
   9024   9022   9025   9028     1  0.0000000  0.6508444  3
   9024   9022   9025   9026     1  0.0000000  0.6508444  3
   9024   9022   9025   9027     1  0.0000000  0.6508444  3
   9024   9022   9019   9047     1  0.0000000  1.0460000  1
   9024   9022   9019   9047     1  0.0000000  0.0000000  3
   9025   9028   9029   9030     1  0.0000000  1.2552000  3
   9025   9028   9029   9031     1  0.0000000  1.2552000  3
   9025   9028   9038   9039     1  0.0000000  1.2552000  3
   9025   9028   9038   9040     1  0.0000000  1.2552000  3
   9026   9025   9028   9029     1  0.0000000  1.2552000  3
   9026   9025   9028   9038     1  0.0000000  1.2552000  3
   9027   9025   9028   9029     1  0.0000000  1.2552000  3
   9027   9025   9028   9038     1  0.0000000  1.2552000  3
   9028   9029   9032   9033     1  0.0000000  0.6508444  3
   9028   9029   9032   9034     1  0.0000000  0.6508444  3
   9028   9038   9041   9042     1  0.0000000  0.6508444  3
   9028   9038   9041   9043     1  0.0000000  0.6508444  3
   9029   9028   9038   9039     1  0.0000000  1.2552000  3
   9029   9028   9038   9040     1  0.0000000  1.2552000  3
   9030   9029   9032   9035     1  0.0000000  0.6508444  3
   9030   9029   9032   9033     1  0.0000000  0.6508444  3
   9030   9029   9032   9034     1  0.0000000  0.6508444  3
   9030   9029   9028   9038     1  0.0000000  1.2552000  3
   9031   9029   9032   9035     1  0.0000000  0.6508444  3
   9031   9029   9032   9033     1  0.0000000  0.6508444  3
   9031   9029   9032   9034     1  0.0000000  0.6508444  3
   9031   9029   9028   9038     1  0.0000000  1.2552000  3
   9033   9032   9035   9036     1  0.0000000  3.3472000  1
   9033   9032   9035   9036     1  0.0000000  0.0000000  2
   9033   9032   9035   9036     1  180.0000771  0.3347200  3
   9033   9032   9035   9037     1  0.0000000  3.3472000  1
   9033   9032   9035   9037     1  0.0000000  0.0000000  2
   9033   9032   9035   9037     1  180.0000771  0.3347200  3
   9034   9032   9035   9036     1  0.0000000  3.3472000  1
   9034   9032   9035   9036     1  0.0000000  0.0000000  2
   9034   9032   9035   9036     1  180.0000771  0.3347200  3
   9034   9032   9035   9037     1  0.0000000  3.3472000  1
   9034   9032   9035   9037     1  0.0000000  0.0000000  2
   9034   9032   9035   9037     1  180.0000771  0.3347200  3
   9039   9038   9041   9044     1  0.0000000  0.6508444  3
   9039   9038   9041   9042     1  0.0000000  0.6508444  3
   9039   9038   9041   9043     1  0.0000000  0.6508444  3
   9040   9038   9041   9044     1  0.0000000  0.6508444  3
   9040   9038   9041   9042     1  0.0000000  0.6508444  3
   9040   9038   9041   9043     1  0.0000000  0.6508444  3
   9042   9041   9044   9045     1  0.0000000  3.3472000  1
   9042   9041   9044   9045     1  0.0000000  0.0000000  2
   9042   9041   9044   9045     1  180.0000771  0.3347200  3
   9042   9041   9044   9046     1  0.0000000  3.3472000  1
   9042   9041   9044   9046     1  0.0000000  0.0000000  2
   9042   9041   9044   9046     1  180.0000771  0.3347200  3
   9043   9041   9044   9045     1  0.0000000  3.3472000  1
   9043   9041   9044   9045     1  0.0000000  0.0000000  2
   9043   9041   9044   9045     1  180.0000771  0.3347200  3
   9043   9041   9044   9046     1  0.0000000  3.3472000  1
   9043   9041   9044   9046     1  0.0000000  0.0000000  2
   9043   9041   9044   9046     1  180.0000771  0.3347200  3
   9048   9051   9054   9055     1  0.0000000  0.6508444  3
   9048   9051   9054   9056     1  0.0000000  0.6508444  3
   9049   9048   9051   9054     1  0.0000000  0.6508444  3
   9049   9048   9051   9052     1  0.0000000  0.6508444  3
   9049   9048   9051   9053     1  0.0000000  0.6508444  3
   9050   9048   9051   9054     1  0.0000000  0.6508444  3
   9050   9048   9051   9052     1  0.0000000  0.6508444  3
   9050   9048   9051   9053     1  0.0000000  0.6508444  3
   9052   9051   9048   9076     1  0.0000000  1.0460000  1
   9052   9051   9048   9076     1  0.0000000  0.0000000  3
   9052   9051   9054   9057     1  0.0000000  0.6508444  3
   9052   9051   9054   9055     1  0.0000000  0.6508444  3
   9052   9051   9054   9056     1  0.0000000  0.6508444  3
   9053   9051   9048   9076     1  0.0000000  1.0460000  1
   9053   9051   9048   9076     1  0.0000000  0.0000000  3
   9053   9051   9054   9057     1  0.0000000  0.6508444  3
   9053   9051   9054   9055     1  0.0000000  0.6508444  3
   9053   9051   9054   9056     1  0.0000000  0.6508444  3
   9054   9057   9058   9059     1  0.0000000  1.2552000  3
   9054   9057   9058   9060     1  0.0000000  1.2552000  3
   9054   9057   9067   9068     1  0.0000000  1.2552000  3
   9054   9057   9067   9069     1  0.0000000  1.2552000  3
   9055   9054   9057   9058     1  0.0000000  1.2552000  3
   9055   9054   9057   9067     1  0.0000000  1.2552000  3
   9056   9054   9057   9058     1  0.0000000  1.2552000  3
   9056   9054   9057   9067     1  0.0000000  1.2552000  3
   9057   9058   9061   9062     1  0.0000000  0.6508444  3
   9057   9058   9061   9063     1  0.0000000  0.6508444  3
   9057   9067   9070   9071     1  0.0000000  0.6508444  3
   9057   9067   9070   9072     1  0.0000000  0.6508444  3
   9058   9057   9067   9068     1  0.0000000  1.2552000  3
   9058   9057   9067   9069     1  0.0000000  1.2552000  3
   9059   9058   9057   9067     1  0.0000000  1.2552000  3
   9059   9058   9061   9064     1  0.0000000  0.6508444  3
   9059   9058   9061   9062     1  0.0000000  0.6508444  3
   9059   9058   9061   9063     1  0.0000000  0.6508444  3
   9060   9058   9057   9067     1  0.0000000  1.2552000  3
   9060   9058   9061   9064     1  0.0000000  0.6508444  3
   9060   9058   9061   9062     1  0.0000000  0.6508444  3
   9060   9058   9061   9063     1  0.0000000  0.6508444  3
   9062   9061   9064   9065     1  0.0000000  3.3472000  1
   9062   9061   9064   9065     1  0.0000000  0.0000000  2
   9062   9061   9064   9065     1  180.0000771  0.3347200  3
   9062   9061   9064   9066     1  0.0000000  3.3472000  1
   9062   9061   9064   9066     1  0.0000000  0.0000000  2
   9062   9061   9064   9066     1  180.0000771  0.3347200  3
   9063   9061   9064   9065     1  0.0000000  3.3472000  1
   9063   9061   9064   9065     1  0.0000000  0.0000000  2
   9063   9061   9064   9065     1  180.0000771  0.3347200  3
   9063   9061   9064   9066     1  0.0000000  3.3472000  1
   9063   9061   9064   9066     1  0.0000000  0.0000000  2
   9063   9061   9064   9066     1  180.0000771  0.3347200  3
   9068   9067   9070   9073     1  0.0000000  0.6508444  3
   9068   9067   9070   9071     1  0.0000000  0.6508444  3
   9068   9067   9070   9072     1  0.0000000  0.6508444  3
   9069   9067   9070   9073     1  0.0000000  0.6508444  3
   9069   9067   9070   9071     1  0.0000000  0.6508444  3
   9069   9067   9070   9072     1  0.0000000  0.6508444  3
   9071   9070   9073   9074     1  0.0000000  3.3472000  1
   9071   9070   9073   9074     1  0.0000000  0.0000000  2
   9071   9070   9073   9074     1  180.0000771  0.3347200  3
   9071   9070   9073   9075     1  0.0000000  3.3472000  1
   9071   9070   9073   9075     1  0.0000000  0.0000000  2
   9071   9070   9073   9075     1  180.0000771  0.3347200  3
   9072   9070   9073   9074     1  0.0000000  3.3472000  1
   9072   9070   9073   9074     1  0.0000000  0.0000000  2
   9072   9070   9073   9074     1  180.0000771  0.3347200  3
   9072   9070   9073   9075     1  0.0000000  3.3472000  1
   9072   9070   9073   9075     1  0.0000000  0.0000000  2
   9072   9070   9073   9075     1  180.0000771  0.3347200  3
   9077   9080   9083   9084     1  0.0000000  0.6508444  3
   9077   9080   9083   9085     1  0.0000000  0.6508444  3
   9078   9077   9080   9083     1  0.0000000  0.6508444  3
   9078   9077   9080   9081     1  0.0000000  0.6508444  3
   9078   9077   9080   9082     1  0.0000000  0.6508444  3
   9079   9077   9080   9083     1  0.0000000  0.6508444  3
   9079   9077   9080   9081     1  0.0000000  0.6508444  3
   9079   9077   9080   9082     1  0.0000000  0.6508444  3
   9081   9080   9083   9086     1  0.0000000  0.6508444  3
   9081   9080   9083   9084     1  0.0000000  0.6508444  3
   9081   9080   9083   9085     1  0.0000000  0.6508444  3
   9081   9080   9077   9105     1  0.0000000  1.0460000  1
   9081   9080   9077   9105     1  0.0000000  0.0000000  3
   9082   9080   9083   9086     1  0.0000000  0.6508444  3
   9082   9080   9083   9084     1  0.0000000  0.6508444  3
   9082   9080   9083   9085     1  0.0000000  0.6508444  3
   9082   9080   9077   9105     1  0.0000000  1.0460000  1
   9082   9080   9077   9105     1  0.0000000  0.0000000  3
   9083   9086   9087   9088     1  0.0000000  1.2552000  3
   9083   9086   9087   9089     1  0.0000000  1.2552000  3
   9083   9086   9096   9097     1  0.0000000  1.2552000  3
   9083   9086   9096   9098     1  0.0000000  1.2552000  3
   9084   9083   9086   9087     1  0.0000000  1.2552000  3
   9084   9083   9086   9096     1  0.0000000  1.2552000  3
   9085   9083   9086   9087     1  0.0000000  1.2552000  3
   9085   9083   9086   9096     1  0.0000000  1.2552000  3
   9086   9087   9090   9091     1  0.0000000  0.6508444  3
   9086   9087   9090   9092     1  0.0000000  0.6508444  3
   9086   9096   9099   9100     1  0.0000000  0.6508444  3
   9086   9096   9099   9101     1  0.0000000  0.6508444  3
   9087   9086   9096   9097     1  0.0000000  1.2552000  3
   9087   9086   9096   9098     1  0.0000000  1.2552000  3
   9088   9087   9090   9093     1  0.0000000  0.6508444  3
   9088   9087   9090   9091     1  0.0000000  0.6508444  3
   9088   9087   9090   9092     1  0.0000000  0.6508444  3
   9088   9087   9086   9096     1  0.0000000  1.2552000  3
   9089   9087   9090   9093     1  0.0000000  0.6508444  3
   9089   9087   9090   9091     1  0.0000000  0.6508444  3
   9089   9087   9090   9092     1  0.0000000  0.6508444  3
   9089   9087   9086   9096     1  0.0000000  1.2552000  3
   9091   9090   9093   9094     1  0.0000000  3.3472000  1
   9091   9090   9093   9094     1  0.0000000  0.0000000  2
   9091   9090   9093   9094     1  180.0000771  0.3347200  3
   9091   9090   9093   9095     1  0.0000000  3.3472000  1
   9091   9090   9093   9095     1  0.0000000  0.0000000  2
   9091   9090   9093   9095     1  180.0000771  0.3347200  3
   9092   9090   9093   9094     1  0.0000000  3.3472000  1
   9092   9090   9093   9094     1  0.0000000  0.0000000  2
   9092   9090   9093   9094     1  180.0000771  0.3347200  3
   9092   9090   9093   9095     1  0.0000000  3.3472000  1
   9092   9090   9093   9095     1  0.0000000  0.0000000  2
   9092   9090   9093   9095     1  180.0000771  0.3347200  3
   9097   9096   9099   9102     1  0.0000000  0.6508444  3
   9097   9096   9099   9100     1  0.0000000  0.6508444  3
   9097   9096   9099   9101     1  0.0000000  0.6508444  3
   9098   9096   9099   9102     1  0.0000000  0.6508444  3
   9098   9096   9099   9100     1  0.0000000  0.6508444  3
   9098   9096   9099   9101     1  0.0000000  0.6508444  3
   9100   9099   9102   9103     1  0.0000000  3.3472000  1
   9100   9099   9102   9103     1  0.0000000  0.0000000  2
   9100   9099   9102   9103     1  180.0000771  0.3347200  3
   9100   9099   9102   9104     1  0.0000000  3.3472000  1
   9100   9099   9102   9104     1  0.0000000  0.0000000  2
   9100   9099   9102   9104     1  180.0000771  0.3347200  3
   9101   9099   9102   9103     1  0.0000000  3.3472000  1
   9101   9099   9102   9103     1  0.0000000  0.0000000  2
   9101   9099   9102   9103     1  180.0000771  0.3347200  3
   9101   9099   9102   9104     1  0.0000000  3.3472000  1
   9101   9099   9102   9104     1  0.0000000  0.0000000  2
   9101   9099   9102   9104     1  180.0000771  0.3347200  3
   9106   9109   9112   9113     1  0.0000000  0.6508444  3
   9106   9109   9112   9114     1  0.0000000  0.6508444  3
   9107   9106   9109   9112     1  0.0000000  0.6508444  3
   9107   9106   9109   9110     1  0.0000000  0.6508444  3
   9107   9106   9109   9111     1  0.0000000  0.6508444  3
   9108   9106   9109   9112     1  0.0000000  0.6508444  3
   9108   9106   9109   9110     1  0.0000000  0.6508444  3
   9108   9106   9109   9111     1  0.0000000  0.6508444  3
   9110   9109   9106   9134     1  0.0000000  1.0460000  1
   9110   9109   9106   9134     1  0.0000000  0.0000000  3
   9110   9109   9112   9115     1  0.0000000  0.6508444  3
   9110   9109   9112   9113     1  0.0000000  0.6508444  3
   9110   9109   9112   9114     1  0.0000000  0.6508444  3
   9111   9109   9106   9134     1  0.0000000  1.0460000  1
   9111   9109   9106   9134     1  0.0000000  0.0000000  3
   9111   9109   9112   9115     1  0.0000000  0.6508444  3
   9111   9109   9112   9113     1  0.0000000  0.6508444  3
   9111   9109   9112   9114     1  0.0000000  0.6508444  3
   9112   9115   9116   9117     1  0.0000000  1.2552000  3
   9112   9115   9116   9118     1  0.0000000  1.2552000  3
   9112   9115   9125   9126     1  0.0000000  1.2552000  3
   9112   9115   9125   9127     1  0.0000000  1.2552000  3
   9113   9112   9115   9116     1  0.0000000  1.2552000  3
   9113   9112   9115   9125     1  0.0000000  1.2552000  3
   9114   9112   9115   9116     1  0.0000000  1.2552000  3
   9114   9112   9115   9125     1  0.0000000  1.2552000  3
   9115   9116   9119   9120     1  0.0000000  0.6508444  3
   9115   9116   9119   9121     1  0.0000000  0.6508444  3
   9115   9125   9128   9129     1  0.0000000  0.6508444  3
   9115   9125   9128   9130     1  0.0000000  0.6508444  3
   9116   9115   9125   9126     1  0.0000000  1.2552000  3
   9116   9115   9125   9127     1  0.0000000  1.2552000  3
   9117   9116   9115   9125     1  0.0000000  1.2552000  3
   9117   9116   9119   9122     1  0.0000000  0.6508444  3
   9117   9116   9119   9120     1  0.0000000  0.6508444  3
   9117   9116   9119   9121     1  0.0000000  0.6508444  3
   9118   9116   9115   9125     1  0.0000000  1.2552000  3
   9118   9116   9119   9122     1  0.0000000  0.6508444  3
   9118   9116   9119   9120     1  0.0000000  0.6508444  3
   9118   9116   9119   9121     1  0.0000000  0.6508444  3
   9120   9119   9122   9123     1  0.0000000  3.3472000  1
   9120   9119   9122   9123     1  0.0000000  0.0000000  2
   9120   9119   9122   9123     1  180.0000771  0.3347200  3
   9120   9119   9122   9124     1  0.0000000  3.3472000  1
   9120   9119   9122   9124     1  0.0000000  0.0000000  2
   9120   9119   9122   9124     1  180.0000771  0.3347200  3
   9121   9119   9122   9123     1  0.0000000  3.3472000  1
   9121   9119   9122   9123     1  0.0000000  0.0000000  2
   9121   9119   9122   9123     1  180.0000771  0.3347200  3
   9121   9119   9122   9124     1  0.0000000  3.3472000  1
   9121   9119   9122   9124     1  0.0000000  0.0000000  2
   9121   9119   9122   9124     1  180.0000771  0.3347200  3
   9126   9125   9128   9131     1  0.0000000  0.6508444  3
   9126   9125   9128   9129     1  0.0000000  0.6508444  3
   9126   9125   9128   9130     1  0.0000000  0.6508444  3
   9127   9125   9128   9131     1  0.0000000  0.6508444  3
   9127   9125   9128   9129     1  0.0000000  0.6508444  3
   9127   9125   9128   9130     1  0.0000000  0.6508444  3
   9129   9128   9131   9132     1  0.0000000  3.3472000  1
   9129   9128   9131   9132     1  0.0000000  0.0000000  2
   9129   9128   9131   9132     1  180.0000771  0.3347200  3
   9129   9128   9131   9133     1  0.0000000  3.3472000  1
   9129   9128   9131   9133     1  0.0000000  0.0000000  2
   9129   9128   9131   9133     1  180.0000771  0.3347200  3
   9130   9128   9131   9132     1  0.0000000  3.3472000  1
   9130   9128   9131   9132     1  0.0000000  0.0000000  2
   9130   9128   9131   9132     1  180.0000771  0.3347200  3
   9130   9128   9131   9133     1  0.0000000  3.3472000  1
   9130   9128   9131   9133     1  0.0000000  0.0000000  2
   9130   9128   9131   9133     1  180.0000771  0.3347200  3
   9135   9138   9141   9142     1  0.0000000  0.6508444  3
   9135   9138   9141   9143     1  0.0000000  0.6508444  3
   9136   9135   9138   9141     1  0.0000000  0.6508444  3
   9136   9135   9138   9139     1  0.0000000  0.6508444  3
   9136   9135   9138   9140     1  0.0000000  0.6508444  3
   9137   9135   9138   9141     1  0.0000000  0.6508444  3
   9137   9135   9138   9139     1  0.0000000  0.6508444  3
   9137   9135   9138   9140     1  0.0000000  0.6508444  3
   9139   9138   9141   9144     1  0.0000000  0.6508444  3
   9139   9138   9141   9142     1  0.0000000  0.6508444  3
   9139   9138   9141   9143     1  0.0000000  0.6508444  3
   9139   9138   9135   9163     1  0.0000000  1.0460000  1
   9139   9138   9135   9163     1  0.0000000  0.0000000  3
   9140   9138   9141   9144     1  0.0000000  0.6508444  3
   9140   9138   9141   9142     1  0.0000000  0.6508444  3
   9140   9138   9141   9143     1  0.0000000  0.6508444  3
   9140   9138   9135   9163     1  0.0000000  1.0460000  1
   9140   9138   9135   9163     1  0.0000000  0.0000000  3
   9141   9144   9145   9146     1  0.0000000  1.2552000  3
   9141   9144   9145   9147     1  0.0000000  1.2552000  3
   9141   9144   9154   9155     1  0.0000000  1.2552000  3
   9141   9144   9154   9156     1  0.0000000  1.2552000  3
   9142   9141   9144   9145     1  0.0000000  1.2552000  3
   9142   9141   9144   9154     1  0.0000000  1.2552000  3
   9143   9141   9144   9145     1  0.0000000  1.2552000  3
   9143   9141   9144   9154     1  0.0000000  1.2552000  3
   9144   9145   9148   9149     1  0.0000000  0.6508444  3
   9144   9145   9148   9150     1  0.0000000  0.6508444  3
   9144   9154   9157   9158     1  0.0000000  0.6508444  3
   9144   9154   9157   9159     1  0.0000000  0.6508444  3
   9145   9144   9154   9155     1  0.0000000  1.2552000  3
   9145   9144   9154   9156     1  0.0000000  1.2552000  3
   9146   9145   9148   9151     1  0.0000000  0.6508444  3
   9146   9145   9148   9149     1  0.0000000  0.6508444  3
   9146   9145   9148   9150     1  0.0000000  0.6508444  3
   9146   9145   9144   9154     1  0.0000000  1.2552000  3
   9147   9145   9148   9151     1  0.0000000  0.6508444  3
   9147   9145   9148   9149     1  0.0000000  0.6508444  3
   9147   9145   9148   9150     1  0.0000000  0.6508444  3
   9147   9145   9144   9154     1  0.0000000  1.2552000  3
   9149   9148   9151   9152     1  0.0000000  3.3472000  1
   9149   9148   9151   9152     1  0.0000000  0.0000000  2
   9149   9148   9151   9152     1  180.0000771  0.3347200  3
   9149   9148   9151   9153     1  0.0000000  3.3472000  1
   9149   9148   9151   9153     1  0.0000000  0.0000000  2
   9149   9148   9151   9153     1  180.0000771  0.3347200  3
   9150   9148   9151   9152     1  0.0000000  3.3472000  1
   9150   9148   9151   9152     1  0.0000000  0.0000000  2
   9150   9148   9151   9152     1  180.0000771  0.3347200  3
   9150   9148   9151   9153     1  0.0000000  3.3472000  1
   9150   9148   9151   9153     1  0.0000000  0.0000000  2
   9150   9148   9151   9153     1  180.0000771  0.3347200  3
   9155   9154   9157   9160     1  0.0000000  0.6508444  3
   9155   9154   9157   9158     1  0.0000000  0.6508444  3
   9155   9154   9157   9159     1  0.0000000  0.6508444  3
   9156   9154   9157   9160     1  0.0000000  0.6508444  3
   9156   9154   9157   9158     1  0.0000000  0.6508444  3
   9156   9154   9157   9159     1  0.0000000  0.6508444  3
   9158   9157   9160   9161     1  0.0000000  3.3472000  1
   9158   9157   9160   9161     1  0.0000000  0.0000000  2
   9158   9157   9160   9161     1  180.0000771  0.3347200  3
   9158   9157   9160   9162     1  0.0000000  3.3472000  1
   9158   9157   9160   9162     1  0.0000000  0.0000000  2
   9158   9157   9160   9162     1  180.0000771  0.3347200  3
   9159   9157   9160   9161     1  0.0000000  3.3472000  1
   9159   9157   9160   9161     1  0.0000000  0.0000000  2
   9159   9157   9160   9161     1  180.0000771  0.3347200  3
   9159   9157   9160   9162     1  0.0000000  3.3472000  1
   9159   9157   9160   9162     1  0.0000000  0.0000000  2
   9159   9157   9160   9162     1  180.0000771  0.3347200  3
   9164   9167   9170   9171     1  0.0000000  0.6508444  3
   9164   9167   9170   9172     1  0.0000000  0.6508444  3
   9165   9164   9167   9170     1  0.0000000  0.6508444  3
   9165   9164   9167   9168     1  0.0000000  0.6508444  3
   9165   9164   9167   9169     1  0.0000000  0.6508444  3
   9166   9164   9167   9170     1  0.0000000  0.6508444  3
   9166   9164   9167   9168     1  0.0000000  0.6508444  3
   9166   9164   9167   9169     1  0.0000000  0.6508444  3
   9168   9167   9164   9192     1  0.0000000  1.0460000  1
   9168   9167   9164   9192     1  0.0000000  0.0000000  3
   9168   9167   9170   9173     1  0.0000000  0.6508444  3
   9168   9167   9170   9171     1  0.0000000  0.6508444  3
   9168   9167   9170   9172     1  0.0000000  0.6508444  3
   9169   9167   9164   9192     1  0.0000000  1.0460000  1
   9169   9167   9164   9192     1  0.0000000  0.0000000  3
   9169   9167   9170   9173     1  0.0000000  0.6508444  3
   9169   9167   9170   9171     1  0.0000000  0.6508444  3
   9169   9167   9170   9172     1  0.0000000  0.6508444  3
   9170   9173   9174   9175     1  0.0000000  1.2552000  3
   9170   9173   9174   9176     1  0.0000000  1.2552000  3
   9170   9173   9183   9184     1  0.0000000  1.2552000  3
   9170   9173   9183   9185     1  0.0000000  1.2552000  3
   9171   9170   9173   9174     1  0.0000000  1.2552000  3
   9171   9170   9173   9183     1  0.0000000  1.2552000  3
   9172   9170   9173   9174     1  0.0000000  1.2552000  3
   9172   9170   9173   9183     1  0.0000000  1.2552000  3
   9173   9174   9177   9178     1  0.0000000  0.6508444  3
   9173   9174   9177   9179     1  0.0000000  0.6508444  3
   9173   9183   9186   9187     1  0.0000000  0.6508444  3
   9173   9183   9186   9188     1  0.0000000  0.6508444  3
   9174   9173   9183   9184     1  0.0000000  1.2552000  3
   9174   9173   9183   9185     1  0.0000000  1.2552000  3
   9175   9174   9173   9183     1  0.0000000  1.2552000  3
   9175   9174   9177   9180     1  0.0000000  0.6508444  3
   9175   9174   9177   9178     1  0.0000000  0.6508444  3
   9175   9174   9177   9179     1  0.0000000  0.6508444  3
   9176   9174   9173   9183     1  0.0000000  1.2552000  3
   9176   9174   9177   9180     1  0.0000000  0.6508444  3
   9176   9174   9177   9178     1  0.0000000  0.6508444  3
   9176   9174   9177   9179     1  0.0000000  0.6508444  3
   9178   9177   9180   9181     1  0.0000000  3.3472000  1
   9178   9177   9180   9181     1  0.0000000  0.0000000  2
   9178   9177   9180   9181     1  180.0000771  0.3347200  3
   9178   9177   9180   9182     1  0.0000000  3.3472000  1
   9178   9177   9180   9182     1  0.0000000  0.0000000  2
   9178   9177   9180   9182     1  180.0000771  0.3347200  3
   9179   9177   9180   9181     1  0.0000000  3.3472000  1
   9179   9177   9180   9181     1  0.0000000  0.0000000  2
   9179   9177   9180   9181     1  180.0000771  0.3347200  3
   9179   9177   9180   9182     1  0.0000000  3.3472000  1
   9179   9177   9180   9182     1  0.0000000  0.0000000  2
   9179   9177   9180   9182     1  180.0000771  0.3347200  3
   9184   9183   9186   9189     1  0.0000000  0.6508444  3
   9184   9183   9186   9187     1  0.0000000  0.6508444  3
   9184   9183   9186   9188     1  0.0000000  0.6508444  3
   9185   9183   9186   9189     1  0.0000000  0.6508444  3
   9185   9183   9186   9187     1  0.0000000  0.6508444  3
   9185   9183   9186   9188     1  0.0000000  0.6508444  3
   9187   9186   9189   9190     1  0.0000000  3.3472000  1
   9187   9186   9189   9190     1  0.0000000  0.0000000  2
   9187   9186   9189   9190     1  180.0000771  0.3347200  3
   9187   9186   9189   9191     1  0.0000000  3.3472000  1
   9187   9186   9189   9191     1  0.0000000  0.0000000  2
   9187   9186   9189   9191     1  180.0000771  0.3347200  3
   9188   9186   9189   9190     1  0.0000000  3.3472000  1
   9188   9186   9189   9190     1  0.0000000  0.0000000  2
   9188   9186   9189   9190     1  180.0000771  0.3347200  3
   9188   9186   9189   9191     1  0.0000000  3.3472000  1
   9188   9186   9189   9191     1  0.0000000  0.0000000  2
   9188   9186   9189   9191     1  180.0000771  0.3347200  3
   9193   9196   9199   9200     1  0.0000000  0.6508444  3
   9193   9196   9199   9201     1  0.0000000  0.6508444  3
   9194   9193   9196   9199     1  0.0000000  0.6508444  3
   9194   9193   9196   9197     1  0.0000000  0.6508444  3
   9194   9193   9196   9198     1  0.0000000  0.6508444  3
   9195   9193   9196   9199     1  0.0000000  0.6508444  3
   9195   9193   9196   9197     1  0.0000000  0.6508444  3
   9195   9193   9196   9198     1  0.0000000  0.6508444  3
   9197   9196   9199   9202     1  0.0000000  0.6508444  3
   9197   9196   9199   9200     1  0.0000000  0.6508444  3
   9197   9196   9199   9201     1  0.0000000  0.6508444  3
   9197   9196   9193   9221     1  0.0000000  1.0460000  1
   9197   9196   9193   9221     1  0.0000000  0.0000000  3
   9198   9196   9199   9202     1  0.0000000  0.6508444  3
   9198   9196   9199   9200     1  0.0000000  0.6508444  3
   9198   9196   9199   9201     1  0.0000000  0.6508444  3
   9198   9196   9193   9221     1  0.0000000  1.0460000  1
   9198   9196   9193   9221     1  0.0000000  0.0000000  3
   9199   9202   9203   9204     1  0.0000000  1.2552000  3
   9199   9202   9203   9205     1  0.0000000  1.2552000  3
   9199   9202   9212   9213     1  0.0000000  1.2552000  3
   9199   9202   9212   9214     1  0.0000000  1.2552000  3
   9200   9199   9202   9203     1  0.0000000  1.2552000  3
   9200   9199   9202   9212     1  0.0000000  1.2552000  3
   9201   9199   9202   9203     1  0.0000000  1.2552000  3
   9201   9199   9202   9212     1  0.0000000  1.2552000  3
   9202   9203   9206   9207     1  0.0000000  0.6508444  3
   9202   9203   9206   9208     1  0.0000000  0.6508444  3
   9202   9212   9215   9216     1  0.0000000  0.6508444  3
   9202   9212   9215   9217     1  0.0000000  0.6508444  3
   9203   9202   9212   9213     1  0.0000000  1.2552000  3
   9203   9202   9212   9214     1  0.0000000  1.2552000  3
   9204   9203   9206   9209     1  0.0000000  0.6508444  3
   9204   9203   9206   9207     1  0.0000000  0.6508444  3
   9204   9203   9206   9208     1  0.0000000  0.6508444  3
   9204   9203   9202   9212     1  0.0000000  1.2552000  3
   9205   9203   9206   9209     1  0.0000000  0.6508444  3
   9205   9203   9206   9207     1  0.0000000  0.6508444  3
   9205   9203   9206   9208     1  0.0000000  0.6508444  3
   9205   9203   9202   9212     1  0.0000000  1.2552000  3
   9207   9206   9209   9210     1  0.0000000  3.3472000  1
   9207   9206   9209   9210     1  0.0000000  0.0000000  2
   9207   9206   9209   9210     1  180.0000771  0.3347200  3
   9207   9206   9209   9211     1  0.0000000  3.3472000  1
   9207   9206   9209   9211     1  0.0000000  0.0000000  2
   9207   9206   9209   9211     1  180.0000771  0.3347200  3
   9208   9206   9209   9210     1  0.0000000  3.3472000  1
   9208   9206   9209   9210     1  0.0000000  0.0000000  2
   9208   9206   9209   9210     1  180.0000771  0.3347200  3
   9208   9206   9209   9211     1  0.0000000  3.3472000  1
   9208   9206   9209   9211     1  0.0000000  0.0000000  2
   9208   9206   9209   9211     1  180.0000771  0.3347200  3
   9213   9212   9215   9218     1  0.0000000  0.6508444  3
   9213   9212   9215   9216     1  0.0000000  0.6508444  3
   9213   9212   9215   9217     1  0.0000000  0.6508444  3
   9214   9212   9215   9218     1  0.0000000  0.6508444  3
   9214   9212   9215   9216     1  0.0000000  0.6508444  3
   9214   9212   9215   9217     1  0.0000000  0.6508444  3
   9216   9215   9218   9219     1  0.0000000  3.3472000  1
   9216   9215   9218   9219     1  0.0000000  0.0000000  2
   9216   9215   9218   9219     1  180.0000771  0.3347200  3
   9216   9215   9218   9220     1  0.0000000  3.3472000  1
   9216   9215   9218   9220     1  0.0000000  0.0000000  2
   9216   9215   9218   9220     1  180.0000771  0.3347200  3
   9217   9215   9218   9219     1  0.0000000  3.3472000  1
   9217   9215   9218   9219     1  0.0000000  0.0000000  2
   9217   9215   9218   9219     1  180.0000771  0.3347200  3
   9217   9215   9218   9220     1  0.0000000  3.3472000  1
   9217   9215   9218   9220     1  0.0000000  0.0000000  2
   9217   9215   9218   9220     1  180.0000771  0.3347200  3
   9222   9225   9228   9229     1  0.0000000  0.6508444  3
   9222   9225   9228   9230     1  0.0000000  0.6508444  3
   9223   9222   9225   9228     1  0.0000000  0.6508444  3
   9223   9222   9225   9226     1  0.0000000  0.6508444  3
   9223   9222   9225   9227     1  0.0000000  0.6508444  3
   9224   9222   9225   9228     1  0.0000000  0.6508444  3
   9224   9222   9225   9226     1  0.0000000  0.6508444  3
   9224   9222   9225   9227     1  0.0000000  0.6508444  3
   9226   9225   9222   9250     1  0.0000000  1.0460000  1
   9226   9225   9222   9250     1  0.0000000  0.0000000  3
   9226   9225   9228   9231     1  0.0000000  0.6508444  3
   9226   9225   9228   9229     1  0.0000000  0.6508444  3
   9226   9225   9228   9230     1  0.0000000  0.6508444  3
   9227   9225   9222   9250     1  0.0000000  1.0460000  1
   9227   9225   9222   9250     1  0.0000000  0.0000000  3
   9227   9225   9228   9231     1  0.0000000  0.6508444  3
   9227   9225   9228   9229     1  0.0000000  0.6508444  3
   9227   9225   9228   9230     1  0.0000000  0.6508444  3
   9228   9231   9232   9233     1  0.0000000  1.2552000  3
   9228   9231   9232   9234     1  0.0000000  1.2552000  3
   9228   9231   9241   9242     1  0.0000000  1.2552000  3
   9228   9231   9241   9243     1  0.0000000  1.2552000  3
   9229   9228   9231   9232     1  0.0000000  1.2552000  3
   9229   9228   9231   9241     1  0.0000000  1.2552000  3
   9230   9228   9231   9232     1  0.0000000  1.2552000  3
   9230   9228   9231   9241     1  0.0000000  1.2552000  3
   9231   9232   9235   9236     1  0.0000000  0.6508444  3
   9231   9232   9235   9237     1  0.0000000  0.6508444  3
   9231   9241   9244   9245     1  0.0000000  0.6508444  3
   9231   9241   9244   9246     1  0.0000000  0.6508444  3
   9232   9231   9241   9242     1  0.0000000  1.2552000  3
   9232   9231   9241   9243     1  0.0000000  1.2552000  3
   9233   9232   9231   9241     1  0.0000000  1.2552000  3
   9233   9232   9235   9238     1  0.0000000  0.6508444  3
   9233   9232   9235   9236     1  0.0000000  0.6508444  3
   9233   9232   9235   9237     1  0.0000000  0.6508444  3
   9234   9232   9231   9241     1  0.0000000  1.2552000  3
   9234   9232   9235   9238     1  0.0000000  0.6508444  3
   9234   9232   9235   9236     1  0.0000000  0.6508444  3
   9234   9232   9235   9237     1  0.0000000  0.6508444  3
   9236   9235   9238   9239     1  0.0000000  3.3472000  1
   9236   9235   9238   9239     1  0.0000000  0.0000000  2
   9236   9235   9238   9239     1  180.0000771  0.3347200  3
   9236   9235   9238   9240     1  0.0000000  3.3472000  1
   9236   9235   9238   9240     1  0.0000000  0.0000000  2
   9236   9235   9238   9240     1  180.0000771  0.3347200  3
   9237   9235   9238   9239     1  0.0000000  3.3472000  1
   9237   9235   9238   9239     1  0.0000000  0.0000000  2
   9237   9235   9238   9239     1  180.0000771  0.3347200  3
   9237   9235   9238   9240     1  0.0000000  3.3472000  1
   9237   9235   9238   9240     1  0.0000000  0.0000000  2
   9237   9235   9238   9240     1  180.0000771  0.3347200  3
   9242   9241   9244   9247     1  0.0000000  0.6508444  3
   9242   9241   9244   9245     1  0.0000000  0.6508444  3
   9242   9241   9244   9246     1  0.0000000  0.6508444  3
   9243   9241   9244   9247     1  0.0000000  0.6508444  3
   9243   9241   9244   9245     1  0.0000000  0.6508444  3
   9243   9241   9244   9246     1  0.0000000  0.6508444  3
   9245   9244   9247   9248     1  0.0000000  3.3472000  1
   9245   9244   9247   9248     1  0.0000000  0.0000000  2
   9245   9244   9247   9248     1  180.0000771  0.3347200  3
   9245   9244   9247   9249     1  0.0000000  3.3472000  1
   9245   9244   9247   9249     1  0.0000000  0.0000000  2
   9245   9244   9247   9249     1  180.0000771  0.3347200  3
   9246   9244   9247   9248     1  0.0000000  3.3472000  1
   9246   9244   9247   9248     1  0.0000000  0.0000000  2
   9246   9244   9247   9248     1  180.0000771  0.3347200  3
   9246   9244   9247   9249     1  0.0000000  3.3472000  1
   9246   9244   9247   9249     1  0.0000000  0.0000000  2
   9246   9244   9247   9249     1  180.0000771  0.3347200  3
   9251   9254   9257   9258     1  0.0000000  0.6508444  3
   9251   9254   9257   9259     1  0.0000000  0.6508444  3
   9252   9251   9254   9257     1  0.0000000  0.6508444  3
   9252   9251   9254   9255     1  0.0000000  0.6508444  3
   9252   9251   9254   9256     1  0.0000000  0.6508444  3
   9253   9251   9254   9257     1  0.0000000  0.6508444  3
   9253   9251   9254   9255     1  0.0000000  0.6508444  3
   9253   9251   9254   9256     1  0.0000000  0.6508444  3
   9255   9254   9257   9260     1  0.0000000  0.6508444  3
   9255   9254   9257   9258     1  0.0000000  0.6508444  3
   9255   9254   9257   9259     1  0.0000000  0.6508444  3
   9255   9254   9251   9279     1  0.0000000  1.0460000  1
   9255   9254   9251   9279     1  0.0000000  0.0000000  3
   9256   9254   9257   9260     1  0.0000000  0.6508444  3
   9256   9254   9257   9258     1  0.0000000  0.6508444  3
   9256   9254   9257   9259     1  0.0000000  0.6508444  3
   9256   9254   9251   9279     1  0.0000000  1.0460000  1
   9256   9254   9251   9279     1  0.0000000  0.0000000  3
   9257   9260   9261   9262     1  0.0000000  1.2552000  3
   9257   9260   9261   9263     1  0.0000000  1.2552000  3
   9257   9260   9270   9271     1  0.0000000  1.2552000  3
   9257   9260   9270   9272     1  0.0000000  1.2552000  3
   9258   9257   9260   9261     1  0.0000000  1.2552000  3
   9258   9257   9260   9270     1  0.0000000  1.2552000  3
   9259   9257   9260   9261     1  0.0000000  1.2552000  3
   9259   9257   9260   9270     1  0.0000000  1.2552000  3
   9260   9261   9264   9265     1  0.0000000  0.6508444  3
   9260   9261   9264   9266     1  0.0000000  0.6508444  3
   9260   9270   9273   9274     1  0.0000000  0.6508444  3
   9260   9270   9273   9275     1  0.0000000  0.6508444  3
   9261   9260   9270   9271     1  0.0000000  1.2552000  3
   9261   9260   9270   9272     1  0.0000000  1.2552000  3
   9262   9261   9264   9267     1  0.0000000  0.6508444  3
   9262   9261   9264   9265     1  0.0000000  0.6508444  3
   9262   9261   9264   9266     1  0.0000000  0.6508444  3
   9262   9261   9260   9270     1  0.0000000  1.2552000  3
   9263   9261   9264   9267     1  0.0000000  0.6508444  3
   9263   9261   9264   9265     1  0.0000000  0.6508444  3
   9263   9261   9264   9266     1  0.0000000  0.6508444  3
   9263   9261   9260   9270     1  0.0000000  1.2552000  3
   9265   9264   9267   9268     1  0.0000000  3.3472000  1
   9265   9264   9267   9268     1  0.0000000  0.0000000  2
   9265   9264   9267   9268     1  180.0000771  0.3347200  3
   9265   9264   9267   9269     1  0.0000000  3.3472000  1
   9265   9264   9267   9269     1  0.0000000  0.0000000  2
   9265   9264   9267   9269     1  180.0000771  0.3347200  3
   9266   9264   9267   9268     1  0.0000000  3.3472000  1
   9266   9264   9267   9268     1  0.0000000  0.0000000  2
   9266   9264   9267   9268     1  180.0000771  0.3347200  3
   9266   9264   9267   9269     1  0.0000000  3.3472000  1
   9266   9264   9267   9269     1  0.0000000  0.0000000  2
   9266   9264   9267   9269     1  180.0000771  0.3347200  3
   9271   9270   9273   9276     1  0.0000000  0.6508444  3
   9271   9270   9273   9274     1  0.0000000  0.6508444  3
   9271   9270   9273   9275     1  0.0000000  0.6508444  3
   9272   9270   9273   9276     1  0.0000000  0.6508444  3
   9272   9270   9273   9274     1  0.0000000  0.6508444  3
   9272   9270   9273   9275     1  0.0000000  0.6508444  3
   9274   9273   9276   9277     1  0.0000000  3.3472000  1
   9274   9273   9276   9277     1  0.0000000  0.0000000  2
   9274   9273   9276   9277     1  180.0000771  0.3347200  3
   9274   9273   9276   9278     1  0.0000000  3.3472000  1
   9274   9273   9276   9278     1  0.0000000  0.0000000  2
   9274   9273   9276   9278     1  180.0000771  0.3347200  3
   9275   9273   9276   9277     1  0.0000000  3.3472000  1
   9275   9273   9276   9277     1  0.0000000  0.0000000  2
   9275   9273   9276   9277     1  180.0000771  0.3347200  3
   9275   9273   9276   9278     1  0.0000000  3.3472000  1
   9275   9273   9276   9278     1  0.0000000  0.0000000  2
   9275   9273   9276   9278     1  180.0000771  0.3347200  3
   9280   9283   9286   9287     1  0.0000000  0.6508444  3
   9280   9283   9286   9288     1  0.0000000  0.6508444  3
   9281   9280   9283   9286     1  0.0000000  0.6508444  3
   9281   9280   9283   9284     1  0.0000000  0.6508444  3
   9281   9280   9283   9285     1  0.0000000  0.6508444  3
   9282   9280   9283   9286     1  0.0000000  0.6508444  3
   9282   9280   9283   9284     1  0.0000000  0.6508444  3
   9282   9280   9283   9285     1  0.0000000  0.6508444  3
   9284   9283   9280   9308     1  0.0000000  1.0460000  1
   9284   9283   9280   9308     1  0.0000000  0.0000000  3
   9284   9283   9286   9289     1  0.0000000  0.6508444  3
   9284   9283   9286   9287     1  0.0000000  0.6508444  3
   9284   9283   9286   9288     1  0.0000000  0.6508444  3
   9285   9283   9280   9308     1  0.0000000  1.0460000  1
   9285   9283   9280   9308     1  0.0000000  0.0000000  3
   9285   9283   9286   9289     1  0.0000000  0.6508444  3
   9285   9283   9286   9287     1  0.0000000  0.6508444  3
   9285   9283   9286   9288     1  0.0000000  0.6508444  3
   9286   9289   9290   9291     1  0.0000000  1.2552000  3
   9286   9289   9290   9292     1  0.0000000  1.2552000  3
   9286   9289   9299   9300     1  0.0000000  1.2552000  3
   9286   9289   9299   9301     1  0.0000000  1.2552000  3
   9287   9286   9289   9290     1  0.0000000  1.2552000  3
   9287   9286   9289   9299     1  0.0000000  1.2552000  3
   9288   9286   9289   9290     1  0.0000000  1.2552000  3
   9288   9286   9289   9299     1  0.0000000  1.2552000  3
   9289   9290   9293   9294     1  0.0000000  0.6508444  3
   9289   9290   9293   9295     1  0.0000000  0.6508444  3
   9289   9299   9302   9303     1  0.0000000  0.6508444  3
   9289   9299   9302   9304     1  0.0000000  0.6508444  3
   9290   9289   9299   9300     1  0.0000000  1.2552000  3
   9290   9289   9299   9301     1  0.0000000  1.2552000  3
   9291   9290   9289   9299     1  0.0000000  1.2552000  3
   9291   9290   9293   9296     1  0.0000000  0.6508444  3
   9291   9290   9293   9294     1  0.0000000  0.6508444  3
   9291   9290   9293   9295     1  0.0000000  0.6508444  3
   9292   9290   9289   9299     1  0.0000000  1.2552000  3
   9292   9290   9293   9296     1  0.0000000  0.6508444  3
   9292   9290   9293   9294     1  0.0000000  0.6508444  3
   9292   9290   9293   9295     1  0.0000000  0.6508444  3
   9294   9293   9296   9297     1  0.0000000  3.3472000  1
   9294   9293   9296   9297     1  0.0000000  0.0000000  2
   9294   9293   9296   9297     1  180.0000771  0.3347200  3
   9294   9293   9296   9298     1  0.0000000  3.3472000  1
   9294   9293   9296   9298     1  0.0000000  0.0000000  2
   9294   9293   9296   9298     1  180.0000771  0.3347200  3
   9295   9293   9296   9297     1  0.0000000  3.3472000  1
   9295   9293   9296   9297     1  0.0000000  0.0000000  2
   9295   9293   9296   9297     1  180.0000771  0.3347200  3
   9295   9293   9296   9298     1  0.0000000  3.3472000  1
   9295   9293   9296   9298     1  0.0000000  0.0000000  2
   9295   9293   9296   9298     1  180.0000771  0.3347200  3
   9300   9299   9302   9305     1  0.0000000  0.6508444  3
   9300   9299   9302   9303     1  0.0000000  0.6508444  3
   9300   9299   9302   9304     1  0.0000000  0.6508444  3
   9301   9299   9302   9305     1  0.0000000  0.6508444  3
   9301   9299   9302   9303     1  0.0000000  0.6508444  3
   9301   9299   9302   9304     1  0.0000000  0.6508444  3
   9303   9302   9305   9306     1  0.0000000  3.3472000  1
   9303   9302   9305   9306     1  0.0000000  0.0000000  2
   9303   9302   9305   9306     1  180.0000771  0.3347200  3
   9303   9302   9305   9307     1  0.0000000  3.3472000  1
   9303   9302   9305   9307     1  0.0000000  0.0000000  2
   9303   9302   9305   9307     1  180.0000771  0.3347200  3
   9304   9302   9305   9306     1  0.0000000  3.3472000  1
   9304   9302   9305   9306     1  0.0000000  0.0000000  2
   9304   9302   9305   9306     1  180.0000771  0.3347200  3
   9304   9302   9305   9307     1  0.0000000  3.3472000  1
   9304   9302   9305   9307     1  0.0000000  0.0000000  2
   9304   9302   9305   9307     1  180.0000771  0.3347200  3
   9309   9312   9315   9316     1  0.0000000  0.6508444  3
   9309   9312   9315   9317     1  0.0000000  0.6508444  3
   9310   9309   9312   9315     1  0.0000000  0.6508444  3
   9310   9309   9312   9313     1  0.0000000  0.6508444  3
   9310   9309   9312   9314     1  0.0000000  0.6508444  3
   9311   9309   9312   9315     1  0.0000000  0.6508444  3
   9311   9309   9312   9313     1  0.0000000  0.6508444  3
   9311   9309   9312   9314     1  0.0000000  0.6508444  3
   9313   9312   9315   9318     1  0.0000000  0.6508444  3
   9313   9312   9315   9316     1  0.0000000  0.6508444  3
   9313   9312   9315   9317     1  0.0000000  0.6508444  3
   9313   9312   9309   9337     1  0.0000000  1.0460000  1
   9313   9312   9309   9337     1  0.0000000  0.0000000  3
   9314   9312   9315   9318     1  0.0000000  0.6508444  3
   9314   9312   9315   9316     1  0.0000000  0.6508444  3
   9314   9312   9315   9317     1  0.0000000  0.6508444  3
   9314   9312   9309   9337     1  0.0000000  1.0460000  1
   9314   9312   9309   9337     1  0.0000000  0.0000000  3
   9315   9318   9319   9320     1  0.0000000  1.2552000  3
   9315   9318   9319   9321     1  0.0000000  1.2552000  3
   9315   9318   9328   9329     1  0.0000000  1.2552000  3
   9315   9318   9328   9330     1  0.0000000  1.2552000  3
   9316   9315   9318   9319     1  0.0000000  1.2552000  3
   9316   9315   9318   9328     1  0.0000000  1.2552000  3
   9317   9315   9318   9319     1  0.0000000  1.2552000  3
   9317   9315   9318   9328     1  0.0000000  1.2552000  3
   9318   9319   9322   9323     1  0.0000000  0.6508444  3
   9318   9319   9322   9324     1  0.0000000  0.6508444  3
   9318   9328   9331   9332     1  0.0000000  0.6508444  3
   9318   9328   9331   9333     1  0.0000000  0.6508444  3
   9319   9318   9328   9329     1  0.0000000  1.2552000  3
   9319   9318   9328   9330     1  0.0000000  1.2552000  3
   9320   9319   9322   9325     1  0.0000000  0.6508444  3
   9320   9319   9322   9323     1  0.0000000  0.6508444  3
   9320   9319   9322   9324     1  0.0000000  0.6508444  3
   9320   9319   9318   9328     1  0.0000000  1.2552000  3
   9321   9319   9322   9325     1  0.0000000  0.6508444  3
   9321   9319   9322   9323     1  0.0000000  0.6508444  3
   9321   9319   9322   9324     1  0.0000000  0.6508444  3
   9321   9319   9318   9328     1  0.0000000  1.2552000  3
   9323   9322   9325   9326     1  0.0000000  3.3472000  1
   9323   9322   9325   9326     1  0.0000000  0.0000000  2
   9323   9322   9325   9326     1  180.0000771  0.3347200  3
   9323   9322   9325   9327     1  0.0000000  3.3472000  1
   9323   9322   9325   9327     1  0.0000000  0.0000000  2
   9323   9322   9325   9327     1  180.0000771  0.3347200  3
   9324   9322   9325   9326     1  0.0000000  3.3472000  1
   9324   9322   9325   9326     1  0.0000000  0.0000000  2
   9324   9322   9325   9326     1  180.0000771  0.3347200  3
   9324   9322   9325   9327     1  0.0000000  3.3472000  1
   9324   9322   9325   9327     1  0.0000000  0.0000000  2
   9324   9322   9325   9327     1  180.0000771  0.3347200  3
   9329   9328   9331   9334     1  0.0000000  0.6508444  3
   9329   9328   9331   9332     1  0.0000000  0.6508444  3
   9329   9328   9331   9333     1  0.0000000  0.6508444  3
   9330   9328   9331   9334     1  0.0000000  0.6508444  3
   9330   9328   9331   9332     1  0.0000000  0.6508444  3
   9330   9328   9331   9333     1  0.0000000  0.6508444  3
   9332   9331   9334   9335     1  0.0000000  3.3472000  1
   9332   9331   9334   9335     1  0.0000000  0.0000000  2
   9332   9331   9334   9335     1  180.0000771  0.3347200  3
   9332   9331   9334   9336     1  0.0000000  3.3472000  1
   9332   9331   9334   9336     1  0.0000000  0.0000000  2
   9332   9331   9334   9336     1  180.0000771  0.3347200  3
   9333   9331   9334   9335     1  0.0000000  3.3472000  1
   9333   9331   9334   9335     1  0.0000000  0.0000000  2
   9333   9331   9334   9335     1  180.0000771  0.3347200  3
   9333   9331   9334   9336     1  0.0000000  3.3472000  1
   9333   9331   9334   9336     1  0.0000000  0.0000000  2
   9333   9331   9334   9336     1  180.0000771  0.3347200  3
   9338   9341   9344   9345     1  0.0000000  0.6508444  3
   9338   9341   9344   9346     1  0.0000000  0.6508444  3
   9339   9338   9341   9344     1  0.0000000  0.6508444  3
   9339   9338   9341   9342     1  0.0000000  0.6508444  3
   9339   9338   9341   9343     1  0.0000000  0.6508444  3
   9340   9338   9341   9344     1  0.0000000  0.6508444  3
   9340   9338   9341   9342     1  0.0000000  0.6508444  3
   9340   9338   9341   9343     1  0.0000000  0.6508444  3
   9342   9341   9338   9366     1  0.0000000  1.0460000  1
   9342   9341   9338   9366     1  0.0000000  0.0000000  3
   9342   9341   9344   9347     1  0.0000000  0.6508444  3
   9342   9341   9344   9345     1  0.0000000  0.6508444  3
   9342   9341   9344   9346     1  0.0000000  0.6508444  3
   9343   9341   9338   9366     1  0.0000000  1.0460000  1
   9343   9341   9338   9366     1  0.0000000  0.0000000  3
   9343   9341   9344   9347     1  0.0000000  0.6508444  3
   9343   9341   9344   9345     1  0.0000000  0.6508444  3
   9343   9341   9344   9346     1  0.0000000  0.6508444  3
   9344   9347   9348   9349     1  0.0000000  1.2552000  3
   9344   9347   9348   9350     1  0.0000000  1.2552000  3
   9344   9347   9357   9358     1  0.0000000  1.2552000  3
   9344   9347   9357   9359     1  0.0000000  1.2552000  3
   9345   9344   9347   9348     1  0.0000000  1.2552000  3
   9345   9344   9347   9357     1  0.0000000  1.2552000  3
   9346   9344   9347   9348     1  0.0000000  1.2552000  3
   9346   9344   9347   9357     1  0.0000000  1.2552000  3
   9347   9348   9351   9352     1  0.0000000  0.6508444  3
   9347   9348   9351   9353     1  0.0000000  0.6508444  3
   9347   9357   9360   9361     1  0.0000000  0.6508444  3
   9347   9357   9360   9362     1  0.0000000  0.6508444  3
   9348   9347   9357   9358     1  0.0000000  1.2552000  3
   9348   9347   9357   9359     1  0.0000000  1.2552000  3
   9349   9348   9347   9357     1  0.0000000  1.2552000  3
   9349   9348   9351   9354     1  0.0000000  0.6508444  3
   9349   9348   9351   9352     1  0.0000000  0.6508444  3
   9349   9348   9351   9353     1  0.0000000  0.6508444  3
   9350   9348   9347   9357     1  0.0000000  1.2552000  3
   9350   9348   9351   9354     1  0.0000000  0.6508444  3
   9350   9348   9351   9352     1  0.0000000  0.6508444  3
   9350   9348   9351   9353     1  0.0000000  0.6508444  3
   9352   9351   9354   9355     1  0.0000000  3.3472000  1
   9352   9351   9354   9355     1  0.0000000  0.0000000  2
   9352   9351   9354   9355     1  180.0000771  0.3347200  3
   9352   9351   9354   9356     1  0.0000000  3.3472000  1
   9352   9351   9354   9356     1  0.0000000  0.0000000  2
   9352   9351   9354   9356     1  180.0000771  0.3347200  3
   9353   9351   9354   9355     1  0.0000000  3.3472000  1
   9353   9351   9354   9355     1  0.0000000  0.0000000  2
   9353   9351   9354   9355     1  180.0000771  0.3347200  3
   9353   9351   9354   9356     1  0.0000000  3.3472000  1
   9353   9351   9354   9356     1  0.0000000  0.0000000  2
   9353   9351   9354   9356     1  180.0000771  0.3347200  3
   9358   9357   9360   9363     1  0.0000000  0.6508444  3
   9358   9357   9360   9361     1  0.0000000  0.6508444  3
   9358   9357   9360   9362     1  0.0000000  0.6508444  3
   9359   9357   9360   9363     1  0.0000000  0.6508444  3
   9359   9357   9360   9361     1  0.0000000  0.6508444  3
   9359   9357   9360   9362     1  0.0000000  0.6508444  3
   9361   9360   9363   9364     1  0.0000000  3.3472000  1
   9361   9360   9363   9364     1  0.0000000  0.0000000  2
   9361   9360   9363   9364     1  180.0000771  0.3347200  3
   9361   9360   9363   9365     1  0.0000000  3.3472000  1
   9361   9360   9363   9365     1  0.0000000  0.0000000  2
   9361   9360   9363   9365     1  180.0000771  0.3347200  3
   9362   9360   9363   9364     1  0.0000000  3.3472000  1
   9362   9360   9363   9364     1  0.0000000  0.0000000  2
   9362   9360   9363   9364     1  180.0000771  0.3347200  3
   9362   9360   9363   9365     1  0.0000000  3.3472000  1
   9362   9360   9363   9365     1  0.0000000  0.0000000  2
   9362   9360   9363   9365     1  180.0000771  0.3347200  3
   9367   9370   9373   9374     1  0.0000000  0.6508444  3
   9367   9370   9373   9375     1  0.0000000  0.6508444  3
   9368   9367   9370   9373     1  0.0000000  0.6508444  3
   9368   9367   9370   9371     1  0.0000000  0.6508444  3
   9368   9367   9370   9372     1  0.0000000  0.6508444  3
   9369   9367   9370   9373     1  0.0000000  0.6508444  3
   9369   9367   9370   9371     1  0.0000000  0.6508444  3
   9369   9367   9370   9372     1  0.0000000  0.6508444  3
   9371   9370   9373   9376     1  0.0000000  0.6508444  3
   9371   9370   9373   9374     1  0.0000000  0.6508444  3
   9371   9370   9373   9375     1  0.0000000  0.6508444  3
   9371   9370   9367   9395     1  0.0000000  1.0460000  1
   9371   9370   9367   9395     1  0.0000000  0.0000000  3
   9372   9370   9373   9376     1  0.0000000  0.6508444  3
   9372   9370   9373   9374     1  0.0000000  0.6508444  3
   9372   9370   9373   9375     1  0.0000000  0.6508444  3
   9372   9370   9367   9395     1  0.0000000  1.0460000  1
   9372   9370   9367   9395     1  0.0000000  0.0000000  3
   9373   9376   9377   9378     1  0.0000000  1.2552000  3
   9373   9376   9377   9379     1  0.0000000  1.2552000  3
   9373   9376   9386   9387     1  0.0000000  1.2552000  3
   9373   9376   9386   9388     1  0.0000000  1.2552000  3
   9374   9373   9376   9377     1  0.0000000  1.2552000  3
   9374   9373   9376   9386     1  0.0000000  1.2552000  3
   9375   9373   9376   9377     1  0.0000000  1.2552000  3
   9375   9373   9376   9386     1  0.0000000  1.2552000  3
   9376   9377   9380   9381     1  0.0000000  0.6508444  3
   9376   9377   9380   9382     1  0.0000000  0.6508444  3
   9376   9386   9389   9390     1  0.0000000  0.6508444  3
   9376   9386   9389   9391     1  0.0000000  0.6508444  3
   9377   9376   9386   9387     1  0.0000000  1.2552000  3
   9377   9376   9386   9388     1  0.0000000  1.2552000  3
   9378   9377   9380   9383     1  0.0000000  0.6508444  3
   9378   9377   9380   9381     1  0.0000000  0.6508444  3
   9378   9377   9380   9382     1  0.0000000  0.6508444  3
   9378   9377   9376   9386     1  0.0000000  1.2552000  3
   9379   9377   9380   9383     1  0.0000000  0.6508444  3
   9379   9377   9380   9381     1  0.0000000  0.6508444  3
   9379   9377   9380   9382     1  0.0000000  0.6508444  3
   9379   9377   9376   9386     1  0.0000000  1.2552000  3
   9381   9380   9383   9384     1  0.0000000  3.3472000  1
   9381   9380   9383   9384     1  0.0000000  0.0000000  2
   9381   9380   9383   9384     1  180.0000771  0.3347200  3
   9381   9380   9383   9385     1  0.0000000  3.3472000  1
   9381   9380   9383   9385     1  0.0000000  0.0000000  2
   9381   9380   9383   9385     1  180.0000771  0.3347200  3
   9382   9380   9383   9384     1  0.0000000  3.3472000  1
   9382   9380   9383   9384     1  0.0000000  0.0000000  2
   9382   9380   9383   9384     1  180.0000771  0.3347200  3
   9382   9380   9383   9385     1  0.0000000  3.3472000  1
   9382   9380   9383   9385     1  0.0000000  0.0000000  2
   9382   9380   9383   9385     1  180.0000771  0.3347200  3
   9387   9386   9389   9392     1  0.0000000  0.6508444  3
   9387   9386   9389   9390     1  0.0000000  0.6508444  3
   9387   9386   9389   9391     1  0.0000000  0.6508444  3
   9388   9386   9389   9392     1  0.0000000  0.6508444  3
   9388   9386   9389   9390     1  0.0000000  0.6508444  3
   9388   9386   9389   9391     1  0.0000000  0.6508444  3
   9390   9389   9392   9393     1  0.0000000  3.3472000  1
   9390   9389   9392   9393     1  0.0000000  0.0000000  2
   9390   9389   9392   9393     1  180.0000771  0.3347200  3
   9390   9389   9392   9394     1  0.0000000  3.3472000  1
   9390   9389   9392   9394     1  0.0000000  0.0000000  2
   9390   9389   9392   9394     1  180.0000771  0.3347200  3
   9391   9389   9392   9393     1  0.0000000  3.3472000  1
   9391   9389   9392   9393     1  0.0000000  0.0000000  2
   9391   9389   9392   9393     1  180.0000771  0.3347200  3
   9391   9389   9392   9394     1  0.0000000  3.3472000  1
   9391   9389   9392   9394     1  0.0000000  0.0000000  2
   9391   9389   9392   9394     1  180.0000771  0.3347200  3
   9396   9399   9402   9403     1  0.0000000  0.6508444  3
   9396   9399   9402   9404     1  0.0000000  0.6508444  3
   9397   9396   9399   9402     1  0.0000000  0.6508444  3
   9397   9396   9399   9400     1  0.0000000  0.6508444  3
   9397   9396   9399   9401     1  0.0000000  0.6508444  3
   9398   9396   9399   9402     1  0.0000000  0.6508444  3
   9398   9396   9399   9400     1  0.0000000  0.6508444  3
   9398   9396   9399   9401     1  0.0000000  0.6508444  3
   9400   9399   9396   9424     1  0.0000000  1.0460000  1
   9400   9399   9396   9424     1  0.0000000  0.0000000  3
   9400   9399   9402   9405     1  0.0000000  0.6508444  3
   9400   9399   9402   9403     1  0.0000000  0.6508444  3
   9400   9399   9402   9404     1  0.0000000  0.6508444  3
   9401   9399   9396   9424     1  0.0000000  1.0460000  1
   9401   9399   9396   9424     1  0.0000000  0.0000000  3
   9401   9399   9402   9405     1  0.0000000  0.6508444  3
   9401   9399   9402   9403     1  0.0000000  0.6508444  3
   9401   9399   9402   9404     1  0.0000000  0.6508444  3
   9402   9405   9406   9407     1  0.0000000  1.2552000  3
   9402   9405   9406   9408     1  0.0000000  1.2552000  3
   9402   9405   9415   9416     1  0.0000000  1.2552000  3
   9402   9405   9415   9417     1  0.0000000  1.2552000  3
   9403   9402   9405   9406     1  0.0000000  1.2552000  3
   9403   9402   9405   9415     1  0.0000000  1.2552000  3
   9404   9402   9405   9406     1  0.0000000  1.2552000  3
   9404   9402   9405   9415     1  0.0000000  1.2552000  3
   9405   9406   9409   9410     1  0.0000000  0.6508444  3
   9405   9406   9409   9411     1  0.0000000  0.6508444  3
   9405   9415   9418   9419     1  0.0000000  0.6508444  3
   9405   9415   9418   9420     1  0.0000000  0.6508444  3
   9406   9405   9415   9416     1  0.0000000  1.2552000  3
   9406   9405   9415   9417     1  0.0000000  1.2552000  3
   9407   9406   9405   9415     1  0.0000000  1.2552000  3
   9407   9406   9409   9412     1  0.0000000  0.6508444  3
   9407   9406   9409   9410     1  0.0000000  0.6508444  3
   9407   9406   9409   9411     1  0.0000000  0.6508444  3
   9408   9406   9405   9415     1  0.0000000  1.2552000  3
   9408   9406   9409   9412     1  0.0000000  0.6508444  3
   9408   9406   9409   9410     1  0.0000000  0.6508444  3
   9408   9406   9409   9411     1  0.0000000  0.6508444  3
   9410   9409   9412   9413     1  0.0000000  3.3472000  1
   9410   9409   9412   9413     1  0.0000000  0.0000000  2
   9410   9409   9412   9413     1  180.0000771  0.3347200  3
   9410   9409   9412   9414     1  0.0000000  3.3472000  1
   9410   9409   9412   9414     1  0.0000000  0.0000000  2
   9410   9409   9412   9414     1  180.0000771  0.3347200  3
   9411   9409   9412   9413     1  0.0000000  3.3472000  1
   9411   9409   9412   9413     1  0.0000000  0.0000000  2
   9411   9409   9412   9413     1  180.0000771  0.3347200  3
   9411   9409   9412   9414     1  0.0000000  3.3472000  1
   9411   9409   9412   9414     1  0.0000000  0.0000000  2
   9411   9409   9412   9414     1  180.0000771  0.3347200  3
   9416   9415   9418   9421     1  0.0000000  0.6508444  3
   9416   9415   9418   9419     1  0.0000000  0.6508444  3
   9416   9415   9418   9420     1  0.0000000  0.6508444  3
   9417   9415   9418   9421     1  0.0000000  0.6508444  3
   9417   9415   9418   9419     1  0.0000000  0.6508444  3
   9417   9415   9418   9420     1  0.0000000  0.6508444  3
   9419   9418   9421   9422     1  0.0000000  3.3472000  1
   9419   9418   9421   9422     1  0.0000000  0.0000000  2
   9419   9418   9421   9422     1  180.0000771  0.3347200  3
   9419   9418   9421   9423     1  0.0000000  3.3472000  1
   9419   9418   9421   9423     1  0.0000000  0.0000000  2
   9419   9418   9421   9423     1  180.0000771  0.3347200  3
   9420   9418   9421   9422     1  0.0000000  3.3472000  1
   9420   9418   9421   9422     1  0.0000000  0.0000000  2
   9420   9418   9421   9422     1  180.0000771  0.3347200  3
   9420   9418   9421   9423     1  0.0000000  3.3472000  1
   9420   9418   9421   9423     1  0.0000000  0.0000000  2
   9420   9418   9421   9423     1  180.0000771  0.3347200  3
   9425   9428   9431   9432     1  0.0000000  0.6508444  3
   9425   9428   9431   9433     1  0.0000000  0.6508444  3
   9426   9425   9428   9431     1  0.0000000  0.6508444  3
   9426   9425   9428   9429     1  0.0000000  0.6508444  3
   9426   9425   9428   9430     1  0.0000000  0.6508444  3
   9427   9425   9428   9431     1  0.0000000  0.6508444  3
   9427   9425   9428   9429     1  0.0000000  0.6508444  3
   9427   9425   9428   9430     1  0.0000000  0.6508444  3
   9429   9428   9431   9434     1  0.0000000  0.6508444  3
   9429   9428   9431   9432     1  0.0000000  0.6508444  3
   9429   9428   9431   9433     1  0.0000000  0.6508444  3
   9429   9428   9425   9453     1  0.0000000  1.0460000  1
   9429   9428   9425   9453     1  0.0000000  0.0000000  3
   9430   9428   9431   9434     1  0.0000000  0.6508444  3
   9430   9428   9431   9432     1  0.0000000  0.6508444  3
   9430   9428   9431   9433     1  0.0000000  0.6508444  3
   9430   9428   9425   9453     1  0.0000000  1.0460000  1
   9430   9428   9425   9453     1  0.0000000  0.0000000  3
   9431   9434   9435   9436     1  0.0000000  1.2552000  3
   9431   9434   9435   9437     1  0.0000000  1.2552000  3
   9431   9434   9444   9445     1  0.0000000  1.2552000  3
   9431   9434   9444   9446     1  0.0000000  1.2552000  3
   9432   9431   9434   9435     1  0.0000000  1.2552000  3
   9432   9431   9434   9444     1  0.0000000  1.2552000  3
   9433   9431   9434   9435     1  0.0000000  1.2552000  3
   9433   9431   9434   9444     1  0.0000000  1.2552000  3
   9434   9435   9438   9439     1  0.0000000  0.6508444  3
   9434   9435   9438   9440     1  0.0000000  0.6508444  3
   9434   9444   9447   9448     1  0.0000000  0.6508444  3
   9434   9444   9447   9449     1  0.0000000  0.6508444  3
   9435   9434   9444   9445     1  0.0000000  1.2552000  3
   9435   9434   9444   9446     1  0.0000000  1.2552000  3
   9436   9435   9438   9441     1  0.0000000  0.6508444  3
   9436   9435   9438   9439     1  0.0000000  0.6508444  3
   9436   9435   9438   9440     1  0.0000000  0.6508444  3
   9436   9435   9434   9444     1  0.0000000  1.2552000  3
   9437   9435   9438   9441     1  0.0000000  0.6508444  3
   9437   9435   9438   9439     1  0.0000000  0.6508444  3
   9437   9435   9438   9440     1  0.0000000  0.6508444  3
   9437   9435   9434   9444     1  0.0000000  1.2552000  3
   9439   9438   9441   9442     1  0.0000000  3.3472000  1
   9439   9438   9441   9442     1  0.0000000  0.0000000  2
   9439   9438   9441   9442     1  180.0000771  0.3347200  3
   9439   9438   9441   9443     1  0.0000000  3.3472000  1
   9439   9438   9441   9443     1  0.0000000  0.0000000  2
   9439   9438   9441   9443     1  180.0000771  0.3347200  3
   9440   9438   9441   9442     1  0.0000000  3.3472000  1
   9440   9438   9441   9442     1  0.0000000  0.0000000  2
   9440   9438   9441   9442     1  180.0000771  0.3347200  3
   9440   9438   9441   9443     1  0.0000000  3.3472000  1
   9440   9438   9441   9443     1  0.0000000  0.0000000  2
   9440   9438   9441   9443     1  180.0000771  0.3347200  3
   9445   9444   9447   9450     1  0.0000000  0.6508444  3
   9445   9444   9447   9448     1  0.0000000  0.6508444  3
   9445   9444   9447   9449     1  0.0000000  0.6508444  3
   9446   9444   9447   9450     1  0.0000000  0.6508444  3
   9446   9444   9447   9448     1  0.0000000  0.6508444  3
   9446   9444   9447   9449     1  0.0000000  0.6508444  3
   9448   9447   9450   9451     1  0.0000000  3.3472000  1
   9448   9447   9450   9451     1  0.0000000  0.0000000  2
   9448   9447   9450   9451     1  180.0000771  0.3347200  3
   9448   9447   9450   9452     1  0.0000000  3.3472000  1
   9448   9447   9450   9452     1  0.0000000  0.0000000  2
   9448   9447   9450   9452     1  180.0000771  0.3347200  3
   9449   9447   9450   9451     1  0.0000000  3.3472000  1
   9449   9447   9450   9451     1  0.0000000  0.0000000  2
   9449   9447   9450   9451     1  180.0000771  0.3347200  3
   9449   9447   9450   9452     1  0.0000000  3.3472000  1
   9449   9447   9450   9452     1  0.0000000  0.0000000  2
   9449   9447   9450   9452     1  180.0000771  0.3347200  3
   9454   9457   9460   9461     1  0.0000000  0.6508444  3
   9454   9457   9460   9462     1  0.0000000  0.6508444  3
   9455   9454   9457   9460     1  0.0000000  0.6508444  3
   9455   9454   9457   9458     1  0.0000000  0.6508444  3
   9455   9454   9457   9459     1  0.0000000  0.6508444  3
   9456   9454   9457   9460     1  0.0000000  0.6508444  3
   9456   9454   9457   9458     1  0.0000000  0.6508444  3
   9456   9454   9457   9459     1  0.0000000  0.6508444  3
   9458   9457   9454   9482     1  0.0000000  1.0460000  1
   9458   9457   9454   9482     1  0.0000000  0.0000000  3
   9458   9457   9460   9463     1  0.0000000  0.6508444  3
   9458   9457   9460   9461     1  0.0000000  0.6508444  3
   9458   9457   9460   9462     1  0.0000000  0.6508444  3
   9459   9457   9454   9482     1  0.0000000  1.0460000  1
   9459   9457   9454   9482     1  0.0000000  0.0000000  3
   9459   9457   9460   9463     1  0.0000000  0.6508444  3
   9459   9457   9460   9461     1  0.0000000  0.6508444  3
   9459   9457   9460   9462     1  0.0000000  0.6508444  3
   9460   9463   9464   9465     1  0.0000000  1.2552000  3
   9460   9463   9464   9466     1  0.0000000  1.2552000  3
   9460   9463   9473   9474     1  0.0000000  1.2552000  3
   9460   9463   9473   9475     1  0.0000000  1.2552000  3
   9461   9460   9463   9464     1  0.0000000  1.2552000  3
   9461   9460   9463   9473     1  0.0000000  1.2552000  3
   9462   9460   9463   9464     1  0.0000000  1.2552000  3
   9462   9460   9463   9473     1  0.0000000  1.2552000  3
   9463   9464   9467   9468     1  0.0000000  0.6508444  3
   9463   9464   9467   9469     1  0.0000000  0.6508444  3
   9463   9473   9476   9477     1  0.0000000  0.6508444  3
   9463   9473   9476   9478     1  0.0000000  0.6508444  3
   9464   9463   9473   9474     1  0.0000000  1.2552000  3
   9464   9463   9473   9475     1  0.0000000  1.2552000  3
   9465   9464   9463   9473     1  0.0000000  1.2552000  3
   9465   9464   9467   9470     1  0.0000000  0.6508444  3
   9465   9464   9467   9468     1  0.0000000  0.6508444  3
   9465   9464   9467   9469     1  0.0000000  0.6508444  3
   9466   9464   9463   9473     1  0.0000000  1.2552000  3
   9466   9464   9467   9470     1  0.0000000  0.6508444  3
   9466   9464   9467   9468     1  0.0000000  0.6508444  3
   9466   9464   9467   9469     1  0.0000000  0.6508444  3
   9468   9467   9470   9471     1  0.0000000  3.3472000  1
   9468   9467   9470   9471     1  0.0000000  0.0000000  2
   9468   9467   9470   9471     1  180.0000771  0.3347200  3
   9468   9467   9470   9472     1  0.0000000  3.3472000  1
   9468   9467   9470   9472     1  0.0000000  0.0000000  2
   9468   9467   9470   9472     1  180.0000771  0.3347200  3
   9469   9467   9470   9471     1  0.0000000  3.3472000  1
   9469   9467   9470   9471     1  0.0000000  0.0000000  2
   9469   9467   9470   9471     1  180.0000771  0.3347200  3
   9469   9467   9470   9472     1  0.0000000  3.3472000  1
   9469   9467   9470   9472     1  0.0000000  0.0000000  2
   9469   9467   9470   9472     1  180.0000771  0.3347200  3
   9474   9473   9476   9479     1  0.0000000  0.6508444  3
   9474   9473   9476   9477     1  0.0000000  0.6508444  3
   9474   9473   9476   9478     1  0.0000000  0.6508444  3
   9475   9473   9476   9479     1  0.0000000  0.6508444  3
   9475   9473   9476   9477     1  0.0000000  0.6508444  3
   9475   9473   9476   9478     1  0.0000000  0.6508444  3
   9477   9476   9479   9480     1  0.0000000  3.3472000  1
   9477   9476   9479   9480     1  0.0000000  0.0000000  2
   9477   9476   9479   9480     1  180.0000771  0.3347200  3
   9477   9476   9479   9481     1  0.0000000  3.3472000  1
   9477   9476   9479   9481     1  0.0000000  0.0000000  2
   9477   9476   9479   9481     1  180.0000771  0.3347200  3
   9478   9476   9479   9480     1  0.0000000  3.3472000  1
   9478   9476   9479   9480     1  0.0000000  0.0000000  2
   9478   9476   9479   9480     1  180.0000771  0.3347200  3
   9478   9476   9479   9481     1  0.0000000  3.3472000  1
   9478   9476   9479   9481     1  0.0000000  0.0000000  2
   9478   9476   9479   9481     1  180.0000771  0.3347200  3
   9483   9486   9489   9490     1  0.0000000  0.6508444  3
   9483   9486   9489   9491     1  0.0000000  0.6508444  3
   9484   9483   9486   9489     1  0.0000000  0.6508444  3
   9484   9483   9486   9487     1  0.0000000  0.6508444  3
   9484   9483   9486   9488     1  0.0000000  0.6508444  3
   9485   9483   9486   9489     1  0.0000000  0.6508444  3
   9485   9483   9486   9487     1  0.0000000  0.6508444  3
   9485   9483   9486   9488     1  0.0000000  0.6508444  3
   9487   9486   9489   9492     1  0.0000000  0.6508444  3
   9487   9486   9489   9490     1  0.0000000  0.6508444  3
   9487   9486   9489   9491     1  0.0000000  0.6508444  3
   9487   9486   9483   9511     1  0.0000000  1.0460000  1
   9487   9486   9483   9511     1  0.0000000  0.0000000  3
   9488   9486   9489   9492     1  0.0000000  0.6508444  3
   9488   9486   9489   9490     1  0.0000000  0.6508444  3
   9488   9486   9489   9491     1  0.0000000  0.6508444  3
   9488   9486   9483   9511     1  0.0000000  1.0460000  1
   9488   9486   9483   9511     1  0.0000000  0.0000000  3
   9489   9492   9493   9494     1  0.0000000  1.2552000  3
   9489   9492   9493   9495     1  0.0000000  1.2552000  3
   9489   9492   9502   9503     1  0.0000000  1.2552000  3
   9489   9492   9502   9504     1  0.0000000  1.2552000  3
   9490   9489   9492   9493     1  0.0000000  1.2552000  3
   9490   9489   9492   9502     1  0.0000000  1.2552000  3
   9491   9489   9492   9493     1  0.0000000  1.2552000  3
   9491   9489   9492   9502     1  0.0000000  1.2552000  3
   9492   9493   9496   9497     1  0.0000000  0.6508444  3
   9492   9493   9496   9498     1  0.0000000  0.6508444  3
   9492   9502   9505   9506     1  0.0000000  0.6508444  3
   9492   9502   9505   9507     1  0.0000000  0.6508444  3
   9493   9492   9502   9503     1  0.0000000  1.2552000  3
   9493   9492   9502   9504     1  0.0000000  1.2552000  3
   9494   9493   9496   9499     1  0.0000000  0.6508444  3
   9494   9493   9496   9497     1  0.0000000  0.6508444  3
   9494   9493   9496   9498     1  0.0000000  0.6508444  3
   9494   9493   9492   9502     1  0.0000000  1.2552000  3
   9495   9493   9496   9499     1  0.0000000  0.6508444  3
   9495   9493   9496   9497     1  0.0000000  0.6508444  3
   9495   9493   9496   9498     1  0.0000000  0.6508444  3
   9495   9493   9492   9502     1  0.0000000  1.2552000  3
   9497   9496   9499   9500     1  0.0000000  3.3472000  1
   9497   9496   9499   9500     1  0.0000000  0.0000000  2
   9497   9496   9499   9500     1  180.0000771  0.3347200  3
   9497   9496   9499   9501     1  0.0000000  3.3472000  1
   9497   9496   9499   9501     1  0.0000000  0.0000000  2
   9497   9496   9499   9501     1  180.0000771  0.3347200  3
   9498   9496   9499   9500     1  0.0000000  3.3472000  1
   9498   9496   9499   9500     1  0.0000000  0.0000000  2
   9498   9496   9499   9500     1  180.0000771  0.3347200  3
   9498   9496   9499   9501     1  0.0000000  3.3472000  1
   9498   9496   9499   9501     1  0.0000000  0.0000000  2
   9498   9496   9499   9501     1  180.0000771  0.3347200  3
   9503   9502   9505   9508     1  0.0000000  0.6508444  3
   9503   9502   9505   9506     1  0.0000000  0.6508444  3
   9503   9502   9505   9507     1  0.0000000  0.6508444  3
   9504   9502   9505   9508     1  0.0000000  0.6508444  3
   9504   9502   9505   9506     1  0.0000000  0.6508444  3
   9504   9502   9505   9507     1  0.0000000  0.6508444  3
   9506   9505   9508   9509     1  0.0000000  3.3472000  1
   9506   9505   9508   9509     1  0.0000000  0.0000000  2
   9506   9505   9508   9509     1  180.0000771  0.3347200  3
   9506   9505   9508   9510     1  0.0000000  3.3472000  1
   9506   9505   9508   9510     1  0.0000000  0.0000000  2
   9506   9505   9508   9510     1  180.0000771  0.3347200  3
   9507   9505   9508   9509     1  0.0000000  3.3472000  1
   9507   9505   9508   9509     1  0.0000000  0.0000000  2
   9507   9505   9508   9509     1  180.0000771  0.3347200  3
   9507   9505   9508   9510     1  0.0000000  3.3472000  1
   9507   9505   9508   9510     1  0.0000000  0.0000000  2
   9507   9505   9508   9510     1  180.0000771  0.3347200  3
   9512   9515   9518   9519     1  0.0000000  0.6508444  3
   9512   9515   9518   9520     1  0.0000000  0.6508444  3
   9513   9512   9515   9518     1  0.0000000  0.6508444  3
   9513   9512   9515   9516     1  0.0000000  0.6508444  3
   9513   9512   9515   9517     1  0.0000000  0.6508444  3
   9514   9512   9515   9518     1  0.0000000  0.6508444  3
   9514   9512   9515   9516     1  0.0000000  0.6508444  3
   9514   9512   9515   9517     1  0.0000000  0.6508444  3
   9516   9515   9512   9540     1  0.0000000  1.0460000  1
   9516   9515   9512   9540     1  0.0000000  0.0000000  3
   9516   9515   9518   9521     1  0.0000000  0.6508444  3
   9516   9515   9518   9519     1  0.0000000  0.6508444  3
   9516   9515   9518   9520     1  0.0000000  0.6508444  3
   9517   9515   9512   9540     1  0.0000000  1.0460000  1
   9517   9515   9512   9540     1  0.0000000  0.0000000  3
   9517   9515   9518   9521     1  0.0000000  0.6508444  3
   9517   9515   9518   9519     1  0.0000000  0.6508444  3
   9517   9515   9518   9520     1  0.0000000  0.6508444  3
   9518   9521   9522   9523     1  0.0000000  1.2552000  3
   9518   9521   9522   9524     1  0.0000000  1.2552000  3
   9518   9521   9531   9532     1  0.0000000  1.2552000  3
   9518   9521   9531   9533     1  0.0000000  1.2552000  3
   9519   9518   9521   9522     1  0.0000000  1.2552000  3
   9519   9518   9521   9531     1  0.0000000  1.2552000  3
   9520   9518   9521   9522     1  0.0000000  1.2552000  3
   9520   9518   9521   9531     1  0.0000000  1.2552000  3
   9521   9522   9525   9526     1  0.0000000  0.6508444  3
   9521   9522   9525   9527     1  0.0000000  0.6508444  3
   9521   9531   9534   9535     1  0.0000000  0.6508444  3
   9521   9531   9534   9536     1  0.0000000  0.6508444  3
   9522   9521   9531   9532     1  0.0000000  1.2552000  3
   9522   9521   9531   9533     1  0.0000000  1.2552000  3
   9523   9522   9521   9531     1  0.0000000  1.2552000  3
   9523   9522   9525   9528     1  0.0000000  0.6508444  3
   9523   9522   9525   9526     1  0.0000000  0.6508444  3
   9523   9522   9525   9527     1  0.0000000  0.6508444  3
   9524   9522   9521   9531     1  0.0000000  1.2552000  3
   9524   9522   9525   9528     1  0.0000000  0.6508444  3
   9524   9522   9525   9526     1  0.0000000  0.6508444  3
   9524   9522   9525   9527     1  0.0000000  0.6508444  3
   9526   9525   9528   9529     1  0.0000000  3.3472000  1
   9526   9525   9528   9529     1  0.0000000  0.0000000  2
   9526   9525   9528   9529     1  180.0000771  0.3347200  3
   9526   9525   9528   9530     1  0.0000000  3.3472000  1
   9526   9525   9528   9530     1  0.0000000  0.0000000  2
   9526   9525   9528   9530     1  180.0000771  0.3347200  3
   9527   9525   9528   9529     1  0.0000000  3.3472000  1
   9527   9525   9528   9529     1  0.0000000  0.0000000  2
   9527   9525   9528   9529     1  180.0000771  0.3347200  3
   9527   9525   9528   9530     1  0.0000000  3.3472000  1
   9527   9525   9528   9530     1  0.0000000  0.0000000  2
   9527   9525   9528   9530     1  180.0000771  0.3347200  3
   9532   9531   9534   9537     1  0.0000000  0.6508444  3
   9532   9531   9534   9535     1  0.0000000  0.6508444  3
   9532   9531   9534   9536     1  0.0000000  0.6508444  3
   9533   9531   9534   9537     1  0.0000000  0.6508444  3
   9533   9531   9534   9535     1  0.0000000  0.6508444  3
   9533   9531   9534   9536     1  0.0000000  0.6508444  3
   9535   9534   9537   9538     1  0.0000000  3.3472000  1
   9535   9534   9537   9538     1  0.0000000  0.0000000  2
   9535   9534   9537   9538     1  180.0000771  0.3347200  3
   9535   9534   9537   9539     1  0.0000000  3.3472000  1
   9535   9534   9537   9539     1  0.0000000  0.0000000  2
   9535   9534   9537   9539     1  180.0000771  0.3347200  3
   9536   9534   9537   9538     1  0.0000000  3.3472000  1
   9536   9534   9537   9538     1  0.0000000  0.0000000  2
   9536   9534   9537   9538     1  180.0000771  0.3347200  3
   9536   9534   9537   9539     1  0.0000000  3.3472000  1
   9536   9534   9537   9539     1  0.0000000  0.0000000  2
   9536   9534   9537   9539     1  180.0000771  0.3347200  3
   9541   9544   9547   9548     1  0.0000000  0.6508444  3
   9541   9544   9547   9549     1  0.0000000  0.6508444  3
   9542   9541   9544   9547     1  0.0000000  0.6508444  3
   9542   9541   9544   9545     1  0.0000000  0.6508444  3
   9542   9541   9544   9546     1  0.0000000  0.6508444  3
   9543   9541   9544   9547     1  0.0000000  0.6508444  3
   9543   9541   9544   9545     1  0.0000000  0.6508444  3
   9543   9541   9544   9546     1  0.0000000  0.6508444  3
   9545   9544   9547   9550     1  0.0000000  0.6508444  3
   9545   9544   9547   9548     1  0.0000000  0.6508444  3
   9545   9544   9547   9549     1  0.0000000  0.6508444  3
   9545   9544   9541   9569     1  0.0000000  1.0460000  1
   9545   9544   9541   9569     1  0.0000000  0.0000000  3
   9546   9544   9547   9550     1  0.0000000  0.6508444  3
   9546   9544   9547   9548     1  0.0000000  0.6508444  3
   9546   9544   9547   9549     1  0.0000000  0.6508444  3
   9546   9544   9541   9569     1  0.0000000  1.0460000  1
   9546   9544   9541   9569     1  0.0000000  0.0000000  3
   9547   9550   9551   9552     1  0.0000000  1.2552000  3
   9547   9550   9551   9553     1  0.0000000  1.2552000  3
   9547   9550   9560   9561     1  0.0000000  1.2552000  3
   9547   9550   9560   9562     1  0.0000000  1.2552000  3
   9548   9547   9550   9551     1  0.0000000  1.2552000  3
   9548   9547   9550   9560     1  0.0000000  1.2552000  3
   9549   9547   9550   9551     1  0.0000000  1.2552000  3
   9549   9547   9550   9560     1  0.0000000  1.2552000  3
   9550   9551   9554   9555     1  0.0000000  0.6508444  3
   9550   9551   9554   9556     1  0.0000000  0.6508444  3
   9550   9560   9563   9564     1  0.0000000  0.6508444  3
   9550   9560   9563   9565     1  0.0000000  0.6508444  3
   9551   9550   9560   9561     1  0.0000000  1.2552000  3
   9551   9550   9560   9562     1  0.0000000  1.2552000  3
   9552   9551   9554   9557     1  0.0000000  0.6508444  3
   9552   9551   9554   9555     1  0.0000000  0.6508444  3
   9552   9551   9554   9556     1  0.0000000  0.6508444  3
   9552   9551   9550   9560     1  0.0000000  1.2552000  3
   9553   9551   9554   9557     1  0.0000000  0.6508444  3
   9553   9551   9554   9555     1  0.0000000  0.6508444  3
   9553   9551   9554   9556     1  0.0000000  0.6508444  3
   9553   9551   9550   9560     1  0.0000000  1.2552000  3
   9555   9554   9557   9558     1  0.0000000  3.3472000  1
   9555   9554   9557   9558     1  0.0000000  0.0000000  2
   9555   9554   9557   9558     1  180.0000771  0.3347200  3
   9555   9554   9557   9559     1  0.0000000  3.3472000  1
   9555   9554   9557   9559     1  0.0000000  0.0000000  2
   9555   9554   9557   9559     1  180.0000771  0.3347200  3
   9556   9554   9557   9558     1  0.0000000  3.3472000  1
   9556   9554   9557   9558     1  0.0000000  0.0000000  2
   9556   9554   9557   9558     1  180.0000771  0.3347200  3
   9556   9554   9557   9559     1  0.0000000  3.3472000  1
   9556   9554   9557   9559     1  0.0000000  0.0000000  2
   9556   9554   9557   9559     1  180.0000771  0.3347200  3
   9561   9560   9563   9566     1  0.0000000  0.6508444  3
   9561   9560   9563   9564     1  0.0000000  0.6508444  3
   9561   9560   9563   9565     1  0.0000000  0.6508444  3
   9562   9560   9563   9566     1  0.0000000  0.6508444  3
   9562   9560   9563   9564     1  0.0000000  0.6508444  3
   9562   9560   9563   9565     1  0.0000000  0.6508444  3
   9564   9563   9566   9567     1  0.0000000  3.3472000  1
   9564   9563   9566   9567     1  0.0000000  0.0000000  2
   9564   9563   9566   9567     1  180.0000771  0.3347200  3
   9564   9563   9566   9568     1  0.0000000  3.3472000  1
   9564   9563   9566   9568     1  0.0000000  0.0000000  2
   9564   9563   9566   9568     1  180.0000771  0.3347200  3
   9565   9563   9566   9567     1  0.0000000  3.3472000  1
   9565   9563   9566   9567     1  0.0000000  0.0000000  2
   9565   9563   9566   9567     1  180.0000771  0.3347200  3
   9565   9563   9566   9568     1  0.0000000  3.3472000  1
   9565   9563   9566   9568     1  0.0000000  0.0000000  2
   9565   9563   9566   9568     1  180.0000771  0.3347200  3
   9570   9573   9576   9577     1  0.0000000  0.6508444  3
   9570   9573   9576   9578     1  0.0000000  0.6508444  3
   9571   9570   9573   9576     1  0.0000000  0.6508444  3
   9571   9570   9573   9574     1  0.0000000  0.6508444  3
   9571   9570   9573   9575     1  0.0000000  0.6508444  3
   9572   9570   9573   9576     1  0.0000000  0.6508444  3
   9572   9570   9573   9574     1  0.0000000  0.6508444  3
   9572   9570   9573   9575     1  0.0000000  0.6508444  3
   9574   9573   9570   9598     1  0.0000000  1.0460000  1
   9574   9573   9570   9598     1  0.0000000  0.0000000  3
   9574   9573   9576   9579     1  0.0000000  0.6508444  3
   9574   9573   9576   9577     1  0.0000000  0.6508444  3
   9574   9573   9576   9578     1  0.0000000  0.6508444  3
   9575   9573   9570   9598     1  0.0000000  1.0460000  1
   9575   9573   9570   9598     1  0.0000000  0.0000000  3
   9575   9573   9576   9579     1  0.0000000  0.6508444  3
   9575   9573   9576   9577     1  0.0000000  0.6508444  3
   9575   9573   9576   9578     1  0.0000000  0.6508444  3
   9576   9579   9580   9581     1  0.0000000  1.2552000  3
   9576   9579   9580   9582     1  0.0000000  1.2552000  3
   9576   9579   9589   9590     1  0.0000000  1.2552000  3
   9576   9579   9589   9591     1  0.0000000  1.2552000  3
   9577   9576   9579   9580     1  0.0000000  1.2552000  3
   9577   9576   9579   9589     1  0.0000000  1.2552000  3
   9578   9576   9579   9580     1  0.0000000  1.2552000  3
   9578   9576   9579   9589     1  0.0000000  1.2552000  3
   9579   9580   9583   9584     1  0.0000000  0.6508444  3
   9579   9580   9583   9585     1  0.0000000  0.6508444  3
   9579   9589   9592   9593     1  0.0000000  0.6508444  3
   9579   9589   9592   9594     1  0.0000000  0.6508444  3
   9580   9579   9589   9590     1  0.0000000  1.2552000  3
   9580   9579   9589   9591     1  0.0000000  1.2552000  3
   9581   9580   9579   9589     1  0.0000000  1.2552000  3
   9581   9580   9583   9586     1  0.0000000  0.6508444  3
   9581   9580   9583   9584     1  0.0000000  0.6508444  3
   9581   9580   9583   9585     1  0.0000000  0.6508444  3
   9582   9580   9579   9589     1  0.0000000  1.2552000  3
   9582   9580   9583   9586     1  0.0000000  0.6508444  3
   9582   9580   9583   9584     1  0.0000000  0.6508444  3
   9582   9580   9583   9585     1  0.0000000  0.6508444  3
   9584   9583   9586   9587     1  0.0000000  3.3472000  1
   9584   9583   9586   9587     1  0.0000000  0.0000000  2
   9584   9583   9586   9587     1  180.0000771  0.3347200  3
   9584   9583   9586   9588     1  0.0000000  3.3472000  1
   9584   9583   9586   9588     1  0.0000000  0.0000000  2
   9584   9583   9586   9588     1  180.0000771  0.3347200  3
   9585   9583   9586   9587     1  0.0000000  3.3472000  1
   9585   9583   9586   9587     1  0.0000000  0.0000000  2
   9585   9583   9586   9587     1  180.0000771  0.3347200  3
   9585   9583   9586   9588     1  0.0000000  3.3472000  1
   9585   9583   9586   9588     1  0.0000000  0.0000000  2
   9585   9583   9586   9588     1  180.0000771  0.3347200  3
   9590   9589   9592   9595     1  0.0000000  0.6508444  3
   9590   9589   9592   9593     1  0.0000000  0.6508444  3
   9590   9589   9592   9594     1  0.0000000  0.6508444  3
   9591   9589   9592   9595     1  0.0000000  0.6508444  3
   9591   9589   9592   9593     1  0.0000000  0.6508444  3
   9591   9589   9592   9594     1  0.0000000  0.6508444  3
   9593   9592   9595   9596     1  0.0000000  3.3472000  1
   9593   9592   9595   9596     1  0.0000000  0.0000000  2
   9593   9592   9595   9596     1  180.0000771  0.3347200  3
   9593   9592   9595   9597     1  0.0000000  3.3472000  1
   9593   9592   9595   9597     1  0.0000000  0.0000000  2
   9593   9592   9595   9597     1  180.0000771  0.3347200  3
   9594   9592   9595   9596     1  0.0000000  3.3472000  1
   9594   9592   9595   9596     1  0.0000000  0.0000000  2
   9594   9592   9595   9596     1  180.0000771  0.3347200  3
   9594   9592   9595   9597     1  0.0000000  3.3472000  1
   9594   9592   9595   9597     1  0.0000000  0.0000000  2
   9594   9592   9595   9597     1  180.0000771  0.3347200  3
   9599   9602   9605   9606     1  0.0000000  0.6508444  3
   9599   9602   9605   9607     1  0.0000000  0.6508444  3
   9600   9599   9602   9605     1  0.0000000  0.6508444  3
   9600   9599   9602   9603     1  0.0000000  0.6508444  3
   9600   9599   9602   9604     1  0.0000000  0.6508444  3
   9601   9599   9602   9605     1  0.0000000  0.6508444  3
   9601   9599   9602   9603     1  0.0000000  0.6508444  3
   9601   9599   9602   9604     1  0.0000000  0.6508444  3
   9603   9602   9605   9608     1  0.0000000  0.6508444  3
   9603   9602   9605   9606     1  0.0000000  0.6508444  3
   9603   9602   9605   9607     1  0.0000000  0.6508444  3
   9603   9602   9599   9627     1  0.0000000  1.0460000  1
   9603   9602   9599   9627     1  0.0000000  0.0000000  3
   9604   9602   9605   9608     1  0.0000000  0.6508444  3
   9604   9602   9605   9606     1  0.0000000  0.6508444  3
   9604   9602   9605   9607     1  0.0000000  0.6508444  3
   9604   9602   9599   9627     1  0.0000000  1.0460000  1
   9604   9602   9599   9627     1  0.0000000  0.0000000  3
   9605   9608   9609   9610     1  0.0000000  1.2552000  3
   9605   9608   9609   9611     1  0.0000000  1.2552000  3
   9605   9608   9618   9619     1  0.0000000  1.2552000  3
   9605   9608   9618   9620     1  0.0000000  1.2552000  3
   9606   9605   9608   9609     1  0.0000000  1.2552000  3
   9606   9605   9608   9618     1  0.0000000  1.2552000  3
   9607   9605   9608   9609     1  0.0000000  1.2552000  3
   9607   9605   9608   9618     1  0.0000000  1.2552000  3
   9608   9609   9612   9613     1  0.0000000  0.6508444  3
   9608   9609   9612   9614     1  0.0000000  0.6508444  3
   9608   9618   9621   9622     1  0.0000000  0.6508444  3
   9608   9618   9621   9623     1  0.0000000  0.6508444  3
   9609   9608   9618   9619     1  0.0000000  1.2552000  3
   9609   9608   9618   9620     1  0.0000000  1.2552000  3
   9610   9609   9612   9615     1  0.0000000  0.6508444  3
   9610   9609   9612   9613     1  0.0000000  0.6508444  3
   9610   9609   9612   9614     1  0.0000000  0.6508444  3
   9610   9609   9608   9618     1  0.0000000  1.2552000  3
   9611   9609   9612   9615     1  0.0000000  0.6508444  3
   9611   9609   9612   9613     1  0.0000000  0.6508444  3
   9611   9609   9612   9614     1  0.0000000  0.6508444  3
   9611   9609   9608   9618     1  0.0000000  1.2552000  3
   9613   9612   9615   9616     1  0.0000000  3.3472000  1
   9613   9612   9615   9616     1  0.0000000  0.0000000  2
   9613   9612   9615   9616     1  180.0000771  0.3347200  3
   9613   9612   9615   9617     1  0.0000000  3.3472000  1
   9613   9612   9615   9617     1  0.0000000  0.0000000  2
   9613   9612   9615   9617     1  180.0000771  0.3347200  3
   9614   9612   9615   9616     1  0.0000000  3.3472000  1
   9614   9612   9615   9616     1  0.0000000  0.0000000  2
   9614   9612   9615   9616     1  180.0000771  0.3347200  3
   9614   9612   9615   9617     1  0.0000000  3.3472000  1
   9614   9612   9615   9617     1  0.0000000  0.0000000  2
   9614   9612   9615   9617     1  180.0000771  0.3347200  3
   9619   9618   9621   9624     1  0.0000000  0.6508444  3
   9619   9618   9621   9622     1  0.0000000  0.6508444  3
   9619   9618   9621   9623     1  0.0000000  0.6508444  3
   9620   9618   9621   9624     1  0.0000000  0.6508444  3
   9620   9618   9621   9622     1  0.0000000  0.6508444  3
   9620   9618   9621   9623     1  0.0000000  0.6508444  3
   9622   9621   9624   9625     1  0.0000000  3.3472000  1
   9622   9621   9624   9625     1  0.0000000  0.0000000  2
   9622   9621   9624   9625     1  180.0000771  0.3347200  3
   9622   9621   9624   9626     1  0.0000000  3.3472000  1
   9622   9621   9624   9626     1  0.0000000  0.0000000  2
   9622   9621   9624   9626     1  180.0000771  0.3347200  3
   9623   9621   9624   9625     1  0.0000000  3.3472000  1
   9623   9621   9624   9625     1  0.0000000  0.0000000  2
   9623   9621   9624   9625     1  180.0000771  0.3347200  3
   9623   9621   9624   9626     1  0.0000000  3.3472000  1
   9623   9621   9624   9626     1  0.0000000  0.0000000  2
   9623   9621   9624   9626     1  180.0000771  0.3347200  3
   9628   9631   9634   9635     1  0.0000000  0.6508444  3
   9628   9631   9634   9636     1  0.0000000  0.6508444  3
   9629   9628   9631   9634     1  0.0000000  0.6508444  3
   9629   9628   9631   9632     1  0.0000000  0.6508444  3
   9629   9628   9631   9633     1  0.0000000  0.6508444  3
   9630   9628   9631   9634     1  0.0000000  0.6508444  3
   9630   9628   9631   9632     1  0.0000000  0.6508444  3
   9630   9628   9631   9633     1  0.0000000  0.6508444  3
   9632   9631   9628   9656     1  0.0000000  1.0460000  1
   9632   9631   9628   9656     1  0.0000000  0.0000000  3
   9632   9631   9634   9637     1  0.0000000  0.6508444  3
   9632   9631   9634   9635     1  0.0000000  0.6508444  3
   9632   9631   9634   9636     1  0.0000000  0.6508444  3
   9633   9631   9628   9656     1  0.0000000  1.0460000  1
   9633   9631   9628   9656     1  0.0000000  0.0000000  3
   9633   9631   9634   9637     1  0.0000000  0.6508444  3
   9633   9631   9634   9635     1  0.0000000  0.6508444  3
   9633   9631   9634   9636     1  0.0000000  0.6508444  3
   9634   9637   9638   9639     1  0.0000000  1.2552000  3
   9634   9637   9638   9640     1  0.0000000  1.2552000  3
   9634   9637   9647   9648     1  0.0000000  1.2552000  3
   9634   9637   9647   9649     1  0.0000000  1.2552000  3
   9635   9634   9637   9638     1  0.0000000  1.2552000  3
   9635   9634   9637   9647     1  0.0000000  1.2552000  3
   9636   9634   9637   9638     1  0.0000000  1.2552000  3
   9636   9634   9637   9647     1  0.0000000  1.2552000  3
   9637   9638   9641   9642     1  0.0000000  0.6508444  3
   9637   9638   9641   9643     1  0.0000000  0.6508444  3
   9637   9647   9650   9651     1  0.0000000  0.6508444  3
   9637   9647   9650   9652     1  0.0000000  0.6508444  3
   9638   9637   9647   9648     1  0.0000000  1.2552000  3
   9638   9637   9647   9649     1  0.0000000  1.2552000  3
   9639   9638   9637   9647     1  0.0000000  1.2552000  3
   9639   9638   9641   9644     1  0.0000000  0.6508444  3
   9639   9638   9641   9642     1  0.0000000  0.6508444  3
   9639   9638   9641   9643     1  0.0000000  0.6508444  3
   9640   9638   9637   9647     1  0.0000000  1.2552000  3
   9640   9638   9641   9644     1  0.0000000  0.6508444  3
   9640   9638   9641   9642     1  0.0000000  0.6508444  3
   9640   9638   9641   9643     1  0.0000000  0.6508444  3
   9642   9641   9644   9645     1  0.0000000  3.3472000  1
   9642   9641   9644   9645     1  0.0000000  0.0000000  2
   9642   9641   9644   9645     1  180.0000771  0.3347200  3
   9642   9641   9644   9646     1  0.0000000  3.3472000  1
   9642   9641   9644   9646     1  0.0000000  0.0000000  2
   9642   9641   9644   9646     1  180.0000771  0.3347200  3
   9643   9641   9644   9645     1  0.0000000  3.3472000  1
   9643   9641   9644   9645     1  0.0000000  0.0000000  2
   9643   9641   9644   9645     1  180.0000771  0.3347200  3
   9643   9641   9644   9646     1  0.0000000  3.3472000  1
   9643   9641   9644   9646     1  0.0000000  0.0000000  2
   9643   9641   9644   9646     1  180.0000771  0.3347200  3
   9648   9647   9650   9653     1  0.0000000  0.6508444  3
   9648   9647   9650   9651     1  0.0000000  0.6508444  3
   9648   9647   9650   9652     1  0.0000000  0.6508444  3
   9649   9647   9650   9653     1  0.0000000  0.6508444  3
   9649   9647   9650   9651     1  0.0000000  0.6508444  3
   9649   9647   9650   9652     1  0.0000000  0.6508444  3
   9651   9650   9653   9654     1  0.0000000  3.3472000  1
   9651   9650   9653   9654     1  0.0000000  0.0000000  2
   9651   9650   9653   9654     1  180.0000771  0.3347200  3
   9651   9650   9653   9655     1  0.0000000  3.3472000  1
   9651   9650   9653   9655     1  0.0000000  0.0000000  2
   9651   9650   9653   9655     1  180.0000771  0.3347200  3
   9652   9650   9653   9654     1  0.0000000  3.3472000  1
   9652   9650   9653   9654     1  0.0000000  0.0000000  2
   9652   9650   9653   9654     1  180.0000771  0.3347200  3
   9652   9650   9653   9655     1  0.0000000  3.3472000  1
   9652   9650   9653   9655     1  0.0000000  0.0000000  2
   9652   9650   9653   9655     1  180.0000771  0.3347200  3
   9657   9660   9663   9664     1  0.0000000  0.6508444  3
   9657   9660   9663   9665     1  0.0000000  0.6508444  3
   9658   9657   9660   9663     1  0.0000000  0.6508444  3
   9658   9657   9660   9661     1  0.0000000  0.6508444  3
   9658   9657   9660   9662     1  0.0000000  0.6508444  3
   9659   9657   9660   9663     1  0.0000000  0.6508444  3
   9659   9657   9660   9661     1  0.0000000  0.6508444  3
   9659   9657   9660   9662     1  0.0000000  0.6508444  3
   9661   9660   9663   9666     1  0.0000000  0.6508444  3
   9661   9660   9663   9664     1  0.0000000  0.6508444  3
   9661   9660   9663   9665     1  0.0000000  0.6508444  3
   9661   9660   9657   9685     1  0.0000000  1.0460000  1
   9661   9660   9657   9685     1  0.0000000  0.0000000  3
   9662   9660   9663   9666     1  0.0000000  0.6508444  3
   9662   9660   9663   9664     1  0.0000000  0.6508444  3
   9662   9660   9663   9665     1  0.0000000  0.6508444  3
   9662   9660   9657   9685     1  0.0000000  1.0460000  1
   9662   9660   9657   9685     1  0.0000000  0.0000000  3
   9663   9666   9667   9668     1  0.0000000  1.2552000  3
   9663   9666   9667   9669     1  0.0000000  1.2552000  3
   9663   9666   9676   9677     1  0.0000000  1.2552000  3
   9663   9666   9676   9678     1  0.0000000  1.2552000  3
   9664   9663   9666   9667     1  0.0000000  1.2552000  3
   9664   9663   9666   9676     1  0.0000000  1.2552000  3
   9665   9663   9666   9667     1  0.0000000  1.2552000  3
   9665   9663   9666   9676     1  0.0000000  1.2552000  3
   9666   9667   9670   9671     1  0.0000000  0.6508444  3
   9666   9667   9670   9672     1  0.0000000  0.6508444  3
   9666   9676   9679   9680     1  0.0000000  0.6508444  3
   9666   9676   9679   9681     1  0.0000000  0.6508444  3
   9667   9666   9676   9677     1  0.0000000  1.2552000  3
   9667   9666   9676   9678     1  0.0000000  1.2552000  3
   9668   9667   9670   9673     1  0.0000000  0.6508444  3
   9668   9667   9670   9671     1  0.0000000  0.6508444  3
   9668   9667   9670   9672     1  0.0000000  0.6508444  3
   9668   9667   9666   9676     1  0.0000000  1.2552000  3
   9669   9667   9670   9673     1  0.0000000  0.6508444  3
   9669   9667   9670   9671     1  0.0000000  0.6508444  3
   9669   9667   9670   9672     1  0.0000000  0.6508444  3
   9669   9667   9666   9676     1  0.0000000  1.2552000  3
   9671   9670   9673   9674     1  0.0000000  3.3472000  1
   9671   9670   9673   9674     1  0.0000000  0.0000000  2
   9671   9670   9673   9674     1  180.0000771  0.3347200  3
   9671   9670   9673   9675     1  0.0000000  3.3472000  1
   9671   9670   9673   9675     1  0.0000000  0.0000000  2
   9671   9670   9673   9675     1  180.0000771  0.3347200  3
   9672   9670   9673   9674     1  0.0000000  3.3472000  1
   9672   9670   9673   9674     1  0.0000000  0.0000000  2
   9672   9670   9673   9674     1  180.0000771  0.3347200  3
   9672   9670   9673   9675     1  0.0000000  3.3472000  1
   9672   9670   9673   9675     1  0.0000000  0.0000000  2
   9672   9670   9673   9675     1  180.0000771  0.3347200  3
   9677   9676   9679   9682     1  0.0000000  0.6508444  3
   9677   9676   9679   9680     1  0.0000000  0.6508444  3
   9677   9676   9679   9681     1  0.0000000  0.6508444  3
   9678   9676   9679   9682     1  0.0000000  0.6508444  3
   9678   9676   9679   9680     1  0.0000000  0.6508444  3
   9678   9676   9679   9681     1  0.0000000  0.6508444  3
   9680   9679   9682   9683     1  0.0000000  3.3472000  1
   9680   9679   9682   9683     1  0.0000000  0.0000000  2
   9680   9679   9682   9683     1  180.0000771  0.3347200  3
   9680   9679   9682   9684     1  0.0000000  3.3472000  1
   9680   9679   9682   9684     1  0.0000000  0.0000000  2
   9680   9679   9682   9684     1  180.0000771  0.3347200  3
   9681   9679   9682   9683     1  0.0000000  3.3472000  1
   9681   9679   9682   9683     1  0.0000000  0.0000000  2
   9681   9679   9682   9683     1  180.0000771  0.3347200  3
   9681   9679   9682   9684     1  0.0000000  3.3472000  1
   9681   9679   9682   9684     1  0.0000000  0.0000000  2
   9681   9679   9682   9684     1  180.0000771  0.3347200  3
   9686   9689   9692   9693     1  0.0000000  0.6508444  3
   9686   9689   9692   9694     1  0.0000000  0.6508444  3
   9687   9686   9689   9692     1  0.0000000  0.6508444  3
   9687   9686   9689   9690     1  0.0000000  0.6508444  3
   9687   9686   9689   9691     1  0.0000000  0.6508444  3
   9688   9686   9689   9692     1  0.0000000  0.6508444  3
   9688   9686   9689   9690     1  0.0000000  0.6508444  3
   9688   9686   9689   9691     1  0.0000000  0.6508444  3
   9690   9689   9686   9714     1  0.0000000  1.0460000  1
   9690   9689   9686   9714     1  0.0000000  0.0000000  3
   9690   9689   9692   9695     1  0.0000000  0.6508444  3
   9690   9689   9692   9693     1  0.0000000  0.6508444  3
   9690   9689   9692   9694     1  0.0000000  0.6508444  3
   9691   9689   9686   9714     1  0.0000000  1.0460000  1
   9691   9689   9686   9714     1  0.0000000  0.0000000  3
   9691   9689   9692   9695     1  0.0000000  0.6508444  3
   9691   9689   9692   9693     1  0.0000000  0.6508444  3
   9691   9689   9692   9694     1  0.0000000  0.6508444  3
   9692   9695   9696   9697     1  0.0000000  1.2552000  3
   9692   9695   9696   9698     1  0.0000000  1.2552000  3
   9692   9695   9705   9706     1  0.0000000  1.2552000  3
   9692   9695   9705   9707     1  0.0000000  1.2552000  3
   9693   9692   9695   9696     1  0.0000000  1.2552000  3
   9693   9692   9695   9705     1  0.0000000  1.2552000  3
   9694   9692   9695   9696     1  0.0000000  1.2552000  3
   9694   9692   9695   9705     1  0.0000000  1.2552000  3
   9695   9696   9699   9700     1  0.0000000  0.6508444  3
   9695   9696   9699   9701     1  0.0000000  0.6508444  3
   9695   9705   9708   9709     1  0.0000000  0.6508444  3
   9695   9705   9708   9710     1  0.0000000  0.6508444  3
   9696   9695   9705   9706     1  0.0000000  1.2552000  3
   9696   9695   9705   9707     1  0.0000000  1.2552000  3
   9697   9696   9695   9705     1  0.0000000  1.2552000  3
   9697   9696   9699   9702     1  0.0000000  0.6508444  3
   9697   9696   9699   9700     1  0.0000000  0.6508444  3
   9697   9696   9699   9701     1  0.0000000  0.6508444  3
   9698   9696   9695   9705     1  0.0000000  1.2552000  3
   9698   9696   9699   9702     1  0.0000000  0.6508444  3
   9698   9696   9699   9700     1  0.0000000  0.6508444  3
   9698   9696   9699   9701     1  0.0000000  0.6508444  3
   9700   9699   9702   9703     1  0.0000000  3.3472000  1
   9700   9699   9702   9703     1  0.0000000  0.0000000  2
   9700   9699   9702   9703     1  180.0000771  0.3347200  3
   9700   9699   9702   9704     1  0.0000000  3.3472000  1
   9700   9699   9702   9704     1  0.0000000  0.0000000  2
   9700   9699   9702   9704     1  180.0000771  0.3347200  3
   9701   9699   9702   9703     1  0.0000000  3.3472000  1
   9701   9699   9702   9703     1  0.0000000  0.0000000  2
   9701   9699   9702   9703     1  180.0000771  0.3347200  3
   9701   9699   9702   9704     1  0.0000000  3.3472000  1
   9701   9699   9702   9704     1  0.0000000  0.0000000  2
   9701   9699   9702   9704     1  180.0000771  0.3347200  3
   9706   9705   9708   9711     1  0.0000000  0.6508444  3
   9706   9705   9708   9709     1  0.0000000  0.6508444  3
   9706   9705   9708   9710     1  0.0000000  0.6508444  3
   9707   9705   9708   9711     1  0.0000000  0.6508444  3
   9707   9705   9708   9709     1  0.0000000  0.6508444  3
   9707   9705   9708   9710     1  0.0000000  0.6508444  3
   9709   9708   9711   9712     1  0.0000000  3.3472000  1
   9709   9708   9711   9712     1  0.0000000  0.0000000  2
   9709   9708   9711   9712     1  180.0000771  0.3347200  3
   9709   9708   9711   9713     1  0.0000000  3.3472000  1
   9709   9708   9711   9713     1  0.0000000  0.0000000  2
   9709   9708   9711   9713     1  180.0000771  0.3347200  3
   9710   9708   9711   9712     1  0.0000000  3.3472000  1
   9710   9708   9711   9712     1  0.0000000  0.0000000  2
   9710   9708   9711   9712     1  180.0000771  0.3347200  3
   9710   9708   9711   9713     1  0.0000000  3.3472000  1
   9710   9708   9711   9713     1  0.0000000  0.0000000  2
   9710   9708   9711   9713     1  180.0000771  0.3347200  3
   9715   9718   9721   9722     1  0.0000000  0.6508444  3
   9715   9718   9721   9723     1  0.0000000  0.6508444  3
   9716   9715   9718   9721     1  0.0000000  0.6508444  3
   9716   9715   9718   9719     1  0.0000000  0.6508444  3
   9716   9715   9718   9720     1  0.0000000  0.6508444  3
   9717   9715   9718   9721     1  0.0000000  0.6508444  3
   9717   9715   9718   9719     1  0.0000000  0.6508444  3
   9717   9715   9718   9720     1  0.0000000  0.6508444  3
   9719   9718   9721   9724     1  0.0000000  0.6508444  3
   9719   9718   9721   9722     1  0.0000000  0.6508444  3
   9719   9718   9721   9723     1  0.0000000  0.6508444  3
   9719   9718   9715   9743     1  0.0000000  1.0460000  1
   9719   9718   9715   9743     1  0.0000000  0.0000000  3
   9720   9718   9721   9724     1  0.0000000  0.6508444  3
   9720   9718   9721   9722     1  0.0000000  0.6508444  3
   9720   9718   9721   9723     1  0.0000000  0.6508444  3
   9720   9718   9715   9743     1  0.0000000  1.0460000  1
   9720   9718   9715   9743     1  0.0000000  0.0000000  3
   9721   9724   9725   9726     1  0.0000000  1.2552000  3
   9721   9724   9725   9727     1  0.0000000  1.2552000  3
   9721   9724   9734   9735     1  0.0000000  1.2552000  3
   9721   9724   9734   9736     1  0.0000000  1.2552000  3
   9722   9721   9724   9725     1  0.0000000  1.2552000  3
   9722   9721   9724   9734     1  0.0000000  1.2552000  3
   9723   9721   9724   9725     1  0.0000000  1.2552000  3
   9723   9721   9724   9734     1  0.0000000  1.2552000  3
   9724   9725   9728   9729     1  0.0000000  0.6508444  3
   9724   9725   9728   9730     1  0.0000000  0.6508444  3
   9724   9734   9737   9738     1  0.0000000  0.6508444  3
   9724   9734   9737   9739     1  0.0000000  0.6508444  3
   9725   9724   9734   9735     1  0.0000000  1.2552000  3
   9725   9724   9734   9736     1  0.0000000  1.2552000  3
   9726   9725   9728   9731     1  0.0000000  0.6508444  3
   9726   9725   9728   9729     1  0.0000000  0.6508444  3
   9726   9725   9728   9730     1  0.0000000  0.6508444  3
   9726   9725   9724   9734     1  0.0000000  1.2552000  3
   9727   9725   9728   9731     1  0.0000000  0.6508444  3
   9727   9725   9728   9729     1  0.0000000  0.6508444  3
   9727   9725   9728   9730     1  0.0000000  0.6508444  3
   9727   9725   9724   9734     1  0.0000000  1.2552000  3
   9729   9728   9731   9732     1  0.0000000  3.3472000  1
   9729   9728   9731   9732     1  0.0000000  0.0000000  2
   9729   9728   9731   9732     1  180.0000771  0.3347200  3
   9729   9728   9731   9733     1  0.0000000  3.3472000  1
   9729   9728   9731   9733     1  0.0000000  0.0000000  2
   9729   9728   9731   9733     1  180.0000771  0.3347200  3
   9730   9728   9731   9732     1  0.0000000  3.3472000  1
   9730   9728   9731   9732     1  0.0000000  0.0000000  2
   9730   9728   9731   9732     1  180.0000771  0.3347200  3
   9730   9728   9731   9733     1  0.0000000  3.3472000  1
   9730   9728   9731   9733     1  0.0000000  0.0000000  2
   9730   9728   9731   9733     1  180.0000771  0.3347200  3
   9735   9734   9737   9740     1  0.0000000  0.6508444  3
   9735   9734   9737   9738     1  0.0000000  0.6508444  3
   9735   9734   9737   9739     1  0.0000000  0.6508444  3
   9736   9734   9737   9740     1  0.0000000  0.6508444  3
   9736   9734   9737   9738     1  0.0000000  0.6508444  3
   9736   9734   9737   9739     1  0.0000000  0.6508444  3
   9738   9737   9740   9741     1  0.0000000  3.3472000  1
   9738   9737   9740   9741     1  0.0000000  0.0000000  2
   9738   9737   9740   9741     1  180.0000771  0.3347200  3
   9738   9737   9740   9742     1  0.0000000  3.3472000  1
   9738   9737   9740   9742     1  0.0000000  0.0000000  2
   9738   9737   9740   9742     1  180.0000771  0.3347200  3
   9739   9737   9740   9741     1  0.0000000  3.3472000  1
   9739   9737   9740   9741     1  0.0000000  0.0000000  2
   9739   9737   9740   9741     1  180.0000771  0.3347200  3
   9739   9737   9740   9742     1  0.0000000  3.3472000  1
   9739   9737   9740   9742     1  0.0000000  0.0000000  2
   9739   9737   9740   9742     1  180.0000771  0.3347200  3
   9744   9747   9750   9751     1  0.0000000  0.6508444  3
   9744   9747   9750   9752     1  0.0000000  0.6508444  3
   9745   9744   9747   9750     1  0.0000000  0.6508444  3
   9745   9744   9747   9748     1  0.0000000  0.6508444  3
   9745   9744   9747   9749     1  0.0000000  0.6508444  3
   9746   9744   9747   9750     1  0.0000000  0.6508444  3
   9746   9744   9747   9748     1  0.0000000  0.6508444  3
   9746   9744   9747   9749     1  0.0000000  0.6508444  3
   9748   9747   9744   9772     1  0.0000000  1.0460000  1
   9748   9747   9744   9772     1  0.0000000  0.0000000  3
   9748   9747   9750   9753     1  0.0000000  0.6508444  3
   9748   9747   9750   9751     1  0.0000000  0.6508444  3
   9748   9747   9750   9752     1  0.0000000  0.6508444  3
   9749   9747   9744   9772     1  0.0000000  1.0460000  1
   9749   9747   9744   9772     1  0.0000000  0.0000000  3
   9749   9747   9750   9753     1  0.0000000  0.6508444  3
   9749   9747   9750   9751     1  0.0000000  0.6508444  3
   9749   9747   9750   9752     1  0.0000000  0.6508444  3
   9750   9753   9754   9755     1  0.0000000  1.2552000  3
   9750   9753   9754   9756     1  0.0000000  1.2552000  3
   9750   9753   9763   9764     1  0.0000000  1.2552000  3
   9750   9753   9763   9765     1  0.0000000  1.2552000  3
   9751   9750   9753   9754     1  0.0000000  1.2552000  3
   9751   9750   9753   9763     1  0.0000000  1.2552000  3
   9752   9750   9753   9754     1  0.0000000  1.2552000  3
   9752   9750   9753   9763     1  0.0000000  1.2552000  3
   9753   9754   9757   9758     1  0.0000000  0.6508444  3
   9753   9754   9757   9759     1  0.0000000  0.6508444  3
   9753   9763   9766   9767     1  0.0000000  0.6508444  3
   9753   9763   9766   9768     1  0.0000000  0.6508444  3
   9754   9753   9763   9764     1  0.0000000  1.2552000  3
   9754   9753   9763   9765     1  0.0000000  1.2552000  3
   9755   9754   9753   9763     1  0.0000000  1.2552000  3
   9755   9754   9757   9760     1  0.0000000  0.6508444  3
   9755   9754   9757   9758     1  0.0000000  0.6508444  3
   9755   9754   9757   9759     1  0.0000000  0.6508444  3
   9756   9754   9753   9763     1  0.0000000  1.2552000  3
   9756   9754   9757   9760     1  0.0000000  0.6508444  3
   9756   9754   9757   9758     1  0.0000000  0.6508444  3
   9756   9754   9757   9759     1  0.0000000  0.6508444  3
   9758   9757   9760   9761     1  0.0000000  3.3472000  1
   9758   9757   9760   9761     1  0.0000000  0.0000000  2
   9758   9757   9760   9761     1  180.0000771  0.3347200  3
   9758   9757   9760   9762     1  0.0000000  3.3472000  1
   9758   9757   9760   9762     1  0.0000000  0.0000000  2
   9758   9757   9760   9762     1  180.0000771  0.3347200  3
   9759   9757   9760   9761     1  0.0000000  3.3472000  1
   9759   9757   9760   9761     1  0.0000000  0.0000000  2
   9759   9757   9760   9761     1  180.0000771  0.3347200  3
   9759   9757   9760   9762     1  0.0000000  3.3472000  1
   9759   9757   9760   9762     1  0.0000000  0.0000000  2
   9759   9757   9760   9762     1  180.0000771  0.3347200  3
   9764   9763   9766   9769     1  0.0000000  0.6508444  3
   9764   9763   9766   9767     1  0.0000000  0.6508444  3
   9764   9763   9766   9768     1  0.0000000  0.6508444  3
   9765   9763   9766   9769     1  0.0000000  0.6508444  3
   9765   9763   9766   9767     1  0.0000000  0.6508444  3
   9765   9763   9766   9768     1  0.0000000  0.6508444  3
   9767   9766   9769   9770     1  0.0000000  3.3472000  1
   9767   9766   9769   9770     1  0.0000000  0.0000000  2
   9767   9766   9769   9770     1  180.0000771  0.3347200  3
   9767   9766   9769   9771     1  0.0000000  3.3472000  1
   9767   9766   9769   9771     1  0.0000000  0.0000000  2
   9767   9766   9769   9771     1  180.0000771  0.3347200  3
   9768   9766   9769   9770     1  0.0000000  3.3472000  1
   9768   9766   9769   9770     1  0.0000000  0.0000000  2
   9768   9766   9769   9770     1  180.0000771  0.3347200  3
   9768   9766   9769   9771     1  0.0000000  3.3472000  1
   9768   9766   9769   9771     1  0.0000000  0.0000000  2
   9768   9766   9769   9771     1  180.0000771  0.3347200  3
   9773   9776   9779   9780     1  0.0000000  0.6508444  3
   9773   9776   9779   9781     1  0.0000000  0.6508444  3
   9774   9773   9776   9779     1  0.0000000  0.6508444  3
   9774   9773   9776   9777     1  0.0000000  0.6508444  3
   9774   9773   9776   9778     1  0.0000000  0.6508444  3
   9775   9773   9776   9779     1  0.0000000  0.6508444  3
   9775   9773   9776   9777     1  0.0000000  0.6508444  3
   9775   9773   9776   9778     1  0.0000000  0.6508444  3
   9777   9776   9779   9782     1  0.0000000  0.6508444  3
   9777   9776   9779   9780     1  0.0000000  0.6508444  3
   9777   9776   9779   9781     1  0.0000000  0.6508444  3
   9777   9776   9773   9801     1  0.0000000  1.0460000  1
   9777   9776   9773   9801     1  0.0000000  0.0000000  3
   9778   9776   9779   9782     1  0.0000000  0.6508444  3
   9778   9776   9779   9780     1  0.0000000  0.6508444  3
   9778   9776   9779   9781     1  0.0000000  0.6508444  3
   9778   9776   9773   9801     1  0.0000000  1.0460000  1
   9778   9776   9773   9801     1  0.0000000  0.0000000  3
   9779   9782   9783   9784     1  0.0000000  1.2552000  3
   9779   9782   9783   9785     1  0.0000000  1.2552000  3
   9779   9782   9792   9793     1  0.0000000  1.2552000  3
   9779   9782   9792   9794     1  0.0000000  1.2552000  3
   9780   9779   9782   9783     1  0.0000000  1.2552000  3
   9780   9779   9782   9792     1  0.0000000  1.2552000  3
   9781   9779   9782   9783     1  0.0000000  1.2552000  3
   9781   9779   9782   9792     1  0.0000000  1.2552000  3
   9782   9783   9786   9787     1  0.0000000  0.6508444  3
   9782   9783   9786   9788     1  0.0000000  0.6508444  3
   9782   9792   9795   9796     1  0.0000000  0.6508444  3
   9782   9792   9795   9797     1  0.0000000  0.6508444  3
   9783   9782   9792   9793     1  0.0000000  1.2552000  3
   9783   9782   9792   9794     1  0.0000000  1.2552000  3
   9784   9783   9786   9789     1  0.0000000  0.6508444  3
   9784   9783   9786   9787     1  0.0000000  0.6508444  3
   9784   9783   9786   9788     1  0.0000000  0.6508444  3
   9784   9783   9782   9792     1  0.0000000  1.2552000  3
   9785   9783   9786   9789     1  0.0000000  0.6508444  3
   9785   9783   9786   9787     1  0.0000000  0.6508444  3
   9785   9783   9786   9788     1  0.0000000  0.6508444  3
   9785   9783   9782   9792     1  0.0000000  1.2552000  3
   9787   9786   9789   9790     1  0.0000000  3.3472000  1
   9787   9786   9789   9790     1  0.0000000  0.0000000  2
   9787   9786   9789   9790     1  180.0000771  0.3347200  3
   9787   9786   9789   9791     1  0.0000000  3.3472000  1
   9787   9786   9789   9791     1  0.0000000  0.0000000  2
   9787   9786   9789   9791     1  180.0000771  0.3347200  3
   9788   9786   9789   9790     1  0.0000000  3.3472000  1
   9788   9786   9789   9790     1  0.0000000  0.0000000  2
   9788   9786   9789   9790     1  180.0000771  0.3347200  3
   9788   9786   9789   9791     1  0.0000000  3.3472000  1
   9788   9786   9789   9791     1  0.0000000  0.0000000  2
   9788   9786   9789   9791     1  180.0000771  0.3347200  3
   9793   9792   9795   9798     1  0.0000000  0.6508444  3
   9793   9792   9795   9796     1  0.0000000  0.6508444  3
   9793   9792   9795   9797     1  0.0000000  0.6508444  3
   9794   9792   9795   9798     1  0.0000000  0.6508444  3
   9794   9792   9795   9796     1  0.0000000  0.6508444  3
   9794   9792   9795   9797     1  0.0000000  0.6508444  3
   9796   9795   9798   9799     1  0.0000000  3.3472000  1
   9796   9795   9798   9799     1  0.0000000  0.0000000  2
   9796   9795   9798   9799     1  180.0000771  0.3347200  3
   9796   9795   9798   9800     1  0.0000000  3.3472000  1
   9796   9795   9798   9800     1  0.0000000  0.0000000  2
   9796   9795   9798   9800     1  180.0000771  0.3347200  3
   9797   9795   9798   9799     1  0.0000000  3.3472000  1
   9797   9795   9798   9799     1  0.0000000  0.0000000  2
   9797   9795   9798   9799     1  180.0000771  0.3347200  3
   9797   9795   9798   9800     1  0.0000000  3.3472000  1
   9797   9795   9798   9800     1  0.0000000  0.0000000  2
   9797   9795   9798   9800     1  180.0000771  0.3347200  3
   9802   9805   9808   9809     1  0.0000000  0.6508444  3
   9802   9805   9808   9810     1  0.0000000  0.6508444  3
   9803   9802   9805   9808     1  0.0000000  0.6508444  3
   9803   9802   9805   9806     1  0.0000000  0.6508444  3
   9803   9802   9805   9807     1  0.0000000  0.6508444  3
   9804   9802   9805   9808     1  0.0000000  0.6508444  3
   9804   9802   9805   9806     1  0.0000000  0.6508444  3
   9804   9802   9805   9807     1  0.0000000  0.6508444  3
   9806   9805   9802   9830     1  0.0000000  1.0460000  1
   9806   9805   9802   9830     1  0.0000000  0.0000000  3
   9806   9805   9808   9811     1  0.0000000  0.6508444  3
   9806   9805   9808   9809     1  0.0000000  0.6508444  3
   9806   9805   9808   9810     1  0.0000000  0.6508444  3
   9807   9805   9802   9830     1  0.0000000  1.0460000  1
   9807   9805   9802   9830     1  0.0000000  0.0000000  3
   9807   9805   9808   9811     1  0.0000000  0.6508444  3
   9807   9805   9808   9809     1  0.0000000  0.6508444  3
   9807   9805   9808   9810     1  0.0000000  0.6508444  3
   9808   9811   9812   9813     1  0.0000000  1.2552000  3
   9808   9811   9812   9814     1  0.0000000  1.2552000  3
   9808   9811   9821   9822     1  0.0000000  1.2552000  3
   9808   9811   9821   9823     1  0.0000000  1.2552000  3
   9809   9808   9811   9812     1  0.0000000  1.2552000  3
   9809   9808   9811   9821     1  0.0000000  1.2552000  3
   9810   9808   9811   9812     1  0.0000000  1.2552000  3
   9810   9808   9811   9821     1  0.0000000  1.2552000  3
   9811   9812   9815   9816     1  0.0000000  0.6508444  3
   9811   9812   9815   9817     1  0.0000000  0.6508444  3
   9811   9821   9824   9825     1  0.0000000  0.6508444  3
   9811   9821   9824   9826     1  0.0000000  0.6508444  3
   9812   9811   9821   9822     1  0.0000000  1.2552000  3
   9812   9811   9821   9823     1  0.0000000  1.2552000  3
   9813   9812   9811   9821     1  0.0000000  1.2552000  3
   9813   9812   9815   9818     1  0.0000000  0.6508444  3
   9813   9812   9815   9816     1  0.0000000  0.6508444  3
   9813   9812   9815   9817     1  0.0000000  0.6508444  3
   9814   9812   9811   9821     1  0.0000000  1.2552000  3
   9814   9812   9815   9818     1  0.0000000  0.6508444  3
   9814   9812   9815   9816     1  0.0000000  0.6508444  3
   9814   9812   9815   9817     1  0.0000000  0.6508444  3
   9816   9815   9818   9819     1  0.0000000  3.3472000  1
   9816   9815   9818   9819     1  0.0000000  0.0000000  2
   9816   9815   9818   9819     1  180.0000771  0.3347200  3
   9816   9815   9818   9820     1  0.0000000  3.3472000  1
   9816   9815   9818   9820     1  0.0000000  0.0000000  2
   9816   9815   9818   9820     1  180.0000771  0.3347200  3
   9817   9815   9818   9819     1  0.0000000  3.3472000  1
   9817   9815   9818   9819     1  0.0000000  0.0000000  2
   9817   9815   9818   9819     1  180.0000771  0.3347200  3
   9817   9815   9818   9820     1  0.0000000  3.3472000  1
   9817   9815   9818   9820     1  0.0000000  0.0000000  2
   9817   9815   9818   9820     1  180.0000771  0.3347200  3
   9822   9821   9824   9827     1  0.0000000  0.6508444  3
   9822   9821   9824   9825     1  0.0000000  0.6508444  3
   9822   9821   9824   9826     1  0.0000000  0.6508444  3
   9823   9821   9824   9827     1  0.0000000  0.6508444  3
   9823   9821   9824   9825     1  0.0000000  0.6508444  3
   9823   9821   9824   9826     1  0.0000000  0.6508444  3
   9825   9824   9827   9828     1  0.0000000  3.3472000  1
   9825   9824   9827   9828     1  0.0000000  0.0000000  2
   9825   9824   9827   9828     1  180.0000771  0.3347200  3
   9825   9824   9827   9829     1  0.0000000  3.3472000  1
   9825   9824   9827   9829     1  0.0000000  0.0000000  2
   9825   9824   9827   9829     1  180.0000771  0.3347200  3
   9826   9824   9827   9828     1  0.0000000  3.3472000  1
   9826   9824   9827   9828     1  0.0000000  0.0000000  2
   9826   9824   9827   9828     1  180.0000771  0.3347200  3
   9826   9824   9827   9829     1  0.0000000  3.3472000  1
   9826   9824   9827   9829     1  0.0000000  0.0000000  2
   9826   9824   9827   9829     1  180.0000771  0.3347200  3
   9831   9834   9837   9838     1  0.0000000  0.6508444  3
   9831   9834   9837   9839     1  0.0000000  0.6508444  3
   9832   9831   9834   9837     1  0.0000000  0.6508444  3
   9832   9831   9834   9835     1  0.0000000  0.6508444  3
   9832   9831   9834   9836     1  0.0000000  0.6508444  3
   9833   9831   9834   9837     1  0.0000000  0.6508444  3
   9833   9831   9834   9835     1  0.0000000  0.6508444  3
   9833   9831   9834   9836     1  0.0000000  0.6508444  3
   9835   9834   9837   9840     1  0.0000000  0.6508444  3
   9835   9834   9837   9838     1  0.0000000  0.6508444  3
   9835   9834   9837   9839     1  0.0000000  0.6508444  3
   9835   9834   9831   9859     1  0.0000000  1.0460000  1
   9835   9834   9831   9859     1  0.0000000  0.0000000  3
   9836   9834   9837   9840     1  0.0000000  0.6508444  3
   9836   9834   9837   9838     1  0.0000000  0.6508444  3
   9836   9834   9837   9839     1  0.0000000  0.6508444  3
   9836   9834   9831   9859     1  0.0000000  1.0460000  1
   9836   9834   9831   9859     1  0.0000000  0.0000000  3
   9837   9840   9841   9842     1  0.0000000  1.2552000  3
   9837   9840   9841   9843     1  0.0000000  1.2552000  3
   9837   9840   9850   9851     1  0.0000000  1.2552000  3
   9837   9840   9850   9852     1  0.0000000  1.2552000  3
   9838   9837   9840   9841     1  0.0000000  1.2552000  3
   9838   9837   9840   9850     1  0.0000000  1.2552000  3
   9839   9837   9840   9841     1  0.0000000  1.2552000  3
   9839   9837   9840   9850     1  0.0000000  1.2552000  3
   9840   9841   9844   9845     1  0.0000000  0.6508444  3
   9840   9841   9844   9846     1  0.0000000  0.6508444  3
   9840   9850   9853   9854     1  0.0000000  0.6508444  3
   9840   9850   9853   9855     1  0.0000000  0.6508444  3
   9841   9840   9850   9851     1  0.0000000  1.2552000  3
   9841   9840   9850   9852     1  0.0000000  1.2552000  3
   9842   9841   9844   9847     1  0.0000000  0.6508444  3
   9842   9841   9844   9845     1  0.0000000  0.6508444  3
   9842   9841   9844   9846     1  0.0000000  0.6508444  3
   9842   9841   9840   9850     1  0.0000000  1.2552000  3
   9843   9841   9844   9847     1  0.0000000  0.6508444  3
   9843   9841   9844   9845     1  0.0000000  0.6508444  3
   9843   9841   9844   9846     1  0.0000000  0.6508444  3
   9843   9841   9840   9850     1  0.0000000  1.2552000  3
   9845   9844   9847   9848     1  0.0000000  3.3472000  1
   9845   9844   9847   9848     1  0.0000000  0.0000000  2
   9845   9844   9847   9848     1  180.0000771  0.3347200  3
   9845   9844   9847   9849     1  0.0000000  3.3472000  1
   9845   9844   9847   9849     1  0.0000000  0.0000000  2
   9845   9844   9847   9849     1  180.0000771  0.3347200  3
   9846   9844   9847   9848     1  0.0000000  3.3472000  1
   9846   9844   9847   9848     1  0.0000000  0.0000000  2
   9846   9844   9847   9848     1  180.0000771  0.3347200  3
   9846   9844   9847   9849     1  0.0000000  3.3472000  1
   9846   9844   9847   9849     1  0.0000000  0.0000000  2
   9846   9844   9847   9849     1  180.0000771  0.3347200  3
   9851   9850   9853   9856     1  0.0000000  0.6508444  3
   9851   9850   9853   9854     1  0.0000000  0.6508444  3
   9851   9850   9853   9855     1  0.0000000  0.6508444  3
   9852   9850   9853   9856     1  0.0000000  0.6508444  3
   9852   9850   9853   9854     1  0.0000000  0.6508444  3
   9852   9850   9853   9855     1  0.0000000  0.6508444  3
   9854   9853   9856   9857     1  0.0000000  3.3472000  1
   9854   9853   9856   9857     1  0.0000000  0.0000000  2
   9854   9853   9856   9857     1  180.0000771  0.3347200  3
   9854   9853   9856   9858     1  0.0000000  3.3472000  1
   9854   9853   9856   9858     1  0.0000000  0.0000000  2
   9854   9853   9856   9858     1  180.0000771  0.3347200  3
   9855   9853   9856   9857     1  0.0000000  3.3472000  1
   9855   9853   9856   9857     1  0.0000000  0.0000000  2
   9855   9853   9856   9857     1  180.0000771  0.3347200  3
   9855   9853   9856   9858     1  0.0000000  3.3472000  1
   9855   9853   9856   9858     1  0.0000000  0.0000000  2
   9855   9853   9856   9858     1  180.0000771  0.3347200  3
   9860   9863   9866   9867     1  0.0000000  0.6508444  3
   9860   9863   9866   9868     1  0.0000000  0.6508444  3
   9861   9860   9863   9866     1  0.0000000  0.6508444  3
   9861   9860   9863   9864     1  0.0000000  0.6508444  3
   9861   9860   9863   9865     1  0.0000000  0.6508444  3
   9862   9860   9863   9866     1  0.0000000  0.6508444  3
   9862   9860   9863   9864     1  0.0000000  0.6508444  3
   9862   9860   9863   9865     1  0.0000000  0.6508444  3
   9864   9863   9860   9888     1  0.0000000  1.0460000  1
   9864   9863   9860   9888     1  0.0000000  0.0000000  3
   9864   9863   9866   9869     1  0.0000000  0.6508444  3
   9864   9863   9866   9867     1  0.0000000  0.6508444  3
   9864   9863   9866   9868     1  0.0000000  0.6508444  3
   9865   9863   9860   9888     1  0.0000000  1.0460000  1
   9865   9863   9860   9888     1  0.0000000  0.0000000  3
   9865   9863   9866   9869     1  0.0000000  0.6508444  3
   9865   9863   9866   9867     1  0.0000000  0.6508444  3
   9865   9863   9866   9868     1  0.0000000  0.6508444  3
   9866   9869   9870   9871     1  0.0000000  1.2552000  3
   9866   9869   9870   9872     1  0.0000000  1.2552000  3
   9866   9869   9879   9880     1  0.0000000  1.2552000  3
   9866   9869   9879   9881     1  0.0000000  1.2552000  3
   9867   9866   9869   9870     1  0.0000000  1.2552000  3
   9867   9866   9869   9879     1  0.0000000  1.2552000  3
   9868   9866   9869   9870     1  0.0000000  1.2552000  3
   9868   9866   9869   9879     1  0.0000000  1.2552000  3
   9869   9870   9873   9874     1  0.0000000  0.6508444  3
   9869   9870   9873   9875     1  0.0000000  0.6508444  3
   9869   9879   9882   9883     1  0.0000000  0.6508444  3
   9869   9879   9882   9884     1  0.0000000  0.6508444  3
   9870   9869   9879   9880     1  0.0000000  1.2552000  3
   9870   9869   9879   9881     1  0.0000000  1.2552000  3
   9871   9870   9869   9879     1  0.0000000  1.2552000  3
   9871   9870   9873   9876     1  0.0000000  0.6508444  3
   9871   9870   9873   9874     1  0.0000000  0.6508444  3
   9871   9870   9873   9875     1  0.0000000  0.6508444  3
   9872   9870   9869   9879     1  0.0000000  1.2552000  3
   9872   9870   9873   9876     1  0.0000000  0.6508444  3
   9872   9870   9873   9874     1  0.0000000  0.6508444  3
   9872   9870   9873   9875     1  0.0000000  0.6508444  3
   9874   9873   9876   9877     1  0.0000000  3.3472000  1
   9874   9873   9876   9877     1  0.0000000  0.0000000  2
   9874   9873   9876   9877     1  180.0000771  0.3347200  3
   9874   9873   9876   9878     1  0.0000000  3.3472000  1
   9874   9873   9876   9878     1  0.0000000  0.0000000  2
   9874   9873   9876   9878     1  180.0000771  0.3347200  3
   9875   9873   9876   9877     1  0.0000000  3.3472000  1
   9875   9873   9876   9877     1  0.0000000  0.0000000  2
   9875   9873   9876   9877     1  180.0000771  0.3347200  3
   9875   9873   9876   9878     1  0.0000000  3.3472000  1
   9875   9873   9876   9878     1  0.0000000  0.0000000  2
   9875   9873   9876   9878     1  180.0000771  0.3347200  3
   9880   9879   9882   9885     1  0.0000000  0.6508444  3
   9880   9879   9882   9883     1  0.0000000  0.6508444  3
   9880   9879   9882   9884     1  0.0000000  0.6508444  3
   9881   9879   9882   9885     1  0.0000000  0.6508444  3
   9881   9879   9882   9883     1  0.0000000  0.6508444  3
   9881   9879   9882   9884     1  0.0000000  0.6508444  3
   9883   9882   9885   9886     1  0.0000000  3.3472000  1
   9883   9882   9885   9886     1  0.0000000  0.0000000  2
   9883   9882   9885   9886     1  180.0000771  0.3347200  3
   9883   9882   9885   9887     1  0.0000000  3.3472000  1
   9883   9882   9885   9887     1  0.0000000  0.0000000  2
   9883   9882   9885   9887     1  180.0000771  0.3347200  3
   9884   9882   9885   9886     1  0.0000000  3.3472000  1
   9884   9882   9885   9886     1  0.0000000  0.0000000  2
   9884   9882   9885   9886     1  180.0000771  0.3347200  3
   9884   9882   9885   9887     1  0.0000000  3.3472000  1
   9884   9882   9885   9887     1  0.0000000  0.0000000  2
   9884   9882   9885   9887     1  180.0000771  0.3347200  3
   9889   9892   9895   9896     1  0.0000000  0.6508444  3
   9889   9892   9895   9897     1  0.0000000  0.6508444  3
   9890   9889   9892   9895     1  0.0000000  0.6508444  3
   9890   9889   9892   9893     1  0.0000000  0.6508444  3
   9890   9889   9892   9894     1  0.0000000  0.6508444  3
   9891   9889   9892   9895     1  0.0000000  0.6508444  3
   9891   9889   9892   9893     1  0.0000000  0.6508444  3
   9891   9889   9892   9894     1  0.0000000  0.6508444  3
   9893   9892   9895   9898     1  0.0000000  0.6508444  3
   9893   9892   9895   9896     1  0.0000000  0.6508444  3
   9893   9892   9895   9897     1  0.0000000  0.6508444  3
   9893   9892   9889   9917     1  0.0000000  1.0460000  1
   9893   9892   9889   9917     1  0.0000000  0.0000000  3
   9894   9892   9895   9898     1  0.0000000  0.6508444  3
   9894   9892   9895   9896     1  0.0000000  0.6508444  3
   9894   9892   9895   9897     1  0.0000000  0.6508444  3
   9894   9892   9889   9917     1  0.0000000  1.0460000  1
   9894   9892   9889   9917     1  0.0000000  0.0000000  3
   9895   9898   9899   9900     1  0.0000000  1.2552000  3
   9895   9898   9899   9901     1  0.0000000  1.2552000  3
   9895   9898   9908   9909     1  0.0000000  1.2552000  3
   9895   9898   9908   9910     1  0.0000000  1.2552000  3
   9896   9895   9898   9899     1  0.0000000  1.2552000  3
   9896   9895   9898   9908     1  0.0000000  1.2552000  3
   9897   9895   9898   9899     1  0.0000000  1.2552000  3
   9897   9895   9898   9908     1  0.0000000  1.2552000  3
   9898   9899   9902   9903     1  0.0000000  0.6508444  3
   9898   9899   9902   9904     1  0.0000000  0.6508444  3
   9898   9908   9911   9912     1  0.0000000  0.6508444  3
   9898   9908   9911   9913     1  0.0000000  0.6508444  3
   9899   9898   9908   9909     1  0.0000000  1.2552000  3
   9899   9898   9908   9910     1  0.0000000  1.2552000  3
   9900   9899   9902   9905     1  0.0000000  0.6508444  3
   9900   9899   9902   9903     1  0.0000000  0.6508444  3
   9900   9899   9902   9904     1  0.0000000  0.6508444  3
   9900   9899   9898   9908     1  0.0000000  1.2552000  3
   9901   9899   9902   9905     1  0.0000000  0.6508444  3
   9901   9899   9902   9903     1  0.0000000  0.6508444  3
   9901   9899   9902   9904     1  0.0000000  0.6508444  3
   9901   9899   9898   9908     1  0.0000000  1.2552000  3
   9903   9902   9905   9906     1  0.0000000  3.3472000  1
   9903   9902   9905   9906     1  0.0000000  0.0000000  2
   9903   9902   9905   9906     1  180.0000771  0.3347200  3
   9903   9902   9905   9907     1  0.0000000  3.3472000  1
   9903   9902   9905   9907     1  0.0000000  0.0000000  2
   9903   9902   9905   9907     1  180.0000771  0.3347200  3
   9904   9902   9905   9906     1  0.0000000  3.3472000  1
   9904   9902   9905   9906     1  0.0000000  0.0000000  2
   9904   9902   9905   9906     1  180.0000771  0.3347200  3
   9904   9902   9905   9907     1  0.0000000  3.3472000  1
   9904   9902   9905   9907     1  0.0000000  0.0000000  2
   9904   9902   9905   9907     1  180.0000771  0.3347200  3
   9909   9908   9911   9914     1  0.0000000  0.6508444  3
   9909   9908   9911   9912     1  0.0000000  0.6508444  3
   9909   9908   9911   9913     1  0.0000000  0.6508444  3
   9910   9908   9911   9914     1  0.0000000  0.6508444  3
   9910   9908   9911   9912     1  0.0000000  0.6508444  3
   9910   9908   9911   9913     1  0.0000000  0.6508444  3
   9912   9911   9914   9915     1  0.0000000  3.3472000  1
   9912   9911   9914   9915     1  0.0000000  0.0000000  2
   9912   9911   9914   9915     1  180.0000771  0.3347200  3
   9912   9911   9914   9916     1  0.0000000  3.3472000  1
   9912   9911   9914   9916     1  0.0000000  0.0000000  2
   9912   9911   9914   9916     1  180.0000771  0.3347200  3
   9913   9911   9914   9915     1  0.0000000  3.3472000  1
   9913   9911   9914   9915     1  0.0000000  0.0000000  2
   9913   9911   9914   9915     1  180.0000771  0.3347200  3
   9913   9911   9914   9916     1  0.0000000  3.3472000  1
   9913   9911   9914   9916     1  0.0000000  0.0000000  2
   9913   9911   9914   9916     1  180.0000771  0.3347200  3
   9918   9921   9924   9925     1  0.0000000  0.6508444  3
   9918   9921   9924   9926     1  0.0000000  0.6508444  3
   9919   9918   9921   9924     1  0.0000000  0.6508444  3
   9919   9918   9921   9922     1  0.0000000  0.6508444  3
   9919   9918   9921   9923     1  0.0000000  0.6508444  3
   9920   9918   9921   9924     1  0.0000000  0.6508444  3
   9920   9918   9921   9922     1  0.0000000  0.6508444  3
   9920   9918   9921   9923     1  0.0000000  0.6508444  3
   9922   9921   9918   9946     1  0.0000000  1.0460000  1
   9922   9921   9918   9946     1  0.0000000  0.0000000  3
   9922   9921   9924   9927     1  0.0000000  0.6508444  3
   9922   9921   9924   9925     1  0.0000000  0.6508444  3
   9922   9921   9924   9926     1  0.0000000  0.6508444  3
   9923   9921   9918   9946     1  0.0000000  1.0460000  1
   9923   9921   9918   9946     1  0.0000000  0.0000000  3
   9923   9921   9924   9927     1  0.0000000  0.6508444  3
   9923   9921   9924   9925     1  0.0000000  0.6508444  3
   9923   9921   9924   9926     1  0.0000000  0.6508444  3
   9924   9927   9928   9929     1  0.0000000  1.2552000  3
   9924   9927   9928   9930     1  0.0000000  1.2552000  3
   9924   9927   9937   9938     1  0.0000000  1.2552000  3
   9924   9927   9937   9939     1  0.0000000  1.2552000  3
   9925   9924   9927   9928     1  0.0000000  1.2552000  3
   9925   9924   9927   9937     1  0.0000000  1.2552000  3
   9926   9924   9927   9928     1  0.0000000  1.2552000  3
   9926   9924   9927   9937     1  0.0000000  1.2552000  3
   9927   9928   9931   9932     1  0.0000000  0.6508444  3
   9927   9928   9931   9933     1  0.0000000  0.6508444  3
   9927   9937   9940   9941     1  0.0000000  0.6508444  3
   9927   9937   9940   9942     1  0.0000000  0.6508444  3
   9928   9927   9937   9938     1  0.0000000  1.2552000  3
   9928   9927   9937   9939     1  0.0000000  1.2552000  3
   9929   9928   9927   9937     1  0.0000000  1.2552000  3
   9929   9928   9931   9934     1  0.0000000  0.6508444  3
   9929   9928   9931   9932     1  0.0000000  0.6508444  3
   9929   9928   9931   9933     1  0.0000000  0.6508444  3
   9930   9928   9927   9937     1  0.0000000  1.2552000  3
   9930   9928   9931   9934     1  0.0000000  0.6508444  3
   9930   9928   9931   9932     1  0.0000000  0.6508444  3
   9930   9928   9931   9933     1  0.0000000  0.6508444  3
   9932   9931   9934   9935     1  0.0000000  3.3472000  1
   9932   9931   9934   9935     1  0.0000000  0.0000000  2
   9932   9931   9934   9935     1  180.0000771  0.3347200  3
   9932   9931   9934   9936     1  0.0000000  3.3472000  1
   9932   9931   9934   9936     1  0.0000000  0.0000000  2
   9932   9931   9934   9936     1  180.0000771  0.3347200  3
   9933   9931   9934   9935     1  0.0000000  3.3472000  1
   9933   9931   9934   9935     1  0.0000000  0.0000000  2
   9933   9931   9934   9935     1  180.0000771  0.3347200  3
   9933   9931   9934   9936     1  0.0000000  3.3472000  1
   9933   9931   9934   9936     1  0.0000000  0.0000000  2
   9933   9931   9934   9936     1  180.0000771  0.3347200  3
   9938   9937   9940   9943     1  0.0000000  0.6508444  3
   9938   9937   9940   9941     1  0.0000000  0.6508444  3
   9938   9937   9940   9942     1  0.0000000  0.6508444  3
   9939   9937   9940   9943     1  0.0000000  0.6508444  3
   9939   9937   9940   9941     1  0.0000000  0.6508444  3
   9939   9937   9940   9942     1  0.0000000  0.6508444  3
   9941   9940   9943   9944     1  0.0000000  3.3472000  1
   9941   9940   9943   9944     1  0.0000000  0.0000000  2
   9941   9940   9943   9944     1  180.0000771  0.3347200  3
   9941   9940   9943   9945     1  0.0000000  3.3472000  1
   9941   9940   9943   9945     1  0.0000000  0.0000000  2
   9941   9940   9943   9945     1  180.0000771  0.3347200  3
   9942   9940   9943   9944     1  0.0000000  3.3472000  1
   9942   9940   9943   9944     1  0.0000000  0.0000000  2
   9942   9940   9943   9944     1  180.0000771  0.3347200  3
   9942   9940   9943   9945     1  0.0000000  3.3472000  1
   9942   9940   9943   9945     1  0.0000000  0.0000000  2
   9942   9940   9943   9945     1  180.0000771  0.3347200  3
   9947   9950   9953   9954     1  0.0000000  0.6508444  3
   9947   9950   9953   9955     1  0.0000000  0.6508444  3
   9948   9947   9950   9953     1  0.0000000  0.6508444  3
   9948   9947   9950   9951     1  0.0000000  0.6508444  3
   9948   9947   9950   9952     1  0.0000000  0.6508444  3
   9949   9947   9950   9953     1  0.0000000  0.6508444  3
   9949   9947   9950   9951     1  0.0000000  0.6508444  3
   9949   9947   9950   9952     1  0.0000000  0.6508444  3
   9951   9950   9953   9956     1  0.0000000  0.6508444  3
   9951   9950   9953   9954     1  0.0000000  0.6508444  3
   9951   9950   9953   9955     1  0.0000000  0.6508444  3
   9951   9950   9947   9975     1  0.0000000  1.0460000  1
   9951   9950   9947   9975     1  0.0000000  0.0000000  3
   9952   9950   9953   9956     1  0.0000000  0.6508444  3
   9952   9950   9953   9954     1  0.0000000  0.6508444  3
   9952   9950   9953   9955     1  0.0000000  0.6508444  3
   9952   9950   9947   9975     1  0.0000000  1.0460000  1
   9952   9950   9947   9975     1  0.0000000  0.0000000  3
   9953   9956   9957   9958     1  0.0000000  1.2552000  3
   9953   9956   9957   9959     1  0.0000000  1.2552000  3
   9953   9956   9966   9967     1  0.0000000  1.2552000  3
   9953   9956   9966   9968     1  0.0000000  1.2552000  3
   9954   9953   9956   9957     1  0.0000000  1.2552000  3
   9954   9953   9956   9966     1  0.0000000  1.2552000  3
   9955   9953   9956   9957     1  0.0000000  1.2552000  3
   9955   9953   9956   9966     1  0.0000000  1.2552000  3
   9956   9957   9960   9961     1  0.0000000  0.6508444  3
   9956   9957   9960   9962     1  0.0000000  0.6508444  3
   9956   9966   9969   9970     1  0.0000000  0.6508444  3
   9956   9966   9969   9971     1  0.0000000  0.6508444  3
   9957   9956   9966   9967     1  0.0000000  1.2552000  3
   9957   9956   9966   9968     1  0.0000000  1.2552000  3
   9958   9957   9960   9963     1  0.0000000  0.6508444  3
   9958   9957   9960   9961     1  0.0000000  0.6508444  3
   9958   9957   9960   9962     1  0.0000000  0.6508444  3
   9958   9957   9956   9966     1  0.0000000  1.2552000  3
   9959   9957   9960   9963     1  0.0000000  0.6508444  3
   9959   9957   9960   9961     1  0.0000000  0.6508444  3
   9959   9957   9960   9962     1  0.0000000  0.6508444  3
   9959   9957   9956   9966     1  0.0000000  1.2552000  3
   9961   9960   9963   9964     1  0.0000000  3.3472000  1
   9961   9960   9963   9964     1  0.0000000  0.0000000  2
   9961   9960   9963   9964     1  180.0000771  0.3347200  3
   9961   9960   9963   9965     1  0.0000000  3.3472000  1
   9961   9960   9963   9965     1  0.0000000  0.0000000  2
   9961   9960   9963   9965     1  180.0000771  0.3347200  3
   9962   9960   9963   9964     1  0.0000000  3.3472000  1
   9962   9960   9963   9964     1  0.0000000  0.0000000  2
   9962   9960   9963   9964     1  180.0000771  0.3347200  3
   9962   9960   9963   9965     1  0.0000000  3.3472000  1
   9962   9960   9963   9965     1  0.0000000  0.0000000  2
   9962   9960   9963   9965     1  180.0000771  0.3347200  3
   9967   9966   9969   9972     1  0.0000000  0.6508444  3
   9967   9966   9969   9970     1  0.0000000  0.6508444  3
   9967   9966   9969   9971     1  0.0000000  0.6508444  3
   9968   9966   9969   9972     1  0.0000000  0.6508444  3
   9968   9966   9969   9970     1  0.0000000  0.6508444  3
   9968   9966   9969   9971     1  0.0000000  0.6508444  3
   9970   9969   9972   9973     1  0.0000000  3.3472000  1
   9970   9969   9972   9973     1  0.0000000  0.0000000  2
   9970   9969   9972   9973     1  180.0000771  0.3347200  3
   9970   9969   9972   9974     1  0.0000000  3.3472000  1
   9970   9969   9972   9974     1  0.0000000  0.0000000  2
   9970   9969   9972   9974     1  180.0000771  0.3347200  3
   9971   9969   9972   9973     1  0.0000000  3.3472000  1
   9971   9969   9972   9973     1  0.0000000  0.0000000  2
   9971   9969   9972   9973     1  180.0000771  0.3347200  3
   9971   9969   9972   9974     1  0.0000000  3.3472000  1
   9971   9969   9972   9974     1  0.0000000  0.0000000  2
   9971   9969   9972   9974     1  180.0000771  0.3347200  3
   9976   9979   9982   9983     1  0.0000000  0.6508444  3
   9976   9979   9982   9984     1  0.0000000  0.6508444  3
   9977   9976   9979   9982     1  0.0000000  0.6508444  3
   9977   9976   9979   9980     1  0.0000000  0.6508444  3
   9977   9976   9979   9981     1  0.0000000  0.6508444  3
   9978   9976   9979   9982     1  0.0000000  0.6508444  3
   9978   9976   9979   9980     1  0.0000000  0.6508444  3
   9978   9976   9979   9981     1  0.0000000  0.6508444  3
   9980   9979   9976  10004     1  0.0000000  1.0460000  1
   9980   9979   9976  10004     1  0.0000000  0.0000000  3
   9980   9979   9982   9985     1  0.0000000  0.6508444  3
   9980   9979   9982   9983     1  0.0000000  0.6508444  3
   9980   9979   9982   9984     1  0.0000000  0.6508444  3
   9981   9979   9976  10004     1  0.0000000  1.0460000  1
   9981   9979   9976  10004     1  0.0000000  0.0000000  3
   9981   9979   9982   9985     1  0.0000000  0.6508444  3
   9981   9979   9982   9983     1  0.0000000  0.6508444  3
   9981   9979   9982   9984     1  0.0000000  0.6508444  3
   9982   9985   9986   9987     1  0.0000000  1.2552000  3
   9982   9985   9986   9988     1  0.0000000  1.2552000  3
   9982   9985   9995   9996     1  0.0000000  1.2552000  3
   9982   9985   9995   9997     1  0.0000000  1.2552000  3
   9983   9982   9985   9986     1  0.0000000  1.2552000  3
   9983   9982   9985   9995     1  0.0000000  1.2552000  3
   9984   9982   9985   9986     1  0.0000000  1.2552000  3
   9984   9982   9985   9995     1  0.0000000  1.2552000  3
   9985   9986   9989   9990     1  0.0000000  0.6508444  3
   9985   9986   9989   9991     1  0.0000000  0.6508444  3
   9985   9995   9998   9999     1  0.0000000  0.6508444  3
   9985   9995   9998  10000     1  0.0000000  0.6508444  3
   9986   9985   9995   9996     1  0.0000000  1.2552000  3
   9986   9985   9995   9997     1  0.0000000  1.2552000  3
   9987   9986   9985   9995     1  0.0000000  1.2552000  3
   9987   9986   9989   9992     1  0.0000000  0.6508444  3
   9987   9986   9989   9990     1  0.0000000  0.6508444  3
   9987   9986   9989   9991     1  0.0000000  0.6508444  3
   9988   9986   9985   9995     1  0.0000000  1.2552000  3
   9988   9986   9989   9992     1  0.0000000  0.6508444  3
   9988   9986   9989   9990     1  0.0000000  0.6508444  3
   9988   9986   9989   9991     1  0.0000000  0.6508444  3
   9990   9989   9992   9993     1  0.0000000  3.3472000  1
   9990   9989   9992   9993     1  0.0000000  0.0000000  2
   9990   9989   9992   9993     1  180.0000771  0.3347200  3
   9990   9989   9992   9994     1  0.0000000  3.3472000  1
   9990   9989   9992   9994     1  0.0000000  0.0000000  2
   9990   9989   9992   9994     1  180.0000771  0.3347200  3
   9991   9989   9992   9993     1  0.0000000  3.3472000  1
   9991   9989   9992   9993     1  0.0000000  0.0000000  2
   9991   9989   9992   9993     1  180.0000771  0.3347200  3
   9991   9989   9992   9994     1  0.0000000  3.3472000  1
   9991   9989   9992   9994     1  0.0000000  0.0000000  2
   9991   9989   9992   9994     1  180.0000771  0.3347200  3
   9996   9995   9998  10001     1  0.0000000  0.6508444  3
   9996   9995   9998   9999     1  0.0000000  0.6508444  3
   9996   9995   9998  10000     1  0.0000000  0.6508444  3
   9997   9995   9998  10001     1  0.0000000  0.6508444  3
   9997   9995   9998   9999     1  0.0000000  0.6508444  3
   9997   9995   9998  10000     1  0.0000000  0.6508444  3
   9999   9998  10001  10002     1  0.0000000  3.3472000  1
   9999   9998  10001  10002     1  0.0000000  0.0000000  2
   9999   9998  10001  10002     1  180.0000771  0.3347200  3
   9999   9998  10001  10003     1  0.0000000  3.3472000  1
   9999   9998  10001  10003     1  0.0000000  0.0000000  2
   9999   9998  10001  10003     1  180.0000771  0.3347200  3
  10000   9998  10001  10002     1  0.0000000  3.3472000  1
  10000   9998  10001  10002     1  0.0000000  0.0000000  2
  10000   9998  10001  10002     1  180.0000771  0.3347200  3
  10000   9998  10001  10003     1  0.0000000  3.3472000  1
  10000   9998  10001  10003     1  0.0000000  0.0000000  2
  10000   9998  10001  10003     1  180.0000771  0.3347200  3
  10005  10008  10011  10012     1  0.0000000  0.6508444  3
  10005  10008  10011  10013     1  0.0000000  0.6508444  3
  10006  10005  10008  10011     1  0.0000000  0.6508444  3
  10006  10005  10008  10009     1  0.0000000  0.6508444  3
  10006  10005  10008  10010     1  0.0000000  0.6508444  3
  10007  10005  10008  10011     1  0.0000000  0.6508444  3
  10007  10005  10008  10009     1  0.0000000  0.6508444  3
  10007  10005  10008  10010     1  0.0000000  0.6508444  3
  10009  10008  10011  10014     1  0.0000000  0.6508444  3
  10009  10008  10011  10012     1  0.0000000  0.6508444  3
  10009  10008  10011  10013     1  0.0000000  0.6508444  3
  10009  10008  10005  10033     1  0.0000000  1.0460000  1
  10009  10008  10005  10033     1  0.0000000  0.0000000  3
  10010  10008  10011  10014     1  0.0000000  0.6508444  3
  10010  10008  10011  10012     1  0.0000000  0.6508444  3
  10010  10008  10011  10013     1  0.0000000  0.6508444  3
  10010  10008  10005  10033     1  0.0000000  1.0460000  1
  10010  10008  10005  10033     1  0.0000000  0.0000000  3
  10011  10014  10015  10016     1  0.0000000  1.2552000  3
  10011  10014  10015  10017     1  0.0000000  1.2552000  3
  10011  10014  10024  10025     1  0.0000000  1.2552000  3
  10011  10014  10024  10026     1  0.0000000  1.2552000  3
  10012  10011  10014  10015     1  0.0000000  1.2552000  3
  10012  10011  10014  10024     1  0.0000000  1.2552000  3
  10013  10011  10014  10015     1  0.0000000  1.2552000  3
  10013  10011  10014  10024     1  0.0000000  1.2552000  3
  10014  10015  10018  10019     1  0.0000000  0.6508444  3
  10014  10015  10018  10020     1  0.0000000  0.6508444  3
  10014  10024  10027  10028     1  0.0000000  0.6508444  3
  10014  10024  10027  10029     1  0.0000000  0.6508444  3
  10015  10014  10024  10025     1  0.0000000  1.2552000  3
  10015  10014  10024  10026     1  0.0000000  1.2552000  3
  10016  10015  10018  10021     1  0.0000000  0.6508444  3
  10016  10015  10018  10019     1  0.0000000  0.6508444  3
  10016  10015  10018  10020     1  0.0000000  0.6508444  3
  10016  10015  10014  10024     1  0.0000000  1.2552000  3
  10017  10015  10018  10021     1  0.0000000  0.6508444  3
  10017  10015  10018  10019     1  0.0000000  0.6508444  3
  10017  10015  10018  10020     1  0.0000000  0.6508444  3
  10017  10015  10014  10024     1  0.0000000  1.2552000  3
  10019  10018  10021  10022     1  0.0000000  3.3472000  1
  10019  10018  10021  10022     1  0.0000000  0.0000000  2
  10019  10018  10021  10022     1  180.0000771  0.3347200  3
  10019  10018  10021  10023     1  0.0000000  3.3472000  1
  10019  10018  10021  10023     1  0.0000000  0.0000000  2
  10019  10018  10021  10023     1  180.0000771  0.3347200  3
  10020  10018  10021  10022     1  0.0000000  3.3472000  1
  10020  10018  10021  10022     1  0.0000000  0.0000000  2
  10020  10018  10021  10022     1  180.0000771  0.3347200  3
  10020  10018  10021  10023     1  0.0000000  3.3472000  1
  10020  10018  10021  10023     1  0.0000000  0.0000000  2
  10020  10018  10021  10023     1  180.0000771  0.3347200  3
  10025  10024  10027  10030     1  0.0000000  0.6508444  3
  10025  10024  10027  10028     1  0.0000000  0.6508444  3
  10025  10024  10027  10029     1  0.0000000  0.6508444  3
  10026  10024  10027  10030     1  0.0000000  0.6508444  3
  10026  10024  10027  10028     1  0.0000000  0.6508444  3
  10026  10024  10027  10029     1  0.0000000  0.6508444  3
  10028  10027  10030  10031     1  0.0000000  3.3472000  1
  10028  10027  10030  10031     1  0.0000000  0.0000000  2
  10028  10027  10030  10031     1  180.0000771  0.3347200  3
  10028  10027  10030  10032     1  0.0000000  3.3472000  1
  10028  10027  10030  10032     1  0.0000000  0.0000000  2
  10028  10027  10030  10032     1  180.0000771  0.3347200  3
  10029  10027  10030  10031     1  0.0000000  3.3472000  1
  10029  10027  10030  10031     1  0.0000000  0.0000000  2
  10029  10027  10030  10031     1  180.0000771  0.3347200  3
  10029  10027  10030  10032     1  0.0000000  3.3472000  1
  10029  10027  10030  10032     1  0.0000000  0.0000000  2
  10029  10027  10030  10032     1  180.0000771  0.3347200  3
  10034  10037  10040  10041     1  0.0000000  0.6508444  3
  10034  10037  10040  10042     1  0.0000000  0.6508444  3
  10035  10034  10037  10040     1  0.0000000  0.6508444  3
  10035  10034  10037  10038     1  0.0000000  0.6508444  3
  10035  10034  10037  10039     1  0.0000000  0.6508444  3
  10036  10034  10037  10040     1  0.0000000  0.6508444  3
  10036  10034  10037  10038     1  0.0000000  0.6508444  3
  10036  10034  10037  10039     1  0.0000000  0.6508444  3
  10038  10037  10034  10062     1  0.0000000  1.0460000  1
  10038  10037  10034  10062     1  0.0000000  0.0000000  3
  10038  10037  10040  10043     1  0.0000000  0.6508444  3
  10038  10037  10040  10041     1  0.0000000  0.6508444  3
  10038  10037  10040  10042     1  0.0000000  0.6508444  3
  10039  10037  10034  10062     1  0.0000000  1.0460000  1
  10039  10037  10034  10062     1  0.0000000  0.0000000  3
  10039  10037  10040  10043     1  0.0000000  0.6508444  3
  10039  10037  10040  10041     1  0.0000000  0.6508444  3
  10039  10037  10040  10042     1  0.0000000  0.6508444  3
  10040  10043  10044  10045     1  0.0000000  1.2552000  3
  10040  10043  10044  10046     1  0.0000000  1.2552000  3
  10040  10043  10053  10054     1  0.0000000  1.2552000  3
  10040  10043  10053  10055     1  0.0000000  1.2552000  3
  10041  10040  10043  10044     1  0.0000000  1.2552000  3
  10041  10040  10043  10053     1  0.0000000  1.2552000  3
  10042  10040  10043  10044     1  0.0000000  1.2552000  3
  10042  10040  10043  10053     1  0.0000000  1.2552000  3
  10043  10044  10047  10048     1  0.0000000  0.6508444  3
  10043  10044  10047  10049     1  0.0000000  0.6508444  3
  10043  10053  10056  10057     1  0.0000000  0.6508444  3
  10043  10053  10056  10058     1  0.0000000  0.6508444  3
  10044  10043  10053  10054     1  0.0000000  1.2552000  3
  10044  10043  10053  10055     1  0.0000000  1.2552000  3
  10045  10044  10043  10053     1  0.0000000  1.2552000  3
  10045  10044  10047  10050     1  0.0000000  0.6508444  3
  10045  10044  10047  10048     1  0.0000000  0.6508444  3
  10045  10044  10047  10049     1  0.0000000  0.6508444  3
  10046  10044  10043  10053     1  0.0000000  1.2552000  3
  10046  10044  10047  10050     1  0.0000000  0.6508444  3
  10046  10044  10047  10048     1  0.0000000  0.6508444  3
  10046  10044  10047  10049     1  0.0000000  0.6508444  3
  10048  10047  10050  10051     1  0.0000000  3.3472000  1
  10048  10047  10050  10051     1  0.0000000  0.0000000  2
  10048  10047  10050  10051     1  180.0000771  0.3347200  3
  10048  10047  10050  10052     1  0.0000000  3.3472000  1
  10048  10047  10050  10052     1  0.0000000  0.0000000  2
  10048  10047  10050  10052     1  180.0000771  0.3347200  3
  10049  10047  10050  10051     1  0.0000000  3.3472000  1
  10049  10047  10050  10051     1  0.0000000  0.0000000  2
  10049  10047  10050  10051     1  180.0000771  0.3347200  3
  10049  10047  10050  10052     1  0.0000000  3.3472000  1
  10049  10047  10050  10052     1  0.0000000  0.0000000  2
  10049  10047  10050  10052     1  180.0000771  0.3347200  3
  10054  10053  10056  10059     1  0.0000000  0.6508444  3
  10054  10053  10056  10057     1  0.0000000  0.6508444  3
  10054  10053  10056  10058     1  0.0000000  0.6508444  3
  10055  10053  10056  10059     1  0.0000000  0.6508444  3
  10055  10053  10056  10057     1  0.0000000  0.6508444  3
  10055  10053  10056  10058     1  0.0000000  0.6508444  3
  10057  10056  10059  10060     1  0.0000000  3.3472000  1
  10057  10056  10059  10060     1  0.0000000  0.0000000  2
  10057  10056  10059  10060     1  180.0000771  0.3347200  3
  10057  10056  10059  10061     1  0.0000000  3.3472000  1
  10057  10056  10059  10061     1  0.0000000  0.0000000  2
  10057  10056  10059  10061     1  180.0000771  0.3347200  3
  10058  10056  10059  10060     1  0.0000000  3.3472000  1
  10058  10056  10059  10060     1  0.0000000  0.0000000  2
  10058  10056  10059  10060     1  180.0000771  0.3347200  3
  10058  10056  10059  10061     1  0.0000000  3.3472000  1
  10058  10056  10059  10061     1  0.0000000  0.0000000  2
  10058  10056  10059  10061     1  180.0000771  0.3347200  3
  10063  10066  10069  10070     1  0.0000000  0.6508444  3
  10063  10066  10069  10071     1  0.0000000  0.6508444  3
  10064  10063  10066  10069     1  0.0000000  0.6508444  3
  10064  10063  10066  10067     1  0.0000000  0.6508444  3
  10064  10063  10066  10068     1  0.0000000  0.6508444  3
  10065  10063  10066  10069     1  0.0000000  0.6508444  3
  10065  10063  10066  10067     1  0.0000000  0.6508444  3
  10065  10063  10066  10068     1  0.0000000  0.6508444  3
  10067  10066  10069  10072     1  0.0000000  0.6508444  3
  10067  10066  10069  10070     1  0.0000000  0.6508444  3
  10067  10066  10069  10071     1  0.0000000  0.6508444  3
  10067  10066  10063  10091     1  0.0000000  1.0460000  1
  10067  10066  10063  10091     1  0.0000000  0.0000000  3
  10068  10066  10069  10072     1  0.0000000  0.6508444  3
  10068  10066  10069  10070     1  0.0000000  0.6508444  3
  10068  10066  10069  10071     1  0.0000000  0.6508444  3
  10068  10066  10063  10091     1  0.0000000  1.0460000  1
  10068  10066  10063  10091     1  0.0000000  0.0000000  3
  10069  10072  10073  10074     1  0.0000000  1.2552000  3
  10069  10072  10073  10075     1  0.0000000  1.2552000  3
  10069  10072  10082  10083     1  0.0000000  1.2552000  3
  10069  10072  10082  10084     1  0.0000000  1.2552000  3
  10070  10069  10072  10073     1  0.0000000  1.2552000  3
  10070  10069  10072  10082     1  0.0000000  1.2552000  3
  10071  10069  10072  10073     1  0.0000000  1.2552000  3
  10071  10069  10072  10082     1  0.0000000  1.2552000  3
  10072  10073  10076  10077     1  0.0000000  0.6508444  3
  10072  10073  10076  10078     1  0.0000000  0.6508444  3
  10072  10082  10085  10086     1  0.0000000  0.6508444  3
  10072  10082  10085  10087     1  0.0000000  0.6508444  3
  10073  10072  10082  10083     1  0.0000000  1.2552000  3
  10073  10072  10082  10084     1  0.0000000  1.2552000  3
  10074  10073  10076  10079     1  0.0000000  0.6508444  3
  10074  10073  10076  10077     1  0.0000000  0.6508444  3
  10074  10073  10076  10078     1  0.0000000  0.6508444  3
  10074  10073  10072  10082     1  0.0000000  1.2552000  3
  10075  10073  10076  10079     1  0.0000000  0.6508444  3
  10075  10073  10076  10077     1  0.0000000  0.6508444  3
  10075  10073  10076  10078     1  0.0000000  0.6508444  3
  10075  10073  10072  10082     1  0.0000000  1.2552000  3
  10077  10076  10079  10080     1  0.0000000  3.3472000  1
  10077  10076  10079  10080     1  0.0000000  0.0000000  2
  10077  10076  10079  10080     1  180.0000771  0.3347200  3
  10077  10076  10079  10081     1  0.0000000  3.3472000  1
  10077  10076  10079  10081     1  0.0000000  0.0000000  2
  10077  10076  10079  10081     1  180.0000771  0.3347200  3
  10078  10076  10079  10080     1  0.0000000  3.3472000  1
  10078  10076  10079  10080     1  0.0000000  0.0000000  2
  10078  10076  10079  10080     1  180.0000771  0.3347200  3
  10078  10076  10079  10081     1  0.0000000  3.3472000  1
  10078  10076  10079  10081     1  0.0000000  0.0000000  2
  10078  10076  10079  10081     1  180.0000771  0.3347200  3
  10083  10082  10085  10088     1  0.0000000  0.6508444  3
  10083  10082  10085  10086     1  0.0000000  0.6508444  3
  10083  10082  10085  10087     1  0.0000000  0.6508444  3
  10084  10082  10085  10088     1  0.0000000  0.6508444  3
  10084  10082  10085  10086     1  0.0000000  0.6508444  3
  10084  10082  10085  10087     1  0.0000000  0.6508444  3
  10086  10085  10088  10089     1  0.0000000  3.3472000  1
  10086  10085  10088  10089     1  0.0000000  0.0000000  2
  10086  10085  10088  10089     1  180.0000771  0.3347200  3
  10086  10085  10088  10090     1  0.0000000  3.3472000  1
  10086  10085  10088  10090     1  0.0000000  0.0000000  2
  10086  10085  10088  10090     1  180.0000771  0.3347200  3
  10087  10085  10088  10089     1  0.0000000  3.3472000  1
  10087  10085  10088  10089     1  0.0000000  0.0000000  2
  10087  10085  10088  10089     1  180.0000771  0.3347200  3
  10087  10085  10088  10090     1  0.0000000  3.3472000  1
  10087  10085  10088  10090     1  0.0000000  0.0000000  2
  10087  10085  10088  10090     1  180.0000771  0.3347200  3
  10092  10095  10098  10099     1  0.0000000  0.6508444  3
  10092  10095  10098  10100     1  0.0000000  0.6508444  3
  10093  10092  10095  10098     1  0.0000000  0.6508444  3
  10093  10092  10095  10096     1  0.0000000  0.6508444  3
  10093  10092  10095  10097     1  0.0000000  0.6508444  3
  10094  10092  10095  10098     1  0.0000000  0.6508444  3
  10094  10092  10095  10096     1  0.0000000  0.6508444  3
  10094  10092  10095  10097     1  0.0000000  0.6508444  3
  10096  10095  10092  10120     1  0.0000000  1.0460000  1
  10096  10095  10092  10120     1  0.0000000  0.0000000  3
  10096  10095  10098  10101     1  0.0000000  0.6508444  3
  10096  10095  10098  10099     1  0.0000000  0.6508444  3
  10096  10095  10098  10100     1  0.0000000  0.6508444  3
  10097  10095  10092  10120     1  0.0000000  1.0460000  1
  10097  10095  10092  10120     1  0.0000000  0.0000000  3
  10097  10095  10098  10101     1  0.0000000  0.6508444  3
  10097  10095  10098  10099     1  0.0000000  0.6508444  3
  10097  10095  10098  10100     1  0.0000000  0.6508444  3
  10098  10101  10102  10103     1  0.0000000  1.2552000  3
  10098  10101  10102  10104     1  0.0000000  1.2552000  3
  10098  10101  10111  10112     1  0.0000000  1.2552000  3
  10098  10101  10111  10113     1  0.0000000  1.2552000  3
  10099  10098  10101  10102     1  0.0000000  1.2552000  3
  10099  10098  10101  10111     1  0.0000000  1.2552000  3
  10100  10098  10101  10102     1  0.0000000  1.2552000  3
  10100  10098  10101  10111     1  0.0000000  1.2552000  3
  10101  10102  10105  10106     1  0.0000000  0.6508444  3
  10101  10102  10105  10107     1  0.0000000  0.6508444  3
  10101  10111  10114  10115     1  0.0000000  0.6508444  3
  10101  10111  10114  10116     1  0.0000000  0.6508444  3
  10102  10101  10111  10112     1  0.0000000  1.2552000  3
  10102  10101  10111  10113     1  0.0000000  1.2552000  3
  10103  10102  10101  10111     1  0.0000000  1.2552000  3
  10103  10102  10105  10108     1  0.0000000  0.6508444  3
  10103  10102  10105  10106     1  0.0000000  0.6508444  3
  10103  10102  10105  10107     1  0.0000000  0.6508444  3
  10104  10102  10101  10111     1  0.0000000  1.2552000  3
  10104  10102  10105  10108     1  0.0000000  0.6508444  3
  10104  10102  10105  10106     1  0.0000000  0.6508444  3
  10104  10102  10105  10107     1  0.0000000  0.6508444  3
  10106  10105  10108  10109     1  0.0000000  3.3472000  1
  10106  10105  10108  10109     1  0.0000000  0.0000000  2
  10106  10105  10108  10109     1  180.0000771  0.3347200  3
  10106  10105  10108  10110     1  0.0000000  3.3472000  1
  10106  10105  10108  10110     1  0.0000000  0.0000000  2
  10106  10105  10108  10110     1  180.0000771  0.3347200  3
  10107  10105  10108  10109     1  0.0000000  3.3472000  1
  10107  10105  10108  10109     1  0.0000000  0.0000000  2
  10107  10105  10108  10109     1  180.0000771  0.3347200  3
  10107  10105  10108  10110     1  0.0000000  3.3472000  1
  10107  10105  10108  10110     1  0.0000000  0.0000000  2
  10107  10105  10108  10110     1  180.0000771  0.3347200  3
  10112  10111  10114  10117     1  0.0000000  0.6508444  3
  10112  10111  10114  10115     1  0.0000000  0.6508444  3
  10112  10111  10114  10116     1  0.0000000  0.6508444  3
  10113  10111  10114  10117     1  0.0000000  0.6508444  3
  10113  10111  10114  10115     1  0.0000000  0.6508444  3
  10113  10111  10114  10116     1  0.0000000  0.6508444  3
  10115  10114  10117  10118     1  0.0000000  3.3472000  1
  10115  10114  10117  10118     1  0.0000000  0.0000000  2
  10115  10114  10117  10118     1  180.0000771  0.3347200  3
  10115  10114  10117  10119     1  0.0000000  3.3472000  1
  10115  10114  10117  10119     1  0.0000000  0.0000000  2
  10115  10114  10117  10119     1  180.0000771  0.3347200  3
  10116  10114  10117  10118     1  0.0000000  3.3472000  1
  10116  10114  10117  10118     1  0.0000000  0.0000000  2
  10116  10114  10117  10118     1  180.0000771  0.3347200  3
  10116  10114  10117  10119     1  0.0000000  3.3472000  1
  10116  10114  10117  10119     1  0.0000000  0.0000000  2
  10116  10114  10117  10119     1  180.0000771  0.3347200  3
  10121  10124  10127  10128     1  0.0000000  0.6508444  3
  10121  10124  10127  10129     1  0.0000000  0.6508444  3
  10122  10121  10124  10127     1  0.0000000  0.6508444  3
  10122  10121  10124  10125     1  0.0000000  0.6508444  3
  10122  10121  10124  10126     1  0.0000000  0.6508444  3
  10123  10121  10124  10127     1  0.0000000  0.6508444  3
  10123  10121  10124  10125     1  0.0000000  0.6508444  3
  10123  10121  10124  10126     1  0.0000000  0.6508444  3
  10125  10124  10127  10130     1  0.0000000  0.6508444  3
  10125  10124  10127  10128     1  0.0000000  0.6508444  3
  10125  10124  10127  10129     1  0.0000000  0.6508444  3
  10125  10124  10121  10149     1  0.0000000  1.0460000  1
  10125  10124  10121  10149     1  0.0000000  0.0000000  3
  10126  10124  10127  10130     1  0.0000000  0.6508444  3
  10126  10124  10127  10128     1  0.0000000  0.6508444  3
  10126  10124  10127  10129     1  0.0000000  0.6508444  3
  10126  10124  10121  10149     1  0.0000000  1.0460000  1
  10126  10124  10121  10149     1  0.0000000  0.0000000  3
  10127  10130  10131  10132     1  0.0000000  1.2552000  3
  10127  10130  10131  10133     1  0.0000000  1.2552000  3
  10127  10130  10140  10141     1  0.0000000  1.2552000  3
  10127  10130  10140  10142     1  0.0000000  1.2552000  3
  10128  10127  10130  10131     1  0.0000000  1.2552000  3
  10128  10127  10130  10140     1  0.0000000  1.2552000  3
  10129  10127  10130  10131     1  0.0000000  1.2552000  3
  10129  10127  10130  10140     1  0.0000000  1.2552000  3
  10130  10131  10134  10135     1  0.0000000  0.6508444  3
  10130  10131  10134  10136     1  0.0000000  0.6508444  3
  10130  10140  10143  10144     1  0.0000000  0.6508444  3
  10130  10140  10143  10145     1  0.0000000  0.6508444  3
  10131  10130  10140  10141     1  0.0000000  1.2552000  3
  10131  10130  10140  10142     1  0.0000000  1.2552000  3
  10132  10131  10134  10137     1  0.0000000  0.6508444  3
  10132  10131  10134  10135     1  0.0000000  0.6508444  3
  10132  10131  10134  10136     1  0.0000000  0.6508444  3
  10132  10131  10130  10140     1  0.0000000  1.2552000  3
  10133  10131  10134  10137     1  0.0000000  0.6508444  3
  10133  10131  10134  10135     1  0.0000000  0.6508444  3
  10133  10131  10134  10136     1  0.0000000  0.6508444  3
  10133  10131  10130  10140     1  0.0000000  1.2552000  3
  10135  10134  10137  10138     1  0.0000000  3.3472000  1
  10135  10134  10137  10138     1  0.0000000  0.0000000  2
  10135  10134  10137  10138     1  180.0000771  0.3347200  3
  10135  10134  10137  10139     1  0.0000000  3.3472000  1
  10135  10134  10137  10139     1  0.0000000  0.0000000  2
  10135  10134  10137  10139     1  180.0000771  0.3347200  3
  10136  10134  10137  10138     1  0.0000000  3.3472000  1
  10136  10134  10137  10138     1  0.0000000  0.0000000  2
  10136  10134  10137  10138     1  180.0000771  0.3347200  3
  10136  10134  10137  10139     1  0.0000000  3.3472000  1
  10136  10134  10137  10139     1  0.0000000  0.0000000  2
  10136  10134  10137  10139     1  180.0000771  0.3347200  3
  10141  10140  10143  10146     1  0.0000000  0.6508444  3
  10141  10140  10143  10144     1  0.0000000  0.6508444  3
  10141  10140  10143  10145     1  0.0000000  0.6508444  3
  10142  10140  10143  10146     1  0.0000000  0.6508444  3
  10142  10140  10143  10144     1  0.0000000  0.6508444  3
  10142  10140  10143  10145     1  0.0000000  0.6508444  3
  10144  10143  10146  10147     1  0.0000000  3.3472000  1
  10144  10143  10146  10147     1  0.0000000  0.0000000  2
  10144  10143  10146  10147     1  180.0000771  0.3347200  3
  10144  10143  10146  10148     1  0.0000000  3.3472000  1
  10144  10143  10146  10148     1  0.0000000  0.0000000  2
  10144  10143  10146  10148     1  180.0000771  0.3347200  3
  10145  10143  10146  10147     1  0.0000000  3.3472000  1
  10145  10143  10146  10147     1  0.0000000  0.0000000  2
  10145  10143  10146  10147     1  180.0000771  0.3347200  3
  10145  10143  10146  10148     1  0.0000000  3.3472000  1
  10145  10143  10146  10148     1  0.0000000  0.0000000  2
  10145  10143  10146  10148     1  180.0000771  0.3347200  3
  10150  10153  10156  10157     1  0.0000000  0.6508444  3
  10150  10153  10156  10158     1  0.0000000  0.6508444  3
  10151  10150  10153  10156     1  0.0000000  0.6508444  3
  10151  10150  10153  10154     1  0.0000000  0.6508444  3
  10151  10150  10153  10155     1  0.0000000  0.6508444  3
  10152  10150  10153  10156     1  0.0000000  0.6508444  3
  10152  10150  10153  10154     1  0.0000000  0.6508444  3
  10152  10150  10153  10155     1  0.0000000  0.6508444  3
  10154  10153  10150  10178     1  0.0000000  1.0460000  1
  10154  10153  10150  10178     1  0.0000000  0.0000000  3
  10154  10153  10156  10159     1  0.0000000  0.6508444  3
  10154  10153  10156  10157     1  0.0000000  0.6508444  3
  10154  10153  10156  10158     1  0.0000000  0.6508444  3
  10155  10153  10150  10178     1  0.0000000  1.0460000  1
  10155  10153  10150  10178     1  0.0000000  0.0000000  3
  10155  10153  10156  10159     1  0.0000000  0.6508444  3
  10155  10153  10156  10157     1  0.0000000  0.6508444  3
  10155  10153  10156  10158     1  0.0000000  0.6508444  3
  10156  10159  10160  10161     1  0.0000000  1.2552000  3
  10156  10159  10160  10162     1  0.0000000  1.2552000  3
  10156  10159  10169  10170     1  0.0000000  1.2552000  3
  10156  10159  10169  10171     1  0.0000000  1.2552000  3
  10157  10156  10159  10160     1  0.0000000  1.2552000  3
  10157  10156  10159  10169     1  0.0000000  1.2552000  3
  10158  10156  10159  10160     1  0.0000000  1.2552000  3
  10158  10156  10159  10169     1  0.0000000  1.2552000  3
  10159  10160  10163  10164     1  0.0000000  0.6508444  3
  10159  10160  10163  10165     1  0.0000000  0.6508444  3
  10159  10169  10172  10173     1  0.0000000  0.6508444  3
  10159  10169  10172  10174     1  0.0000000  0.6508444  3
  10160  10159  10169  10170     1  0.0000000  1.2552000  3
  10160  10159  10169  10171     1  0.0000000  1.2552000  3
  10161  10160  10159  10169     1  0.0000000  1.2552000  3
  10161  10160  10163  10166     1  0.0000000  0.6508444  3
  10161  10160  10163  10164     1  0.0000000  0.6508444  3
  10161  10160  10163  10165     1  0.0000000  0.6508444  3
  10162  10160  10159  10169     1  0.0000000  1.2552000  3
  10162  10160  10163  10166     1  0.0000000  0.6508444  3
  10162  10160  10163  10164     1  0.0000000  0.6508444  3
  10162  10160  10163  10165     1  0.0000000  0.6508444  3
  10164  10163  10166  10167     1  0.0000000  3.3472000  1
  10164  10163  10166  10167     1  0.0000000  0.0000000  2
  10164  10163  10166  10167     1  180.0000771  0.3347200  3
  10164  10163  10166  10168     1  0.0000000  3.3472000  1
  10164  10163  10166  10168     1  0.0000000  0.0000000  2
  10164  10163  10166  10168     1  180.0000771  0.3347200  3
  10165  10163  10166  10167     1  0.0000000  3.3472000  1
  10165  10163  10166  10167     1  0.0000000  0.0000000  2
  10165  10163  10166  10167     1  180.0000771  0.3347200  3
  10165  10163  10166  10168     1  0.0000000  3.3472000  1
  10165  10163  10166  10168     1  0.0000000  0.0000000  2
  10165  10163  10166  10168     1  180.0000771  0.3347200  3
  10170  10169  10172  10175     1  0.0000000  0.6508444  3
  10170  10169  10172  10173     1  0.0000000  0.6508444  3
  10170  10169  10172  10174     1  0.0000000  0.6508444  3
  10171  10169  10172  10175     1  0.0000000  0.6508444  3
  10171  10169  10172  10173     1  0.0000000  0.6508444  3
  10171  10169  10172  10174     1  0.0000000  0.6508444  3
  10173  10172  10175  10176     1  0.0000000  3.3472000  1
  10173  10172  10175  10176     1  0.0000000  0.0000000  2
  10173  10172  10175  10176     1  180.0000771  0.3347200  3
  10173  10172  10175  10177     1  0.0000000  3.3472000  1
  10173  10172  10175  10177     1  0.0000000  0.0000000  2
  10173  10172  10175  10177     1  180.0000771  0.3347200  3
  10174  10172  10175  10176     1  0.0000000  3.3472000  1
  10174  10172  10175  10176     1  0.0000000  0.0000000  2
  10174  10172  10175  10176     1  180.0000771  0.3347200  3
  10174  10172  10175  10177     1  0.0000000  3.3472000  1
  10174  10172  10175  10177     1  0.0000000  0.0000000  2
  10174  10172  10175  10177     1  180.0000771  0.3347200  3
  10179  10182  10185  10186     1  0.0000000  0.6508444  3
  10179  10182  10185  10187     1  0.0000000  0.6508444  3
  10180  10179  10182  10185     1  0.0000000  0.6508444  3
  10180  10179  10182  10183     1  0.0000000  0.6508444  3
  10180  10179  10182  10184     1  0.0000000  0.6508444  3
  10181  10179  10182  10185     1  0.0000000  0.6508444  3
  10181  10179  10182  10183     1  0.0000000  0.6508444  3
  10181  10179  10182  10184     1  0.0000000  0.6508444  3
  10183  10182  10185  10188     1  0.0000000  0.6508444  3
  10183  10182  10185  10186     1  0.0000000  0.6508444  3
  10183  10182  10185  10187     1  0.0000000  0.6508444  3
  10183  10182  10179  10207     1  0.0000000  1.0460000  1
  10183  10182  10179  10207     1  0.0000000  0.0000000  3
  10184  10182  10185  10188     1  0.0000000  0.6508444  3
  10184  10182  10185  10186     1  0.0000000  0.6508444  3
  10184  10182  10185  10187     1  0.0000000  0.6508444  3
  10184  10182  10179  10207     1  0.0000000  1.0460000  1
  10184  10182  10179  10207     1  0.0000000  0.0000000  3
  10185  10188  10189  10190     1  0.0000000  1.2552000  3
  10185  10188  10189  10191     1  0.0000000  1.2552000  3
  10185  10188  10198  10199     1  0.0000000  1.2552000  3
  10185  10188  10198  10200     1  0.0000000  1.2552000  3
  10186  10185  10188  10189     1  0.0000000  1.2552000  3
  10186  10185  10188  10198     1  0.0000000  1.2552000  3
  10187  10185  10188  10189     1  0.0000000  1.2552000  3
  10187  10185  10188  10198     1  0.0000000  1.2552000  3
  10188  10189  10192  10193     1  0.0000000  0.6508444  3
  10188  10189  10192  10194     1  0.0000000  0.6508444  3
  10188  10198  10201  10202     1  0.0000000  0.6508444  3
  10188  10198  10201  10203     1  0.0000000  0.6508444  3
  10189  10188  10198  10199     1  0.0000000  1.2552000  3
  10189  10188  10198  10200     1  0.0000000  1.2552000  3
  10190  10189  10192  10195     1  0.0000000  0.6508444  3
  10190  10189  10192  10193     1  0.0000000  0.6508444  3
  10190  10189  10192  10194     1  0.0000000  0.6508444  3
  10190  10189  10188  10198     1  0.0000000  1.2552000  3
  10191  10189  10192  10195     1  0.0000000  0.6508444  3
  10191  10189  10192  10193     1  0.0000000  0.6508444  3
  10191  10189  10192  10194     1  0.0000000  0.6508444  3
  10191  10189  10188  10198     1  0.0000000  1.2552000  3
  10193  10192  10195  10196     1  0.0000000  3.3472000  1
  10193  10192  10195  10196     1  0.0000000  0.0000000  2
  10193  10192  10195  10196     1  180.0000771  0.3347200  3
  10193  10192  10195  10197     1  0.0000000  3.3472000  1
  10193  10192  10195  10197     1  0.0000000  0.0000000  2
  10193  10192  10195  10197     1  180.0000771  0.3347200  3
  10194  10192  10195  10196     1  0.0000000  3.3472000  1
  10194  10192  10195  10196     1  0.0000000  0.0000000  2
  10194  10192  10195  10196     1  180.0000771  0.3347200  3
  10194  10192  10195  10197     1  0.0000000  3.3472000  1
  10194  10192  10195  10197     1  0.0000000  0.0000000  2
  10194  10192  10195  10197     1  180.0000771  0.3347200  3
  10199  10198  10201  10204     1  0.0000000  0.6508444  3
  10199  10198  10201  10202     1  0.0000000  0.6508444  3
  10199  10198  10201  10203     1  0.0000000  0.6508444  3
  10200  10198  10201  10204     1  0.0000000  0.6508444  3
  10200  10198  10201  10202     1  0.0000000  0.6508444  3
  10200  10198  10201  10203     1  0.0000000  0.6508444  3
  10202  10201  10204  10205     1  0.0000000  3.3472000  1
  10202  10201  10204  10205     1  0.0000000  0.0000000  2
  10202  10201  10204  10205     1  180.0000771  0.3347200  3
  10202  10201  10204  10206     1  0.0000000  3.3472000  1
  10202  10201  10204  10206     1  0.0000000  0.0000000  2
  10202  10201  10204  10206     1  180.0000771  0.3347200  3
  10203  10201  10204  10205     1  0.0000000  3.3472000  1
  10203  10201  10204  10205     1  0.0000000  0.0000000  2
  10203  10201  10204  10205     1  180.0000771  0.3347200  3
  10203  10201  10204  10206     1  0.0000000  3.3472000  1
  10203  10201  10204  10206     1  0.0000000  0.0000000  2
  10203  10201  10204  10206     1  180.0000771  0.3347200  3
  10208  10211  10214  10215     1  0.0000000  0.6508444  3
  10208  10211  10214  10216     1  0.0000000  0.6508444  3
  10209  10208  10211  10214     1  0.0000000  0.6508444  3
  10209  10208  10211  10212     1  0.0000000  0.6508444  3
  10209  10208  10211  10213     1  0.0000000  0.6508444  3
  10210  10208  10211  10214     1  0.0000000  0.6508444  3
  10210  10208  10211  10212     1  0.0000000  0.6508444  3
  10210  10208  10211  10213     1  0.0000000  0.6508444  3
  10212  10211  10208  10236     1  0.0000000  1.0460000  1
  10212  10211  10208  10236     1  0.0000000  0.0000000  3
  10212  10211  10214  10217     1  0.0000000  0.6508444  3
  10212  10211  10214  10215     1  0.0000000  0.6508444  3
  10212  10211  10214  10216     1  0.0000000  0.6508444  3
  10213  10211  10208  10236     1  0.0000000  1.0460000  1
  10213  10211  10208  10236     1  0.0000000  0.0000000  3
  10213  10211  10214  10217     1  0.0000000  0.6508444  3
  10213  10211  10214  10215     1  0.0000000  0.6508444  3
  10213  10211  10214  10216     1  0.0000000  0.6508444  3
  10214  10217  10218  10219     1  0.0000000  1.2552000  3
  10214  10217  10218  10220     1  0.0000000  1.2552000  3
  10214  10217  10227  10228     1  0.0000000  1.2552000  3
  10214  10217  10227  10229     1  0.0000000  1.2552000  3
  10215  10214  10217  10218     1  0.0000000  1.2552000  3
  10215  10214  10217  10227     1  0.0000000  1.2552000  3
  10216  10214  10217  10218     1  0.0000000  1.2552000  3
  10216  10214  10217  10227     1  0.0000000  1.2552000  3
  10217  10218  10221  10222     1  0.0000000  0.6508444  3
  10217  10218  10221  10223     1  0.0000000  0.6508444  3
  10217  10227  10230  10231     1  0.0000000  0.6508444  3
  10217  10227  10230  10232     1  0.0000000  0.6508444  3
  10218  10217  10227  10228     1  0.0000000  1.2552000  3
  10218  10217  10227  10229     1  0.0000000  1.2552000  3
  10219  10218  10217  10227     1  0.0000000  1.2552000  3
  10219  10218  10221  10224     1  0.0000000  0.6508444  3
  10219  10218  10221  10222     1  0.0000000  0.6508444  3
  10219  10218  10221  10223     1  0.0000000  0.6508444  3
  10220  10218  10217  10227     1  0.0000000  1.2552000  3
  10220  10218  10221  10224     1  0.0000000  0.6508444  3
  10220  10218  10221  10222     1  0.0000000  0.6508444  3
  10220  10218  10221  10223     1  0.0000000  0.6508444  3
  10222  10221  10224  10225     1  0.0000000  3.3472000  1
  10222  10221  10224  10225     1  0.0000000  0.0000000  2
  10222  10221  10224  10225     1  180.0000771  0.3347200  3
  10222  10221  10224  10226     1  0.0000000  3.3472000  1
  10222  10221  10224  10226     1  0.0000000  0.0000000  2
  10222  10221  10224  10226     1  180.0000771  0.3347200  3
  10223  10221  10224  10225     1  0.0000000  3.3472000  1
  10223  10221  10224  10225     1  0.0000000  0.0000000  2
  10223  10221  10224  10225     1  180.0000771  0.3347200  3
  10223  10221  10224  10226     1  0.0000000  3.3472000  1
  10223  10221  10224  10226     1  0.0000000  0.0000000  2
  10223  10221  10224  10226     1  180.0000771  0.3347200  3
  10228  10227  10230  10233     1  0.0000000  0.6508444  3
  10228  10227  10230  10231     1  0.0000000  0.6508444  3
  10228  10227  10230  10232     1  0.0000000  0.6508444  3
  10229  10227  10230  10233     1  0.0000000  0.6508444  3
  10229  10227  10230  10231     1  0.0000000  0.6508444  3
  10229  10227  10230  10232     1  0.0000000  0.6508444  3
  10231  10230  10233  10234     1  0.0000000  3.3472000  1
  10231  10230  10233  10234     1  0.0000000  0.0000000  2
  10231  10230  10233  10234     1  180.0000771  0.3347200  3
  10231  10230  10233  10235     1  0.0000000  3.3472000  1
  10231  10230  10233  10235     1  0.0000000  0.0000000  2
  10231  10230  10233  10235     1  180.0000771  0.3347200  3
  10232  10230  10233  10234     1  0.0000000  3.3472000  1
  10232  10230  10233  10234     1  0.0000000  0.0000000  2
  10232  10230  10233  10234     1  180.0000771  0.3347200  3
  10232  10230  10233  10235     1  0.0000000  3.3472000  1
  10232  10230  10233  10235     1  0.0000000  0.0000000  2
  10232  10230  10233  10235     1  180.0000771  0.3347200  3
  10237  10240  10243  10244     1  0.0000000  0.6508444  3
  10237  10240  10243  10245     1  0.0000000  0.6508444  3
  10238  10237  10240  10243     1  0.0000000  0.6508444  3
  10238  10237  10240  10241     1  0.0000000  0.6508444  3
  10238  10237  10240  10242     1  0.0000000  0.6508444  3
  10239  10237  10240  10243     1  0.0000000  0.6508444  3
  10239  10237  10240  10241     1  0.0000000  0.6508444  3
  10239  10237  10240  10242     1  0.0000000  0.6508444  3
  10241  10240  10243  10246     1  0.0000000  0.6508444  3
  10241  10240  10243  10244     1  0.0000000  0.6508444  3
  10241  10240  10243  10245     1  0.0000000  0.6508444  3
  10241  10240  10237  10265     1  0.0000000  1.0460000  1
  10241  10240  10237  10265     1  0.0000000  0.0000000  3
  10242  10240  10243  10246     1  0.0000000  0.6508444  3
  10242  10240  10243  10244     1  0.0000000  0.6508444  3
  10242  10240  10243  10245     1  0.0000000  0.6508444  3
  10242  10240  10237  10265     1  0.0000000  1.0460000  1
  10242  10240  10237  10265     1  0.0000000  0.0000000  3
  10243  10246  10247  10248     1  0.0000000  1.2552000  3
  10243  10246  10247  10249     1  0.0000000  1.2552000  3
  10243  10246  10256  10257     1  0.0000000  1.2552000  3
  10243  10246  10256  10258     1  0.0000000  1.2552000  3
  10244  10243  10246  10247     1  0.0000000  1.2552000  3
  10244  10243  10246  10256     1  0.0000000  1.2552000  3
  10245  10243  10246  10247     1  0.0000000  1.2552000  3
  10245  10243  10246  10256     1  0.0000000  1.2552000  3
  10246  10247  10250  10251     1  0.0000000  0.6508444  3
  10246  10247  10250  10252     1  0.0000000  0.6508444  3
  10246  10256  10259  10260     1  0.0000000  0.6508444  3
  10246  10256  10259  10261     1  0.0000000  0.6508444  3
  10247  10246  10256  10257     1  0.0000000  1.2552000  3
  10247  10246  10256  10258     1  0.0000000  1.2552000  3
  10248  10247  10250  10253     1  0.0000000  0.6508444  3
  10248  10247  10250  10251     1  0.0000000  0.6508444  3
  10248  10247  10250  10252     1  0.0000000  0.6508444  3
  10248  10247  10246  10256     1  0.0000000  1.2552000  3
  10249  10247  10250  10253     1  0.0000000  0.6508444  3
  10249  10247  10250  10251     1  0.0000000  0.6508444  3
  10249  10247  10250  10252     1  0.0000000  0.6508444  3
  10249  10247  10246  10256     1  0.0000000  1.2552000  3
  10251  10250  10253  10254     1  0.0000000  3.3472000  1
  10251  10250  10253  10254     1  0.0000000  0.0000000  2
  10251  10250  10253  10254     1  180.0000771  0.3347200  3
  10251  10250  10253  10255     1  0.0000000  3.3472000  1
  10251  10250  10253  10255     1  0.0000000  0.0000000  2
  10251  10250  10253  10255     1  180.0000771  0.3347200  3
  10252  10250  10253  10254     1  0.0000000  3.3472000  1
  10252  10250  10253  10254     1  0.0000000  0.0000000  2
  10252  10250  10253  10254     1  180.0000771  0.3347200  3
  10252  10250  10253  10255     1  0.0000000  3.3472000  1
  10252  10250  10253  10255     1  0.0000000  0.0000000  2
  10252  10250  10253  10255     1  180.0000771  0.3347200  3
  10257  10256  10259  10262     1  0.0000000  0.6508444  3
  10257  10256  10259  10260     1  0.0000000  0.6508444  3
  10257  10256  10259  10261     1  0.0000000  0.6508444  3
  10258  10256  10259  10262     1  0.0000000  0.6508444  3
  10258  10256  10259  10260     1  0.0000000  0.6508444  3
  10258  10256  10259  10261     1  0.0000000  0.6508444  3
  10260  10259  10262  10263     1  0.0000000  3.3472000  1
  10260  10259  10262  10263     1  0.0000000  0.0000000  2
  10260  10259  10262  10263     1  180.0000771  0.3347200  3
  10260  10259  10262  10264     1  0.0000000  3.3472000  1
  10260  10259  10262  10264     1  0.0000000  0.0000000  2
  10260  10259  10262  10264     1  180.0000771  0.3347200  3
  10261  10259  10262  10263     1  0.0000000  3.3472000  1
  10261  10259  10262  10263     1  0.0000000  0.0000000  2
  10261  10259  10262  10263     1  180.0000771  0.3347200  3
  10261  10259  10262  10264     1  0.0000000  3.3472000  1
  10261  10259  10262  10264     1  0.0000000  0.0000000  2
  10261  10259  10262  10264     1  180.0000771  0.3347200  3
  10266  10269  10272  10273     1  0.0000000  0.6508444  3
  10266  10269  10272  10274     1  0.0000000  0.6508444  3
  10267  10266  10269  10272     1  0.0000000  0.6508444  3
  10267  10266  10269  10270     1  0.0000000  0.6508444  3
  10267  10266  10269  10271     1  0.0000000  0.6508444  3
  10268  10266  10269  10272     1  0.0000000  0.6508444  3
  10268  10266  10269  10270     1  0.0000000  0.6508444  3
  10268  10266  10269  10271     1  0.0000000  0.6508444  3
  10270  10269  10266  10294     1  0.0000000  1.0460000  1
  10270  10269  10266  10294     1  0.0000000  0.0000000  3
  10270  10269  10272  10275     1  0.0000000  0.6508444  3
  10270  10269  10272  10273     1  0.0000000  0.6508444  3
  10270  10269  10272  10274     1  0.0000000  0.6508444  3
  10271  10269  10266  10294     1  0.0000000  1.0460000  1
  10271  10269  10266  10294     1  0.0000000  0.0000000  3
  10271  10269  10272  10275     1  0.0000000  0.6508444  3
  10271  10269  10272  10273     1  0.0000000  0.6508444  3
  10271  10269  10272  10274     1  0.0000000  0.6508444  3
  10272  10275  10276  10277     1  0.0000000  1.2552000  3
  10272  10275  10276  10278     1  0.0000000  1.2552000  3
  10272  10275  10285  10286     1  0.0000000  1.2552000  3
  10272  10275  10285  10287     1  0.0000000  1.2552000  3
  10273  10272  10275  10276     1  0.0000000  1.2552000  3
  10273  10272  10275  10285     1  0.0000000  1.2552000  3
  10274  10272  10275  10276     1  0.0000000  1.2552000  3
  10274  10272  10275  10285     1  0.0000000  1.2552000  3
  10275  10276  10279  10280     1  0.0000000  0.6508444  3
  10275  10276  10279  10281     1  0.0000000  0.6508444  3
  10275  10285  10288  10289     1  0.0000000  0.6508444  3
  10275  10285  10288  10290     1  0.0000000  0.6508444  3
  10276  10275  10285  10286     1  0.0000000  1.2552000  3
  10276  10275  10285  10287     1  0.0000000  1.2552000  3
  10277  10276  10275  10285     1  0.0000000  1.2552000  3
  10277  10276  10279  10282     1  0.0000000  0.6508444  3
  10277  10276  10279  10280     1  0.0000000  0.6508444  3
  10277  10276  10279  10281     1  0.0000000  0.6508444  3
  10278  10276  10275  10285     1  0.0000000  1.2552000  3
  10278  10276  10279  10282     1  0.0000000  0.6508444  3
  10278  10276  10279  10280     1  0.0000000  0.6508444  3
  10278  10276  10279  10281     1  0.0000000  0.6508444  3
  10280  10279  10282  10283     1  0.0000000  3.3472000  1
  10280  10279  10282  10283     1  0.0000000  0.0000000  2
  10280  10279  10282  10283     1  180.0000771  0.3347200  3
  10280  10279  10282  10284     1  0.0000000  3.3472000  1
  10280  10279  10282  10284     1  0.0000000  0.0000000  2
  10280  10279  10282  10284     1  180.0000771  0.3347200  3
  10281  10279  10282  10283     1  0.0000000  3.3472000  1
  10281  10279  10282  10283     1  0.0000000  0.0000000  2
  10281  10279  10282  10283     1  180.0000771  0.3347200  3
  10281  10279  10282  10284     1  0.0000000  3.3472000  1
  10281  10279  10282  10284     1  0.0000000  0.0000000  2
  10281  10279  10282  10284     1  180.0000771  0.3347200  3
  10286  10285  10288  10291     1  0.0000000  0.6508444  3
  10286  10285  10288  10289     1  0.0000000  0.6508444  3
  10286  10285  10288  10290     1  0.0000000  0.6508444  3
  10287  10285  10288  10291     1  0.0000000  0.6508444  3
  10287  10285  10288  10289     1  0.0000000  0.6508444  3
  10287  10285  10288  10290     1  0.0000000  0.6508444  3
  10289  10288  10291  10292     1  0.0000000  3.3472000  1
  10289  10288  10291  10292     1  0.0000000  0.0000000  2
  10289  10288  10291  10292     1  180.0000771  0.3347200  3
  10289  10288  10291  10293     1  0.0000000  3.3472000  1
  10289  10288  10291  10293     1  0.0000000  0.0000000  2
  10289  10288  10291  10293     1  180.0000771  0.3347200  3
  10290  10288  10291  10292     1  0.0000000  3.3472000  1
  10290  10288  10291  10292     1  0.0000000  0.0000000  2
  10290  10288  10291  10292     1  180.0000771  0.3347200  3
  10290  10288  10291  10293     1  0.0000000  3.3472000  1
  10290  10288  10291  10293     1  0.0000000  0.0000000  2
  10290  10288  10291  10293     1  180.0000771  0.3347200  3
  10295  10298  10301  10302     1  0.0000000  0.6508444  3
  10295  10298  10301  10303     1  0.0000000  0.6508444  3
  10296  10295  10298  10301     1  0.0000000  0.6508444  3
  10296  10295  10298  10299     1  0.0000000  0.6508444  3
  10296  10295  10298  10300     1  0.0000000  0.6508444  3
  10297  10295  10298  10301     1  0.0000000  0.6508444  3
  10297  10295  10298  10299     1  0.0000000  0.6508444  3
  10297  10295  10298  10300     1  0.0000000  0.6508444  3
  10299  10298  10301  10304     1  0.0000000  0.6508444  3
  10299  10298  10301  10302     1  0.0000000  0.6508444  3
  10299  10298  10301  10303     1  0.0000000  0.6508444  3
  10299  10298  10295  10323     1  0.0000000  1.0460000  1
  10299  10298  10295  10323     1  0.0000000  0.0000000  3
  10300  10298  10301  10304     1  0.0000000  0.6508444  3
  10300  10298  10301  10302     1  0.0000000  0.6508444  3
  10300  10298  10301  10303     1  0.0000000  0.6508444  3
  10300  10298  10295  10323     1  0.0000000  1.0460000  1
  10300  10298  10295  10323     1  0.0000000  0.0000000  3
  10301  10304  10305  10306     1  0.0000000  1.2552000  3
  10301  10304  10305  10307     1  0.0000000  1.2552000  3
  10301  10304  10314  10315     1  0.0000000  1.2552000  3
  10301  10304  10314  10316     1  0.0000000  1.2552000  3
  10302  10301  10304  10305     1  0.0000000  1.2552000  3
  10302  10301  10304  10314     1  0.0000000  1.2552000  3
  10303  10301  10304  10305     1  0.0000000  1.2552000  3
  10303  10301  10304  10314     1  0.0000000  1.2552000  3
  10304  10305  10308  10309     1  0.0000000  0.6508444  3
  10304  10305  10308  10310     1  0.0000000  0.6508444  3
  10304  10314  10317  10318     1  0.0000000  0.6508444  3
  10304  10314  10317  10319     1  0.0000000  0.6508444  3
  10305  10304  10314  10315     1  0.0000000  1.2552000  3
  10305  10304  10314  10316     1  0.0000000  1.2552000  3
  10306  10305  10308  10311     1  0.0000000  0.6508444  3
  10306  10305  10308  10309     1  0.0000000  0.6508444  3
  10306  10305  10308  10310     1  0.0000000  0.6508444  3
  10306  10305  10304  10314     1  0.0000000  1.2552000  3
  10307  10305  10308  10311     1  0.0000000  0.6508444  3
  10307  10305  10308  10309     1  0.0000000  0.6508444  3
  10307  10305  10308  10310     1  0.0000000  0.6508444  3
  10307  10305  10304  10314     1  0.0000000  1.2552000  3
  10309  10308  10311  10312     1  0.0000000  3.3472000  1
  10309  10308  10311  10312     1  0.0000000  0.0000000  2
  10309  10308  10311  10312     1  180.0000771  0.3347200  3
  10309  10308  10311  10313     1  0.0000000  3.3472000  1
  10309  10308  10311  10313     1  0.0000000  0.0000000  2
  10309  10308  10311  10313     1  180.0000771  0.3347200  3
  10310  10308  10311  10312     1  0.0000000  3.3472000  1
  10310  10308  10311  10312     1  0.0000000  0.0000000  2
  10310  10308  10311  10312     1  180.0000771  0.3347200  3
  10310  10308  10311  10313     1  0.0000000  3.3472000  1
  10310  10308  10311  10313     1  0.0000000  0.0000000  2
  10310  10308  10311  10313     1  180.0000771  0.3347200  3
  10315  10314  10317  10320     1  0.0000000  0.6508444  3
  10315  10314  10317  10318     1  0.0000000  0.6508444  3
  10315  10314  10317  10319     1  0.0000000  0.6508444  3
  10316  10314  10317  10320     1  0.0000000  0.6508444  3
  10316  10314  10317  10318     1  0.0000000  0.6508444  3
  10316  10314  10317  10319     1  0.0000000  0.6508444  3
  10318  10317  10320  10321     1  0.0000000  3.3472000  1
  10318  10317  10320  10321     1  0.0000000  0.0000000  2
  10318  10317  10320  10321     1  180.0000771  0.3347200  3
  10318  10317  10320  10322     1  0.0000000  3.3472000  1
  10318  10317  10320  10322     1  0.0000000  0.0000000  2
  10318  10317  10320  10322     1  180.0000771  0.3347200  3
  10319  10317  10320  10321     1  0.0000000  3.3472000  1
  10319  10317  10320  10321     1  0.0000000  0.0000000  2
  10319  10317  10320  10321     1  180.0000771  0.3347200  3
  10319  10317  10320  10322     1  0.0000000  3.3472000  1
  10319  10317  10320  10322     1  0.0000000  0.0000000  2
  10319  10317  10320  10322     1  180.0000771  0.3347200  3
  10324  10327  10330  10331     1  0.0000000  0.6508444  3
  10324  10327  10330  10332     1  0.0000000  0.6508444  3
  10325  10324  10327  10330     1  0.0000000  0.6508444  3
  10325  10324  10327  10328     1  0.0000000  0.6508444  3
  10325  10324  10327  10329     1  0.0000000  0.6508444  3
  10326  10324  10327  10330     1  0.0000000  0.6508444  3
  10326  10324  10327  10328     1  0.0000000  0.6508444  3
  10326  10324  10327  10329     1  0.0000000  0.6508444  3
  10328  10327  10324  10352     1  0.0000000  1.0460000  1
  10328  10327  10324  10352     1  0.0000000  0.0000000  3
  10328  10327  10330  10333     1  0.0000000  0.6508444  3
  10328  10327  10330  10331     1  0.0000000  0.6508444  3
  10328  10327  10330  10332     1  0.0000000  0.6508444  3
  10329  10327  10324  10352     1  0.0000000  1.0460000  1
  10329  10327  10324  10352     1  0.0000000  0.0000000  3
  10329  10327  10330  10333     1  0.0000000  0.6508444  3
  10329  10327  10330  10331     1  0.0000000  0.6508444  3
  10329  10327  10330  10332     1  0.0000000  0.6508444  3
  10330  10333  10334  10335     1  0.0000000  1.2552000  3
  10330  10333  10334  10336     1  0.0000000  1.2552000  3
  10330  10333  10343  10344     1  0.0000000  1.2552000  3
  10330  10333  10343  10345     1  0.0000000  1.2552000  3
  10331  10330  10333  10334     1  0.0000000  1.2552000  3
  10331  10330  10333  10343     1  0.0000000  1.2552000  3
  10332  10330  10333  10334     1  0.0000000  1.2552000  3
  10332  10330  10333  10343     1  0.0000000  1.2552000  3
  10333  10334  10337  10338     1  0.0000000  0.6508444  3
  10333  10334  10337  10339     1  0.0000000  0.6508444  3
  10333  10343  10346  10347     1  0.0000000  0.6508444  3
  10333  10343  10346  10348     1  0.0000000  0.6508444  3
  10334  10333  10343  10344     1  0.0000000  1.2552000  3
  10334  10333  10343  10345     1  0.0000000  1.2552000  3
  10335  10334  10333  10343     1  0.0000000  1.2552000  3
  10335  10334  10337  10340     1  0.0000000  0.6508444  3
  10335  10334  10337  10338     1  0.0000000  0.6508444  3
  10335  10334  10337  10339     1  0.0000000  0.6508444  3
  10336  10334  10333  10343     1  0.0000000  1.2552000  3
  10336  10334  10337  10340     1  0.0000000  0.6508444  3
  10336  10334  10337  10338     1  0.0000000  0.6508444  3
  10336  10334  10337  10339     1  0.0000000  0.6508444  3
  10338  10337  10340  10341     1  0.0000000  3.3472000  1
  10338  10337  10340  10341     1  0.0000000  0.0000000  2
  10338  10337  10340  10341     1  180.0000771  0.3347200  3
  10338  10337  10340  10342     1  0.0000000  3.3472000  1
  10338  10337  10340  10342     1  0.0000000  0.0000000  2
  10338  10337  10340  10342     1  180.0000771  0.3347200  3
  10339  10337  10340  10341     1  0.0000000  3.3472000  1
  10339  10337  10340  10341     1  0.0000000  0.0000000  2
  10339  10337  10340  10341     1  180.0000771  0.3347200  3
  10339  10337  10340  10342     1  0.0000000  3.3472000  1
  10339  10337  10340  10342     1  0.0000000  0.0000000  2
  10339  10337  10340  10342     1  180.0000771  0.3347200  3
  10344  10343  10346  10349     1  0.0000000  0.6508444  3
  10344  10343  10346  10347     1  0.0000000  0.6508444  3
  10344  10343  10346  10348     1  0.0000000  0.6508444  3
  10345  10343  10346  10349     1  0.0000000  0.6508444  3
  10345  10343  10346  10347     1  0.0000000  0.6508444  3
  10345  10343  10346  10348     1  0.0000000  0.6508444  3
  10347  10346  10349  10350     1  0.0000000  3.3472000  1
  10347  10346  10349  10350     1  0.0000000  0.0000000  2
  10347  10346  10349  10350     1  180.0000771  0.3347200  3
  10347  10346  10349  10351     1  0.0000000  3.3472000  1
  10347  10346  10349  10351     1  0.0000000  0.0000000  2
  10347  10346  10349  10351     1  180.0000771  0.3347200  3
  10348  10346  10349  10350     1  0.0000000  3.3472000  1
  10348  10346  10349  10350     1  0.0000000  0.0000000  2
  10348  10346  10349  10350     1  180.0000771  0.3347200  3
  10348  10346  10349  10351     1  0.0000000  3.3472000  1
  10348  10346  10349  10351     1  0.0000000  0.0000000  2
  10348  10346  10349  10351     1  180.0000771  0.3347200  3
  10353  10356  10359  10360     1  0.0000000  0.6508444  3
  10353  10356  10359  10361     1  0.0000000  0.6508444  3
  10354  10353  10356  10359     1  0.0000000  0.6508444  3
  10354  10353  10356  10357     1  0.0000000  0.6508444  3
  10354  10353  10356  10358     1  0.0000000  0.6508444  3
  10355  10353  10356  10359     1  0.0000000  0.6508444  3
  10355  10353  10356  10357     1  0.0000000  0.6508444  3
  10355  10353  10356  10358     1  0.0000000  0.6508444  3
  10357  10356  10359  10362     1  0.0000000  0.6508444  3
  10357  10356  10359  10360     1  0.0000000  0.6508444  3
  10357  10356  10359  10361     1  0.0000000  0.6508444  3
  10357  10356  10353  10381     1  0.0000000  1.0460000  1
  10357  10356  10353  10381     1  0.0000000  0.0000000  3
  10358  10356  10359  10362     1  0.0000000  0.6508444  3
  10358  10356  10359  10360     1  0.0000000  0.6508444  3
  10358  10356  10359  10361     1  0.0000000  0.6508444  3
  10358  10356  10353  10381     1  0.0000000  1.0460000  1
  10358  10356  10353  10381     1  0.0000000  0.0000000  3
  10359  10362  10363  10364     1  0.0000000  1.2552000  3
  10359  10362  10363  10365     1  0.0000000  1.2552000  3
  10359  10362  10372  10373     1  0.0000000  1.2552000  3
  10359  10362  10372  10374     1  0.0000000  1.2552000  3
  10360  10359  10362  10363     1  0.0000000  1.2552000  3
  10360  10359  10362  10372     1  0.0000000  1.2552000  3
  10361  10359  10362  10363     1  0.0000000  1.2552000  3
  10361  10359  10362  10372     1  0.0000000  1.2552000  3
  10362  10363  10366  10367     1  0.0000000  0.6508444  3
  10362  10363  10366  10368     1  0.0000000  0.6508444  3
  10362  10372  10375  10376     1  0.0000000  0.6508444  3
  10362  10372  10375  10377     1  0.0000000  0.6508444  3
  10363  10362  10372  10373     1  0.0000000  1.2552000  3
  10363  10362  10372  10374     1  0.0000000  1.2552000  3
  10364  10363  10366  10369     1  0.0000000  0.6508444  3
  10364  10363  10366  10367     1  0.0000000  0.6508444  3
  10364  10363  10366  10368     1  0.0000000  0.6508444  3
  10364  10363  10362  10372     1  0.0000000  1.2552000  3
  10365  10363  10366  10369     1  0.0000000  0.6508444  3
  10365  10363  10366  10367     1  0.0000000  0.6508444  3
  10365  10363  10366  10368     1  0.0000000  0.6508444  3
  10365  10363  10362  10372     1  0.0000000  1.2552000  3
  10367  10366  10369  10370     1  0.0000000  3.3472000  1
  10367  10366  10369  10370     1  0.0000000  0.0000000  2
  10367  10366  10369  10370     1  180.0000771  0.3347200  3
  10367  10366  10369  10371     1  0.0000000  3.3472000  1
  10367  10366  10369  10371     1  0.0000000  0.0000000  2
  10367  10366  10369  10371     1  180.0000771  0.3347200  3
  10368  10366  10369  10370     1  0.0000000  3.3472000  1
  10368  10366  10369  10370     1  0.0000000  0.0000000  2
  10368  10366  10369  10370     1  180.0000771  0.3347200  3
  10368  10366  10369  10371     1  0.0000000  3.3472000  1
  10368  10366  10369  10371     1  0.0000000  0.0000000  2
  10368  10366  10369  10371     1  180.0000771  0.3347200  3
  10373  10372  10375  10378     1  0.0000000  0.6508444  3
  10373  10372  10375  10376     1  0.0000000  0.6508444  3
  10373  10372  10375  10377     1  0.0000000  0.6508444  3
  10374  10372  10375  10378     1  0.0000000  0.6508444  3
  10374  10372  10375  10376     1  0.0000000  0.6508444  3
  10374  10372  10375  10377     1  0.0000000  0.6508444  3
  10376  10375  10378  10379     1  0.0000000  3.3472000  1
  10376  10375  10378  10379     1  0.0000000  0.0000000  2
  10376  10375  10378  10379     1  180.0000771  0.3347200  3
  10376  10375  10378  10380     1  0.0000000  3.3472000  1
  10376  10375  10378  10380     1  0.0000000  0.0000000  2
  10376  10375  10378  10380     1  180.0000771  0.3347200  3
  10377  10375  10378  10379     1  0.0000000  3.3472000  1
  10377  10375  10378  10379     1  0.0000000  0.0000000  2
  10377  10375  10378  10379     1  180.0000771  0.3347200  3
  10377  10375  10378  10380     1  0.0000000  3.3472000  1
  10377  10375  10378  10380     1  0.0000000  0.0000000  2
  10377  10375  10378  10380     1  180.0000771  0.3347200  3
  10382  10385  10388  10389     1  0.0000000  0.6508444  3
  10382  10385  10388  10390     1  0.0000000  0.6508444  3
  10383  10382  10385  10388     1  0.0000000  0.6508444  3
  10383  10382  10385  10386     1  0.0000000  0.6508444  3
  10383  10382  10385  10387     1  0.0000000  0.6508444  3
  10384  10382  10385  10388     1  0.0000000  0.6508444  3
  10384  10382  10385  10386     1  0.0000000  0.6508444  3
  10384  10382  10385  10387     1  0.0000000  0.6508444  3
  10386  10385  10382  10410     1  0.0000000  1.0460000  1
  10386  10385  10382  10410     1  0.0000000  0.0000000  3
  10386  10385  10388  10391     1  0.0000000  0.6508444  3
  10386  10385  10388  10389     1  0.0000000  0.6508444  3
  10386  10385  10388  10390     1  0.0000000  0.6508444  3
  10387  10385  10382  10410     1  0.0000000  1.0460000  1
  10387  10385  10382  10410     1  0.0000000  0.0000000  3
  10387  10385  10388  10391     1  0.0000000  0.6508444  3
  10387  10385  10388  10389     1  0.0000000  0.6508444  3
  10387  10385  10388  10390     1  0.0000000  0.6508444  3
  10388  10391  10392  10393     1  0.0000000  1.2552000  3
  10388  10391  10392  10394     1  0.0000000  1.2552000  3
  10388  10391  10401  10402     1  0.0000000  1.2552000  3
  10388  10391  10401  10403     1  0.0000000  1.2552000  3
  10389  10388  10391  10392     1  0.0000000  1.2552000  3
  10389  10388  10391  10401     1  0.0000000  1.2552000  3
  10390  10388  10391  10392     1  0.0000000  1.2552000  3
  10390  10388  10391  10401     1  0.0000000  1.2552000  3
  10391  10392  10395  10396     1  0.0000000  0.6508444  3
  10391  10392  10395  10397     1  0.0000000  0.6508444  3
  10391  10401  10404  10405     1  0.0000000  0.6508444  3
  10391  10401  10404  10406     1  0.0000000  0.6508444  3
  10392  10391  10401  10402     1  0.0000000  1.2552000  3
  10392  10391  10401  10403     1  0.0000000  1.2552000  3
  10393  10392  10391  10401     1  0.0000000  1.2552000  3
  10393  10392  10395  10398     1  0.0000000  0.6508444  3
  10393  10392  10395  10396     1  0.0000000  0.6508444  3
  10393  10392  10395  10397     1  0.0000000  0.6508444  3
  10394  10392  10391  10401     1  0.0000000  1.2552000  3
  10394  10392  10395  10398     1  0.0000000  0.6508444  3
  10394  10392  10395  10396     1  0.0000000  0.6508444  3
  10394  10392  10395  10397     1  0.0000000  0.6508444  3
  10396  10395  10398  10399     1  0.0000000  3.3472000  1
  10396  10395  10398  10399     1  0.0000000  0.0000000  2
  10396  10395  10398  10399     1  180.0000771  0.3347200  3
  10396  10395  10398  10400     1  0.0000000  3.3472000  1
  10396  10395  10398  10400     1  0.0000000  0.0000000  2
  10396  10395  10398  10400     1  180.0000771  0.3347200  3
  10397  10395  10398  10399     1  0.0000000  3.3472000  1
  10397  10395  10398  10399     1  0.0000000  0.0000000  2
  10397  10395  10398  10399     1  180.0000771  0.3347200  3
  10397  10395  10398  10400     1  0.0000000  3.3472000  1
  10397  10395  10398  10400     1  0.0000000  0.0000000  2
  10397  10395  10398  10400     1  180.0000771  0.3347200  3
  10402  10401  10404  10407     1  0.0000000  0.6508444  3
  10402  10401  10404  10405     1  0.0000000  0.6508444  3
  10402  10401  10404  10406     1  0.0000000  0.6508444  3
  10403  10401  10404  10407     1  0.0000000  0.6508444  3
  10403  10401  10404  10405     1  0.0000000  0.6508444  3
  10403  10401  10404  10406     1  0.0000000  0.6508444  3
  10405  10404  10407  10408     1  0.0000000  3.3472000  1
  10405  10404  10407  10408     1  0.0000000  0.0000000  2
  10405  10404  10407  10408     1  180.0000771  0.3347200  3
  10405  10404  10407  10409     1  0.0000000  3.3472000  1
  10405  10404  10407  10409     1  0.0000000  0.0000000  2
  10405  10404  10407  10409     1  180.0000771  0.3347200  3
  10406  10404  10407  10408     1  0.0000000  3.3472000  1
  10406  10404  10407  10408     1  0.0000000  0.0000000  2
  10406  10404  10407  10408     1  180.0000771  0.3347200  3
  10406  10404  10407  10409     1  0.0000000  3.3472000  1
  10406  10404  10407  10409     1  0.0000000  0.0000000  2
  10406  10404  10407  10409     1  180.0000771  0.3347200  3
  10411  10414  10417  10418     1  0.0000000  0.6508444  3
  10411  10414  10417  10419     1  0.0000000  0.6508444  3
  10412  10411  10414  10417     1  0.0000000  0.6508444  3
  10412  10411  10414  10415     1  0.0000000  0.6508444  3
  10412  10411  10414  10416     1  0.0000000  0.6508444  3
  10413  10411  10414  10417     1  0.0000000  0.6508444  3
  10413  10411  10414  10415     1  0.0000000  0.6508444  3
  10413  10411  10414  10416     1  0.0000000  0.6508444  3
  10415  10414  10417  10420     1  0.0000000  0.6508444  3
  10415  10414  10417  10418     1  0.0000000  0.6508444  3
  10415  10414  10417  10419     1  0.0000000  0.6508444  3
  10415  10414  10411  10439     1  0.0000000  1.0460000  1
  10415  10414  10411  10439     1  0.0000000  0.0000000  3
  10416  10414  10417  10420     1  0.0000000  0.6508444  3
  10416  10414  10417  10418     1  0.0000000  0.6508444  3
  10416  10414  10417  10419     1  0.0000000  0.6508444  3
  10416  10414  10411  10439     1  0.0000000  1.0460000  1
  10416  10414  10411  10439     1  0.0000000  0.0000000  3
  10417  10420  10421  10422     1  0.0000000  1.2552000  3
  10417  10420  10421  10423     1  0.0000000  1.2552000  3
  10417  10420  10430  10431     1  0.0000000  1.2552000  3
  10417  10420  10430  10432     1  0.0000000  1.2552000  3
  10418  10417  10420  10421     1  0.0000000  1.2552000  3
  10418  10417  10420  10430     1  0.0000000  1.2552000  3
  10419  10417  10420  10421     1  0.0000000  1.2552000  3
  10419  10417  10420  10430     1  0.0000000  1.2552000  3
  10420  10421  10424  10425     1  0.0000000  0.6508444  3
  10420  10421  10424  10426     1  0.0000000  0.6508444  3
  10420  10430  10433  10434     1  0.0000000  0.6508444  3
  10420  10430  10433  10435     1  0.0000000  0.6508444  3
  10421  10420  10430  10431     1  0.0000000  1.2552000  3
  10421  10420  10430  10432     1  0.0000000  1.2552000  3
  10422  10421  10424  10427     1  0.0000000  0.6508444  3
  10422  10421  10424  10425     1  0.0000000  0.6508444  3
  10422  10421  10424  10426     1  0.0000000  0.6508444  3
  10422  10421  10420  10430     1  0.0000000  1.2552000  3
  10423  10421  10424  10427     1  0.0000000  0.6508444  3
  10423  10421  10424  10425     1  0.0000000  0.6508444  3
  10423  10421  10424  10426     1  0.0000000  0.6508444  3
  10423  10421  10420  10430     1  0.0000000  1.2552000  3
  10425  10424  10427  10428     1  0.0000000  3.3472000  1
  10425  10424  10427  10428     1  0.0000000  0.0000000  2
  10425  10424  10427  10428     1  180.0000771  0.3347200  3
  10425  10424  10427  10429     1  0.0000000  3.3472000  1
  10425  10424  10427  10429     1  0.0000000  0.0000000  2
  10425  10424  10427  10429     1  180.0000771  0.3347200  3
  10426  10424  10427  10428     1  0.0000000  3.3472000  1
  10426  10424  10427  10428     1  0.0000000  0.0000000  2
  10426  10424  10427  10428     1  180.0000771  0.3347200  3
  10426  10424  10427  10429     1  0.0000000  3.3472000  1
  10426  10424  10427  10429     1  0.0000000  0.0000000  2
  10426  10424  10427  10429     1  180.0000771  0.3347200  3
  10431  10430  10433  10436     1  0.0000000  0.6508444  3
  10431  10430  10433  10434     1  0.0000000  0.6508444  3
  10431  10430  10433  10435     1  0.0000000  0.6508444  3
  10432  10430  10433  10436     1  0.0000000  0.6508444  3
  10432  10430  10433  10434     1  0.0000000  0.6508444  3
  10432  10430  10433  10435     1  0.0000000  0.6508444  3
  10434  10433  10436  10437     1  0.0000000  3.3472000  1
  10434  10433  10436  10437     1  0.0000000  0.0000000  2
  10434  10433  10436  10437     1  180.0000771  0.3347200  3
  10434  10433  10436  10438     1  0.0000000  3.3472000  1
  10434  10433  10436  10438     1  0.0000000  0.0000000  2
  10434  10433  10436  10438     1  180.0000771  0.3347200  3
  10435  10433  10436  10437     1  0.0000000  3.3472000  1
  10435  10433  10436  10437     1  0.0000000  0.0000000  2
  10435  10433  10436  10437     1  180.0000771  0.3347200  3
  10435  10433  10436  10438     1  0.0000000  3.3472000  1
  10435  10433  10436  10438     1  0.0000000  0.0000000  2
  10435  10433  10436  10438     1  180.0000771  0.3347200  3
  10440  10443  10446  10447     1  0.0000000  0.6508444  3
  10440  10443  10446  10448     1  0.0000000  0.6508444  3
  10441  10440  10443  10446     1  0.0000000  0.6508444  3
  10441  10440  10443  10444     1  0.0000000  0.6508444  3
  10441  10440  10443  10445     1  0.0000000  0.6508444  3
  10442  10440  10443  10446     1  0.0000000  0.6508444  3
  10442  10440  10443  10444     1  0.0000000  0.6508444  3
  10442  10440  10443  10445     1  0.0000000  0.6508444  3
  10444  10443  10440  10468     1  0.0000000  1.0460000  1
  10444  10443  10440  10468     1  0.0000000  0.0000000  3
  10444  10443  10446  10449     1  0.0000000  0.6508444  3
  10444  10443  10446  10447     1  0.0000000  0.6508444  3
  10444  10443  10446  10448     1  0.0000000  0.6508444  3
  10445  10443  10440  10468     1  0.0000000  1.0460000  1
  10445  10443  10440  10468     1  0.0000000  0.0000000  3
  10445  10443  10446  10449     1  0.0000000  0.6508444  3
  10445  10443  10446  10447     1  0.0000000  0.6508444  3
  10445  10443  10446  10448     1  0.0000000  0.6508444  3
  10446  10449  10450  10451     1  0.0000000  1.2552000  3
  10446  10449  10450  10452     1  0.0000000  1.2552000  3
  10446  10449  10459  10460     1  0.0000000  1.2552000  3
  10446  10449  10459  10461     1  0.0000000  1.2552000  3
  10447  10446  10449  10450     1  0.0000000  1.2552000  3
  10447  10446  10449  10459     1  0.0000000  1.2552000  3
  10448  10446  10449  10450     1  0.0000000  1.2552000  3
  10448  10446  10449  10459     1  0.0000000  1.2552000  3
  10449  10450  10453  10454     1  0.0000000  0.6508444  3
  10449  10450  10453  10455     1  0.0000000  0.6508444  3
  10449  10459  10462  10463     1  0.0000000  0.6508444  3
  10449  10459  10462  10464     1  0.0000000  0.6508444  3
  10450  10449  10459  10460     1  0.0000000  1.2552000  3
  10450  10449  10459  10461     1  0.0000000  1.2552000  3
  10451  10450  10449  10459     1  0.0000000  1.2552000  3
  10451  10450  10453  10456     1  0.0000000  0.6508444  3
  10451  10450  10453  10454     1  0.0000000  0.6508444  3
  10451  10450  10453  10455     1  0.0000000  0.6508444  3
  10452  10450  10449  10459     1  0.0000000  1.2552000  3
  10452  10450  10453  10456     1  0.0000000  0.6508444  3
  10452  10450  10453  10454     1  0.0000000  0.6508444  3
  10452  10450  10453  10455     1  0.0000000  0.6508444  3
  10454  10453  10456  10457     1  0.0000000  3.3472000  1
  10454  10453  10456  10457     1  0.0000000  0.0000000  2
  10454  10453  10456  10457     1  180.0000771  0.3347200  3
  10454  10453  10456  10458     1  0.0000000  3.3472000  1
  10454  10453  10456  10458     1  0.0000000  0.0000000  2
  10454  10453  10456  10458     1  180.0000771  0.3347200  3
  10455  10453  10456  10457     1  0.0000000  3.3472000  1
  10455  10453  10456  10457     1  0.0000000  0.0000000  2
  10455  10453  10456  10457     1  180.0000771  0.3347200  3
  10455  10453  10456  10458     1  0.0000000  3.3472000  1
  10455  10453  10456  10458     1  0.0000000  0.0000000  2
  10455  10453  10456  10458     1  180.0000771  0.3347200  3
  10460  10459  10462  10465     1  0.0000000  0.6508444  3
  10460  10459  10462  10463     1  0.0000000  0.6508444  3
  10460  10459  10462  10464     1  0.0000000  0.6508444  3
  10461  10459  10462  10465     1  0.0000000  0.6508444  3
  10461  10459  10462  10463     1  0.0000000  0.6508444  3
  10461  10459  10462  10464     1  0.0000000  0.6508444  3
  10463  10462  10465  10466     1  0.0000000  3.3472000  1
  10463  10462  10465  10466     1  0.0000000  0.0000000  2
  10463  10462  10465  10466     1  180.0000771  0.3347200  3
  10463  10462  10465  10467     1  0.0000000  3.3472000  1
  10463  10462  10465  10467     1  0.0000000  0.0000000  2
  10463  10462  10465  10467     1  180.0000771  0.3347200  3
  10464  10462  10465  10466     1  0.0000000  3.3472000  1
  10464  10462  10465  10466     1  0.0000000  0.0000000  2
  10464  10462  10465  10466     1  180.0000771  0.3347200  3
  10464  10462  10465  10467     1  0.0000000  3.3472000  1
  10464  10462  10465  10467     1  0.0000000  0.0000000  2
  10464  10462  10465  10467     1  180.0000771  0.3347200  3
  10469  10472  10475  10476     1  0.0000000  0.6508444  3
  10469  10472  10475  10477     1  0.0000000  0.6508444  3
  10470  10469  10472  10475     1  0.0000000  0.6508444  3
  10470  10469  10472  10473     1  0.0000000  0.6508444  3
  10470  10469  10472  10474     1  0.0000000  0.6508444  3
  10471  10469  10472  10475     1  0.0000000  0.6508444  3
  10471  10469  10472  10473     1  0.0000000  0.6508444  3
  10471  10469  10472  10474     1  0.0000000  0.6508444  3
  10473  10472  10475  10478     1  0.0000000  0.6508444  3
  10473  10472  10475  10476     1  0.0000000  0.6508444  3
  10473  10472  10475  10477     1  0.0000000  0.6508444  3
  10473  10472  10469  10497     1  0.0000000  1.0460000  1
  10473  10472  10469  10497     1  0.0000000  0.0000000  3
  10474  10472  10475  10478     1  0.0000000  0.6508444  3
  10474  10472  10475  10476     1  0.0000000  0.6508444  3
  10474  10472  10475  10477     1  0.0000000  0.6508444  3
  10474  10472  10469  10497     1  0.0000000  1.0460000  1
  10474  10472  10469  10497     1  0.0000000  0.0000000  3
  10475  10478  10479  10480     1  0.0000000  1.2552000  3
  10475  10478  10479  10481     1  0.0000000  1.2552000  3
  10475  10478  10488  10489     1  0.0000000  1.2552000  3
  10475  10478  10488  10490     1  0.0000000  1.2552000  3
  10476  10475  10478  10479     1  0.0000000  1.2552000  3
  10476  10475  10478  10488     1  0.0000000  1.2552000  3
  10477  10475  10478  10479     1  0.0000000  1.2552000  3
  10477  10475  10478  10488     1  0.0000000  1.2552000  3
  10478  10479  10482  10483     1  0.0000000  0.6508444  3
  10478  10479  10482  10484     1  0.0000000  0.6508444  3
  10478  10488  10491  10492     1  0.0000000  0.6508444  3
  10478  10488  10491  10493     1  0.0000000  0.6508444  3
  10479  10478  10488  10489     1  0.0000000  1.2552000  3
  10479  10478  10488  10490     1  0.0000000  1.2552000  3
  10480  10479  10482  10485     1  0.0000000  0.6508444  3
  10480  10479  10482  10483     1  0.0000000  0.6508444  3
  10480  10479  10482  10484     1  0.0000000  0.6508444  3
  10480  10479  10478  10488     1  0.0000000  1.2552000  3
  10481  10479  10482  10485     1  0.0000000  0.6508444  3
  10481  10479  10482  10483     1  0.0000000  0.6508444  3
  10481  10479  10482  10484     1  0.0000000  0.6508444  3
  10481  10479  10478  10488     1  0.0000000  1.2552000  3
  10483  10482  10485  10486     1  0.0000000  3.3472000  1
  10483  10482  10485  10486     1  0.0000000  0.0000000  2
  10483  10482  10485  10486     1  180.0000771  0.3347200  3
  10483  10482  10485  10487     1  0.0000000  3.3472000  1
  10483  10482  10485  10487     1  0.0000000  0.0000000  2
  10483  10482  10485  10487     1  180.0000771  0.3347200  3
  10484  10482  10485  10486     1  0.0000000  3.3472000  1
  10484  10482  10485  10486     1  0.0000000  0.0000000  2
  10484  10482  10485  10486     1  180.0000771  0.3347200  3
  10484  10482  10485  10487     1  0.0000000  3.3472000  1
  10484  10482  10485  10487     1  0.0000000  0.0000000  2
  10484  10482  10485  10487     1  180.0000771  0.3347200  3
  10489  10488  10491  10494     1  0.0000000  0.6508444  3
  10489  10488  10491  10492     1  0.0000000  0.6508444  3
  10489  10488  10491  10493     1  0.0000000  0.6508444  3
  10490  10488  10491  10494     1  0.0000000  0.6508444  3
  10490  10488  10491  10492     1  0.0000000  0.6508444  3
  10490  10488  10491  10493     1  0.0000000  0.6508444  3
  10492  10491  10494  10495     1  0.0000000  3.3472000  1
  10492  10491  10494  10495     1  0.0000000  0.0000000  2
  10492  10491  10494  10495     1  180.0000771  0.3347200  3
  10492  10491  10494  10496     1  0.0000000  3.3472000  1
  10492  10491  10494  10496     1  0.0000000  0.0000000  2
  10492  10491  10494  10496     1  180.0000771  0.3347200  3
  10493  10491  10494  10495     1  0.0000000  3.3472000  1
  10493  10491  10494  10495     1  0.0000000  0.0000000  2
  10493  10491  10494  10495     1  180.0000771  0.3347200  3
  10493  10491  10494  10496     1  0.0000000  3.3472000  1
  10493  10491  10494  10496     1  0.0000000  0.0000000  2
  10493  10491  10494  10496     1  180.0000771  0.3347200  3
  10498  10501  10504  10505     1  0.0000000  0.6508444  3
  10498  10501  10504  10506     1  0.0000000  0.6508444  3
  10499  10498  10501  10504     1  0.0000000  0.6508444  3
  10499  10498  10501  10502     1  0.0000000  0.6508444  3
  10499  10498  10501  10503     1  0.0000000  0.6508444  3
  10500  10498  10501  10504     1  0.0000000  0.6508444  3
  10500  10498  10501  10502     1  0.0000000  0.6508444  3
  10500  10498  10501  10503     1  0.0000000  0.6508444  3
  10502  10501  10498  10526     1  0.0000000  1.0460000  1
  10502  10501  10498  10526     1  0.0000000  0.0000000  3
  10502  10501  10504  10507     1  0.0000000  0.6508444  3
  10502  10501  10504  10505     1  0.0000000  0.6508444  3
  10502  10501  10504  10506     1  0.0000000  0.6508444  3
  10503  10501  10498  10526     1  0.0000000  1.0460000  1
  10503  10501  10498  10526     1  0.0000000  0.0000000  3
  10503  10501  10504  10507     1  0.0000000  0.6508444  3
  10503  10501  10504  10505     1  0.0000000  0.6508444  3
  10503  10501  10504  10506     1  0.0000000  0.6508444  3
  10504  10507  10508  10509     1  0.0000000  1.2552000  3
  10504  10507  10508  10510     1  0.0000000  1.2552000  3
  10504  10507  10517  10518     1  0.0000000  1.2552000  3
  10504  10507  10517  10519     1  0.0000000  1.2552000  3
  10505  10504  10507  10508     1  0.0000000  1.2552000  3
  10505  10504  10507  10517     1  0.0000000  1.2552000  3
  10506  10504  10507  10508     1  0.0000000  1.2552000  3
  10506  10504  10507  10517     1  0.0000000  1.2552000  3
  10507  10508  10511  10512     1  0.0000000  0.6508444  3
  10507  10508  10511  10513     1  0.0000000  0.6508444  3
  10507  10517  10520  10521     1  0.0000000  0.6508444  3
  10507  10517  10520  10522     1  0.0000000  0.6508444  3
  10508  10507  10517  10518     1  0.0000000  1.2552000  3
  10508  10507  10517  10519     1  0.0000000  1.2552000  3
  10509  10508  10507  10517     1  0.0000000  1.2552000  3
  10509  10508  10511  10514     1  0.0000000  0.6508444  3
  10509  10508  10511  10512     1  0.0000000  0.6508444  3
  10509  10508  10511  10513     1  0.0000000  0.6508444  3
  10510  10508  10507  10517     1  0.0000000  1.2552000  3
  10510  10508  10511  10514     1  0.0000000  0.6508444  3
  10510  10508  10511  10512     1  0.0000000  0.6508444  3
  10510  10508  10511  10513     1  0.0000000  0.6508444  3
  10512  10511  10514  10515     1  0.0000000  3.3472000  1
  10512  10511  10514  10515     1  0.0000000  0.0000000  2
  10512  10511  10514  10515     1  180.0000771  0.3347200  3
  10512  10511  10514  10516     1  0.0000000  3.3472000  1
  10512  10511  10514  10516     1  0.0000000  0.0000000  2
  10512  10511  10514  10516     1  180.0000771  0.3347200  3
  10513  10511  10514  10515     1  0.0000000  3.3472000  1
  10513  10511  10514  10515     1  0.0000000  0.0000000  2
  10513  10511  10514  10515     1  180.0000771  0.3347200  3
  10513  10511  10514  10516     1  0.0000000  3.3472000  1
  10513  10511  10514  10516     1  0.0000000  0.0000000  2
  10513  10511  10514  10516     1  180.0000771  0.3347200  3
  10518  10517  10520  10523     1  0.0000000  0.6508444  3
  10518  10517  10520  10521     1  0.0000000  0.6508444  3
  10518  10517  10520  10522     1  0.0000000  0.6508444  3
  10519  10517  10520  10523     1  0.0000000  0.6508444  3
  10519  10517  10520  10521     1  0.0000000  0.6508444  3
  10519  10517  10520  10522     1  0.0000000  0.6508444  3
  10521  10520  10523  10524     1  0.0000000  3.3472000  1
  10521  10520  10523  10524     1  0.0000000  0.0000000  2
  10521  10520  10523  10524     1  180.0000771  0.3347200  3
  10521  10520  10523  10525     1  0.0000000  3.3472000  1
  10521  10520  10523  10525     1  0.0000000  0.0000000  2
  10521  10520  10523  10525     1  180.0000771  0.3347200  3
  10522  10520  10523  10524     1  0.0000000  3.3472000  1
  10522  10520  10523  10524     1  0.0000000  0.0000000  2
  10522  10520  10523  10524     1  180.0000771  0.3347200  3
  10522  10520  10523  10525     1  0.0000000  3.3472000  1
  10522  10520  10523  10525     1  0.0000000  0.0000000  2
  10522  10520  10523  10525     1  180.0000771  0.3347200  3
  10527  10530  10533  10534     1  0.0000000  0.6508444  3
  10527  10530  10533  10535     1  0.0000000  0.6508444  3
  10528  10527  10530  10533     1  0.0000000  0.6508444  3
  10528  10527  10530  10531     1  0.0000000  0.6508444  3
  10528  10527  10530  10532     1  0.0000000  0.6508444  3
  10529  10527  10530  10533     1  0.0000000  0.6508444  3
  10529  10527  10530  10531     1  0.0000000  0.6508444  3
  10529  10527  10530  10532     1  0.0000000  0.6508444  3
  10531  10530  10533  10536     1  0.0000000  0.6508444  3
  10531  10530  10533  10534     1  0.0000000  0.6508444  3
  10531  10530  10533  10535     1  0.0000000  0.6508444  3
  10531  10530  10527  10555     1  0.0000000  1.0460000  1
  10531  10530  10527  10555     1  0.0000000  0.0000000  3
  10532  10530  10533  10536     1  0.0000000  0.6508444  3
  10532  10530  10533  10534     1  0.0000000  0.6508444  3
  10532  10530  10533  10535     1  0.0000000  0.6508444  3
  10532  10530  10527  10555     1  0.0000000  1.0460000  1
  10532  10530  10527  10555     1  0.0000000  0.0000000  3
  10533  10536  10537  10538     1  0.0000000  1.2552000  3
  10533  10536  10537  10539     1  0.0000000  1.2552000  3
  10533  10536  10546  10547     1  0.0000000  1.2552000  3
  10533  10536  10546  10548     1  0.0000000  1.2552000  3
  10534  10533  10536  10537     1  0.0000000  1.2552000  3
  10534  10533  10536  10546     1  0.0000000  1.2552000  3
  10535  10533  10536  10537     1  0.0000000  1.2552000  3
  10535  10533  10536  10546     1  0.0000000  1.2552000  3
  10536  10537  10540  10541     1  0.0000000  0.6508444  3
  10536  10537  10540  10542     1  0.0000000  0.6508444  3
  10536  10546  10549  10550     1  0.0000000  0.6508444  3
  10536  10546  10549  10551     1  0.0000000  0.6508444  3
  10537  10536  10546  10547     1  0.0000000  1.2552000  3
  10537  10536  10546  10548     1  0.0000000  1.2552000  3
  10538  10537  10540  10543     1  0.0000000  0.6508444  3
  10538  10537  10540  10541     1  0.0000000  0.6508444  3
  10538  10537  10540  10542     1  0.0000000  0.6508444  3
  10538  10537  10536  10546     1  0.0000000  1.2552000  3
  10539  10537  10540  10543     1  0.0000000  0.6508444  3
  10539  10537  10540  10541     1  0.0000000  0.6508444  3
  10539  10537  10540  10542     1  0.0000000  0.6508444  3
  10539  10537  10536  10546     1  0.0000000  1.2552000  3
  10541  10540  10543  10544     1  0.0000000  3.3472000  1
  10541  10540  10543  10544     1  0.0000000  0.0000000  2
  10541  10540  10543  10544     1  180.0000771  0.3347200  3
  10541  10540  10543  10545     1  0.0000000  3.3472000  1
  10541  10540  10543  10545     1  0.0000000  0.0000000  2
  10541  10540  10543  10545     1  180.0000771  0.3347200  3
  10542  10540  10543  10544     1  0.0000000  3.3472000  1
  10542  10540  10543  10544     1  0.0000000  0.0000000  2
  10542  10540  10543  10544     1  180.0000771  0.3347200  3
  10542  10540  10543  10545     1  0.0000000  3.3472000  1
  10542  10540  10543  10545     1  0.0000000  0.0000000  2
  10542  10540  10543  10545     1  180.0000771  0.3347200  3
  10547  10546  10549  10552     1  0.0000000  0.6508444  3
  10547  10546  10549  10550     1  0.0000000  0.6508444  3
  10547  10546  10549  10551     1  0.0000000  0.6508444  3
  10548  10546  10549  10552     1  0.0000000  0.6508444  3
  10548  10546  10549  10550     1  0.0000000  0.6508444  3
  10548  10546  10549  10551     1  0.0000000  0.6508444  3
  10550  10549  10552  10553     1  0.0000000  3.3472000  1
  10550  10549  10552  10553     1  0.0000000  0.0000000  2
  10550  10549  10552  10553     1  180.0000771  0.3347200  3
  10550  10549  10552  10554     1  0.0000000  3.3472000  1
  10550  10549  10552  10554     1  0.0000000  0.0000000  2
  10550  10549  10552  10554     1  180.0000771  0.3347200  3
  10551  10549  10552  10553     1  0.0000000  3.3472000  1
  10551  10549  10552  10553     1  0.0000000  0.0000000  2
  10551  10549  10552  10553     1  180.0000771  0.3347200  3
  10551  10549  10552  10554     1  0.0000000  3.3472000  1
  10551  10549  10552  10554     1  0.0000000  0.0000000  2
  10551  10549  10552  10554     1  180.0000771  0.3347200  3
  10556  10559  10562  10563     1  0.0000000  0.6508444  3
  10556  10559  10562  10564     1  0.0000000  0.6508444  3
  10557  10556  10559  10562     1  0.0000000  0.6508444  3
  10557  10556  10559  10560     1  0.0000000  0.6508444  3
  10557  10556  10559  10561     1  0.0000000  0.6508444  3
  10558  10556  10559  10562     1  0.0000000  0.6508444  3
  10558  10556  10559  10560     1  0.0000000  0.6508444  3
  10558  10556  10559  10561     1  0.0000000  0.6508444  3
  10560  10559  10556  10584     1  0.0000000  1.0460000  1
  10560  10559  10556  10584     1  0.0000000  0.0000000  3
  10560  10559  10562  10565     1  0.0000000  0.6508444  3
  10560  10559  10562  10563     1  0.0000000  0.6508444  3
  10560  10559  10562  10564     1  0.0000000  0.6508444  3
  10561  10559  10556  10584     1  0.0000000  1.0460000  1
  10561  10559  10556  10584     1  0.0000000  0.0000000  3
  10561  10559  10562  10565     1  0.0000000  0.6508444  3
  10561  10559  10562  10563     1  0.0000000  0.6508444  3
  10561  10559  10562  10564     1  0.0000000  0.6508444  3
  10562  10565  10566  10567     1  0.0000000  1.2552000  3
  10562  10565  10566  10568     1  0.0000000  1.2552000  3
  10562  10565  10575  10576     1  0.0000000  1.2552000  3
  10562  10565  10575  10577     1  0.0000000  1.2552000  3
  10563  10562  10565  10566     1  0.0000000  1.2552000  3
  10563  10562  10565  10575     1  0.0000000  1.2552000  3
  10564  10562  10565  10566     1  0.0000000  1.2552000  3
  10564  10562  10565  10575     1  0.0000000  1.2552000  3
  10565  10566  10569  10570     1  0.0000000  0.6508444  3
  10565  10566  10569  10571     1  0.0000000  0.6508444  3
  10565  10575  10578  10579     1  0.0000000  0.6508444  3
  10565  10575  10578  10580     1  0.0000000  0.6508444  3
  10566  10565  10575  10576     1  0.0000000  1.2552000  3
  10566  10565  10575  10577     1  0.0000000  1.2552000  3
  10567  10566  10565  10575     1  0.0000000  1.2552000  3
  10567  10566  10569  10572     1  0.0000000  0.6508444  3
  10567  10566  10569  10570     1  0.0000000  0.6508444  3
  10567  10566  10569  10571     1  0.0000000  0.6508444  3
  10568  10566  10565  10575     1  0.0000000  1.2552000  3
  10568  10566  10569  10572     1  0.0000000  0.6508444  3
  10568  10566  10569  10570     1  0.0000000  0.6508444  3
  10568  10566  10569  10571     1  0.0000000  0.6508444  3
  10570  10569  10572  10573     1  0.0000000  3.3472000  1
  10570  10569  10572  10573     1  0.0000000  0.0000000  2
  10570  10569  10572  10573     1  180.0000771  0.3347200  3
  10570  10569  10572  10574     1  0.0000000  3.3472000  1
  10570  10569  10572  10574     1  0.0000000  0.0000000  2
  10570  10569  10572  10574     1  180.0000771  0.3347200  3
  10571  10569  10572  10573     1  0.0000000  3.3472000  1
  10571  10569  10572  10573     1  0.0000000  0.0000000  2
  10571  10569  10572  10573     1  180.0000771  0.3347200  3
  10571  10569  10572  10574     1  0.0000000  3.3472000  1
  10571  10569  10572  10574     1  0.0000000  0.0000000  2
  10571  10569  10572  10574     1  180.0000771  0.3347200  3
  10576  10575  10578  10581     1  0.0000000  0.6508444  3
  10576  10575  10578  10579     1  0.0000000  0.6508444  3
  10576  10575  10578  10580     1  0.0000000  0.6508444  3
  10577  10575  10578  10581     1  0.0000000  0.6508444  3
  10577  10575  10578  10579     1  0.0000000  0.6508444  3
  10577  10575  10578  10580     1  0.0000000  0.6508444  3
  10579  10578  10581  10582     1  0.0000000  3.3472000  1
  10579  10578  10581  10582     1  0.0000000  0.0000000  2
  10579  10578  10581  10582     1  180.0000771  0.3347200  3
  10579  10578  10581  10583     1  0.0000000  3.3472000  1
  10579  10578  10581  10583     1  0.0000000  0.0000000  2
  10579  10578  10581  10583     1  180.0000771  0.3347200  3
  10580  10578  10581  10582     1  0.0000000  3.3472000  1
  10580  10578  10581  10582     1  0.0000000  0.0000000  2
  10580  10578  10581  10582     1  180.0000771  0.3347200  3
  10580  10578  10581  10583     1  0.0000000  3.3472000  1
  10580  10578  10581  10583     1  0.0000000  0.0000000  2
  10580  10578  10581  10583     1  180.0000771  0.3347200  3
  10585  10588  10591  10592     1  0.0000000  0.6508444  3
  10585  10588  10591  10593     1  0.0000000  0.6508444  3
  10586  10585  10588  10591     1  0.0000000  0.6508444  3
  10586  10585  10588  10589     1  0.0000000  0.6508444  3
  10586  10585  10588  10590     1  0.0000000  0.6508444  3
  10587  10585  10588  10591     1  0.0000000  0.6508444  3
  10587  10585  10588  10589     1  0.0000000  0.6508444  3
  10587  10585  10588  10590     1  0.0000000  0.6508444  3
  10589  10588  10591  10594     1  0.0000000  0.6508444  3
  10589  10588  10591  10592     1  0.0000000  0.6508444  3
  10589  10588  10591  10593     1  0.0000000  0.6508444  3
  10589  10588  10585  10613     1  0.0000000  1.0460000  1
  10589  10588  10585  10613     1  0.0000000  0.0000000  3
  10590  10588  10591  10594     1  0.0000000  0.6508444  3
  10590  10588  10591  10592     1  0.0000000  0.6508444  3
  10590  10588  10591  10593     1  0.0000000  0.6508444  3
  10590  10588  10585  10613     1  0.0000000  1.0460000  1
  10590  10588  10585  10613     1  0.0000000  0.0000000  3
  10591  10594  10595  10596     1  0.0000000  1.2552000  3
  10591  10594  10595  10597     1  0.0000000  1.2552000  3
  10591  10594  10604  10605     1  0.0000000  1.2552000  3
  10591  10594  10604  10606     1  0.0000000  1.2552000  3
  10592  10591  10594  10595     1  0.0000000  1.2552000  3
  10592  10591  10594  10604     1  0.0000000  1.2552000  3
  10593  10591  10594  10595     1  0.0000000  1.2552000  3
  10593  10591  10594  10604     1  0.0000000  1.2552000  3
  10594  10595  10598  10599     1  0.0000000  0.6508444  3
  10594  10595  10598  10600     1  0.0000000  0.6508444  3
  10594  10604  10607  10608     1  0.0000000  0.6508444  3
  10594  10604  10607  10609     1  0.0000000  0.6508444  3
  10595  10594  10604  10605     1  0.0000000  1.2552000  3
  10595  10594  10604  10606     1  0.0000000  1.2552000  3
  10596  10595  10598  10601     1  0.0000000  0.6508444  3
  10596  10595  10598  10599     1  0.0000000  0.6508444  3
  10596  10595  10598  10600     1  0.0000000  0.6508444  3
  10596  10595  10594  10604     1  0.0000000  1.2552000  3
  10597  10595  10598  10601     1  0.0000000  0.6508444  3
  10597  10595  10598  10599     1  0.0000000  0.6508444  3
  10597  10595  10598  10600     1  0.0000000  0.6508444  3
  10597  10595  10594  10604     1  0.0000000  1.2552000  3
  10599  10598  10601  10602     1  0.0000000  3.3472000  1
  10599  10598  10601  10602     1  0.0000000  0.0000000  2
  10599  10598  10601  10602     1  180.0000771  0.3347200  3
  10599  10598  10601  10603     1  0.0000000  3.3472000  1
  10599  10598  10601  10603     1  0.0000000  0.0000000  2
  10599  10598  10601  10603     1  180.0000771  0.3347200  3
  10600  10598  10601  10602     1  0.0000000  3.3472000  1
  10600  10598  10601  10602     1  0.0000000  0.0000000  2
  10600  10598  10601  10602     1  180.0000771  0.3347200  3
  10600  10598  10601  10603     1  0.0000000  3.3472000  1
  10600  10598  10601  10603     1  0.0000000  0.0000000  2
  10600  10598  10601  10603     1  180.0000771  0.3347200  3
  10605  10604  10607  10610     1  0.0000000  0.6508444  3
  10605  10604  10607  10608     1  0.0000000  0.6508444  3
  10605  10604  10607  10609     1  0.0000000  0.6508444  3
  10606  10604  10607  10610     1  0.0000000  0.6508444  3
  10606  10604  10607  10608     1  0.0000000  0.6508444  3
  10606  10604  10607  10609     1  0.0000000  0.6508444  3
  10608  10607  10610  10611     1  0.0000000  3.3472000  1
  10608  10607  10610  10611     1  0.0000000  0.0000000  2
  10608  10607  10610  10611     1  180.0000771  0.3347200  3
  10608  10607  10610  10612     1  0.0000000  3.3472000  1
  10608  10607  10610  10612     1  0.0000000  0.0000000  2
  10608  10607  10610  10612     1  180.0000771  0.3347200  3
  10609  10607  10610  10611     1  0.0000000  3.3472000  1
  10609  10607  10610  10611     1  0.0000000  0.0000000  2
  10609  10607  10610  10611     1  180.0000771  0.3347200  3
  10609  10607  10610  10612     1  0.0000000  3.3472000  1
  10609  10607  10610  10612     1  0.0000000  0.0000000  2
  10609  10607  10610  10612     1  180.0000771  0.3347200  3
  10614  10617  10620  10621     1  0.0000000  0.6508444  3
  10614  10617  10620  10622     1  0.0000000  0.6508444  3
  10615  10614  10617  10620     1  0.0000000  0.6508444  3
  10615  10614  10617  10618     1  0.0000000  0.6508444  3
  10615  10614  10617  10619     1  0.0000000  0.6508444  3
  10616  10614  10617  10620     1  0.0000000  0.6508444  3
  10616  10614  10617  10618     1  0.0000000  0.6508444  3
  10616  10614  10617  10619     1  0.0000000  0.6508444  3
  10618  10617  10614  10642     1  0.0000000  1.0460000  1
  10618  10617  10614  10642     1  0.0000000  0.0000000  3
  10618  10617  10620  10623     1  0.0000000  0.6508444  3
  10618  10617  10620  10621     1  0.0000000  0.6508444  3
  10618  10617  10620  10622     1  0.0000000  0.6508444  3
  10619  10617  10614  10642     1  0.0000000  1.0460000  1
  10619  10617  10614  10642     1  0.0000000  0.0000000  3
  10619  10617  10620  10623     1  0.0000000  0.6508444  3
  10619  10617  10620  10621     1  0.0000000  0.6508444  3
  10619  10617  10620  10622     1  0.0000000  0.6508444  3
  10620  10623  10624  10625     1  0.0000000  1.2552000  3
  10620  10623  10624  10626     1  0.0000000  1.2552000  3
  10620  10623  10633  10634     1  0.0000000  1.2552000  3
  10620  10623  10633  10635     1  0.0000000  1.2552000  3
  10621  10620  10623  10624     1  0.0000000  1.2552000  3
  10621  10620  10623  10633     1  0.0000000  1.2552000  3
  10622  10620  10623  10624     1  0.0000000  1.2552000  3
  10622  10620  10623  10633     1  0.0000000  1.2552000  3
  10623  10624  10627  10628     1  0.0000000  0.6508444  3
  10623  10624  10627  10629     1  0.0000000  0.6508444  3
  10623  10633  10636  10637     1  0.0000000  0.6508444  3
  10623  10633  10636  10638     1  0.0000000  0.6508444  3
  10624  10623  10633  10634     1  0.0000000  1.2552000  3
  10624  10623  10633  10635     1  0.0000000  1.2552000  3
  10625  10624  10623  10633     1  0.0000000  1.2552000  3
  10625  10624  10627  10630     1  0.0000000  0.6508444  3
  10625  10624  10627  10628     1  0.0000000  0.6508444  3
  10625  10624  10627  10629     1  0.0000000  0.6508444  3
  10626  10624  10623  10633     1  0.0000000  1.2552000  3
  10626  10624  10627  10630     1  0.0000000  0.6508444  3
  10626  10624  10627  10628     1  0.0000000  0.6508444  3
  10626  10624  10627  10629     1  0.0000000  0.6508444  3
  10628  10627  10630  10631     1  0.0000000  3.3472000  1
  10628  10627  10630  10631     1  0.0000000  0.0000000  2
  10628  10627  10630  10631     1  180.0000771  0.3347200  3
  10628  10627  10630  10632     1  0.0000000  3.3472000  1
  10628  10627  10630  10632     1  0.0000000  0.0000000  2
  10628  10627  10630  10632     1  180.0000771  0.3347200  3
  10629  10627  10630  10631     1  0.0000000  3.3472000  1
  10629  10627  10630  10631     1  0.0000000  0.0000000  2
  10629  10627  10630  10631     1  180.0000771  0.3347200  3
  10629  10627  10630  10632     1  0.0000000  3.3472000  1
  10629  10627  10630  10632     1  0.0000000  0.0000000  2
  10629  10627  10630  10632     1  180.0000771  0.3347200  3
  10634  10633  10636  10639     1  0.0000000  0.6508444  3
  10634  10633  10636  10637     1  0.0000000  0.6508444  3
  10634  10633  10636  10638     1  0.0000000  0.6508444  3
  10635  10633  10636  10639     1  0.0000000  0.6508444  3
  10635  10633  10636  10637     1  0.0000000  0.6508444  3
  10635  10633  10636  10638     1  0.0000000  0.6508444  3
  10637  10636  10639  10640     1  0.0000000  3.3472000  1
  10637  10636  10639  10640     1  0.0000000  0.0000000  2
  10637  10636  10639  10640     1  180.0000771  0.3347200  3
  10637  10636  10639  10641     1  0.0000000  3.3472000  1
  10637  10636  10639  10641     1  0.0000000  0.0000000  2
  10637  10636  10639  10641     1  180.0000771  0.3347200  3
  10638  10636  10639  10640     1  0.0000000  3.3472000  1
  10638  10636  10639  10640     1  0.0000000  0.0000000  2
  10638  10636  10639  10640     1  180.0000771  0.3347200  3
  10638  10636  10639  10641     1  0.0000000  3.3472000  1
  10638  10636  10639  10641     1  0.0000000  0.0000000  2
  10638  10636  10639  10641     1  180.0000771  0.3347200  3
  10643  10646  10649  10650     1  0.0000000  0.6508444  3
  10643  10646  10649  10651     1  0.0000000  0.6508444  3
  10644  10643  10646  10649     1  0.0000000  0.6508444  3
  10644  10643  10646  10647     1  0.0000000  0.6508444  3
  10644  10643  10646  10648     1  0.0000000  0.6508444  3
  10645  10643  10646  10649     1  0.0000000  0.6508444  3
  10645  10643  10646  10647     1  0.0000000  0.6508444  3
  10645  10643  10646  10648     1  0.0000000  0.6508444  3
  10647  10646  10649  10652     1  0.0000000  0.6508444  3
  10647  10646  10649  10650     1  0.0000000  0.6508444  3
  10647  10646  10649  10651     1  0.0000000  0.6508444  3
  10647  10646  10643  10671     1  0.0000000  1.0460000  1
  10647  10646  10643  10671     1  0.0000000  0.0000000  3
  10648  10646  10649  10652     1  0.0000000  0.6508444  3
  10648  10646  10649  10650     1  0.0000000  0.6508444  3
  10648  10646  10649  10651     1  0.0000000  0.6508444  3
  10648  10646  10643  10671     1  0.0000000  1.0460000  1
  10648  10646  10643  10671     1  0.0000000  0.0000000  3
  10649  10652  10653  10654     1  0.0000000  1.2552000  3
  10649  10652  10653  10655     1  0.0000000  1.2552000  3
  10649  10652  10662  10663     1  0.0000000  1.2552000  3
  10649  10652  10662  10664     1  0.0000000  1.2552000  3
  10650  10649  10652  10653     1  0.0000000  1.2552000  3
  10650  10649  10652  10662     1  0.0000000  1.2552000  3
  10651  10649  10652  10653     1  0.0000000  1.2552000  3
  10651  10649  10652  10662     1  0.0000000  1.2552000  3
  10652  10653  10656  10657     1  0.0000000  0.6508444  3
  10652  10653  10656  10658     1  0.0000000  0.6508444  3
  10652  10662  10665  10666     1  0.0000000  0.6508444  3
  10652  10662  10665  10667     1  0.0000000  0.6508444  3
  10653  10652  10662  10663     1  0.0000000  1.2552000  3
  10653  10652  10662  10664     1  0.0000000  1.2552000  3
  10654  10653  10656  10659     1  0.0000000  0.6508444  3
  10654  10653  10656  10657     1  0.0000000  0.6508444  3
  10654  10653  10656  10658     1  0.0000000  0.6508444  3
  10654  10653  10652  10662     1  0.0000000  1.2552000  3
  10655  10653  10656  10659     1  0.0000000  0.6508444  3
  10655  10653  10656  10657     1  0.0000000  0.6508444  3
  10655  10653  10656  10658     1  0.0000000  0.6508444  3
  10655  10653  10652  10662     1  0.0000000  1.2552000  3
  10657  10656  10659  10660     1  0.0000000  3.3472000  1
  10657  10656  10659  10660     1  0.0000000  0.0000000  2
  10657  10656  10659  10660     1  180.0000771  0.3347200  3
  10657  10656  10659  10661     1  0.0000000  3.3472000  1
  10657  10656  10659  10661     1  0.0000000  0.0000000  2
  10657  10656  10659  10661     1  180.0000771  0.3347200  3
  10658  10656  10659  10660     1  0.0000000  3.3472000  1
  10658  10656  10659  10660     1  0.0000000  0.0000000  2
  10658  10656  10659  10660     1  180.0000771  0.3347200  3
  10658  10656  10659  10661     1  0.0000000  3.3472000  1
  10658  10656  10659  10661     1  0.0000000  0.0000000  2
  10658  10656  10659  10661     1  180.0000771  0.3347200  3
  10663  10662  10665  10668     1  0.0000000  0.6508444  3
  10663  10662  10665  10666     1  0.0000000  0.6508444  3
  10663  10662  10665  10667     1  0.0000000  0.6508444  3
  10664  10662  10665  10668     1  0.0000000  0.6508444  3
  10664  10662  10665  10666     1  0.0000000  0.6508444  3
  10664  10662  10665  10667     1  0.0000000  0.6508444  3
  10666  10665  10668  10669     1  0.0000000  3.3472000  1
  10666  10665  10668  10669     1  0.0000000  0.0000000  2
  10666  10665  10668  10669     1  180.0000771  0.3347200  3
  10666  10665  10668  10670     1  0.0000000  3.3472000  1
  10666  10665  10668  10670     1  0.0000000  0.0000000  2
  10666  10665  10668  10670     1  180.0000771  0.3347200  3
  10667  10665  10668  10669     1  0.0000000  3.3472000  1
  10667  10665  10668  10669     1  0.0000000  0.0000000  2
  10667  10665  10668  10669     1  180.0000771  0.3347200  3
  10667  10665  10668  10670     1  0.0000000  3.3472000  1
  10667  10665  10668  10670     1  0.0000000  0.0000000  2
  10667  10665  10668  10670     1  180.0000771  0.3347200  3
  10672  10675  10678  10679     1  0.0000000  0.6508444  3
  10672  10675  10678  10680     1  0.0000000  0.6508444  3
  10673  10672  10675  10678     1  0.0000000  0.6508444  3
  10673  10672  10675  10676     1  0.0000000  0.6508444  3
  10673  10672  10675  10677     1  0.0000000  0.6508444  3
  10674  10672  10675  10678     1  0.0000000  0.6508444  3
  10674  10672  10675  10676     1  0.0000000  0.6508444  3
  10674  10672  10675  10677     1  0.0000000  0.6508444  3
  10676  10675  10672  10700     1  0.0000000  1.0460000  1
  10676  10675  10672  10700     1  0.0000000  0.0000000  3
  10676  10675  10678  10681     1  0.0000000  0.6508444  3
  10676  10675  10678  10679     1  0.0000000  0.6508444  3
  10676  10675  10678  10680     1  0.0000000  0.6508444  3
  10677  10675  10672  10700     1  0.0000000  1.0460000  1
  10677  10675  10672  10700     1  0.0000000  0.0000000  3
  10677  10675  10678  10681     1  0.0000000  0.6508444  3
  10677  10675  10678  10679     1  0.0000000  0.6508444  3
  10677  10675  10678  10680     1  0.0000000  0.6508444  3
  10678  10681  10682  10683     1  0.0000000  1.2552000  3
  10678  10681  10682  10684     1  0.0000000  1.2552000  3
  10678  10681  10691  10692     1  0.0000000  1.2552000  3
  10678  10681  10691  10693     1  0.0000000  1.2552000  3
  10679  10678  10681  10682     1  0.0000000  1.2552000  3
  10679  10678  10681  10691     1  0.0000000  1.2552000  3
  10680  10678  10681  10682     1  0.0000000  1.2552000  3
  10680  10678  10681  10691     1  0.0000000  1.2552000  3
  10681  10682  10685  10686     1  0.0000000  0.6508444  3
  10681  10682  10685  10687     1  0.0000000  0.6508444  3
  10681  10691  10694  10695     1  0.0000000  0.6508444  3
  10681  10691  10694  10696     1  0.0000000  0.6508444  3
  10682  10681  10691  10692     1  0.0000000  1.2552000  3
  10682  10681  10691  10693     1  0.0000000  1.2552000  3
  10683  10682  10681  10691     1  0.0000000  1.2552000  3
  10683  10682  10685  10688     1  0.0000000  0.6508444  3
  10683  10682  10685  10686     1  0.0000000  0.6508444  3
  10683  10682  10685  10687     1  0.0000000  0.6508444  3
  10684  10682  10681  10691     1  0.0000000  1.2552000  3
  10684  10682  10685  10688     1  0.0000000  0.6508444  3
  10684  10682  10685  10686     1  0.0000000  0.6508444  3
  10684  10682  10685  10687     1  0.0000000  0.6508444  3
  10686  10685  10688  10689     1  0.0000000  3.3472000  1
  10686  10685  10688  10689     1  0.0000000  0.0000000  2
  10686  10685  10688  10689     1  180.0000771  0.3347200  3
  10686  10685  10688  10690     1  0.0000000  3.3472000  1
  10686  10685  10688  10690     1  0.0000000  0.0000000  2
  10686  10685  10688  10690     1  180.0000771  0.3347200  3
  10687  10685  10688  10689     1  0.0000000  3.3472000  1
  10687  10685  10688  10689     1  0.0000000  0.0000000  2
  10687  10685  10688  10689     1  180.0000771  0.3347200  3
  10687  10685  10688  10690     1  0.0000000  3.3472000  1
  10687  10685  10688  10690     1  0.0000000  0.0000000  2
  10687  10685  10688  10690     1  180.0000771  0.3347200  3
  10692  10691  10694  10697     1  0.0000000  0.6508444  3
  10692  10691  10694  10695     1  0.0000000  0.6508444  3
  10692  10691  10694  10696     1  0.0000000  0.6508444  3
  10693  10691  10694  10697     1  0.0000000  0.6508444  3
  10693  10691  10694  10695     1  0.0000000  0.6508444  3
  10693  10691  10694  10696     1  0.0000000  0.6508444  3
  10695  10694  10697  10698     1  0.0000000  3.3472000  1
  10695  10694  10697  10698     1  0.0000000  0.0000000  2
  10695  10694  10697  10698     1  180.0000771  0.3347200  3
  10695  10694  10697  10699     1  0.0000000  3.3472000  1
  10695  10694  10697  10699     1  0.0000000  0.0000000  2
  10695  10694  10697  10699     1  180.0000771  0.3347200  3
  10696  10694  10697  10698     1  0.0000000  3.3472000  1
  10696  10694  10697  10698     1  0.0000000  0.0000000  2
  10696  10694  10697  10698     1  180.0000771  0.3347200  3
  10696  10694  10697  10699     1  0.0000000  3.3472000  1
  10696  10694  10697  10699     1  0.0000000  0.0000000  2
  10696  10694  10697  10699     1  180.0000771  0.3347200  3
  10701  10704  10707  10708     1  0.0000000  0.6508444  3
  10701  10704  10707  10709     1  0.0000000  0.6508444  3
  10702  10701  10704  10707     1  0.0000000  0.6508444  3
  10702  10701  10704  10705     1  0.0000000  0.6508444  3
  10702  10701  10704  10706     1  0.0000000  0.6508444  3
  10703  10701  10704  10707     1  0.0000000  0.6508444  3
  10703  10701  10704  10705     1  0.0000000  0.6508444  3
  10703  10701  10704  10706     1  0.0000000  0.6508444  3
  10705  10704  10707  10710     1  0.0000000  0.6508444  3
  10705  10704  10707  10708     1  0.0000000  0.6508444  3
  10705  10704  10707  10709     1  0.0000000  0.6508444  3
  10705  10704  10701  10729     1  0.0000000  1.0460000  1
  10705  10704  10701  10729     1  0.0000000  0.0000000  3
  10706  10704  10707  10710     1  0.0000000  0.6508444  3
  10706  10704  10707  10708     1  0.0000000  0.6508444  3
  10706  10704  10707  10709     1  0.0000000  0.6508444  3
  10706  10704  10701  10729     1  0.0000000  1.0460000  1
  10706  10704  10701  10729     1  0.0000000  0.0000000  3
  10707  10710  10711  10712     1  0.0000000  1.2552000  3
  10707  10710  10711  10713     1  0.0000000  1.2552000  3
  10707  10710  10720  10721     1  0.0000000  1.2552000  3
  10707  10710  10720  10722     1  0.0000000  1.2552000  3
  10708  10707  10710  10711     1  0.0000000  1.2552000  3
  10708  10707  10710  10720     1  0.0000000  1.2552000  3
  10709  10707  10710  10711     1  0.0000000  1.2552000  3
  10709  10707  10710  10720     1  0.0000000  1.2552000  3
  10710  10711  10714  10715     1  0.0000000  0.6508444  3
  10710  10711  10714  10716     1  0.0000000  0.6508444  3
  10710  10720  10723  10724     1  0.0000000  0.6508444  3
  10710  10720  10723  10725     1  0.0000000  0.6508444  3
  10711  10710  10720  10721     1  0.0000000  1.2552000  3
  10711  10710  10720  10722     1  0.0000000  1.2552000  3
  10712  10711  10714  10717     1  0.0000000  0.6508444  3
  10712  10711  10714  10715     1  0.0000000  0.6508444  3
  10712  10711  10714  10716     1  0.0000000  0.6508444  3
  10712  10711  10710  10720     1  0.0000000  1.2552000  3
  10713  10711  10714  10717     1  0.0000000  0.6508444  3
  10713  10711  10714  10715     1  0.0000000  0.6508444  3
  10713  10711  10714  10716     1  0.0000000  0.6508444  3
  10713  10711  10710  10720     1  0.0000000  1.2552000  3
  10715  10714  10717  10718     1  0.0000000  3.3472000  1
  10715  10714  10717  10718     1  0.0000000  0.0000000  2
  10715  10714  10717  10718     1  180.0000771  0.3347200  3
  10715  10714  10717  10719     1  0.0000000  3.3472000  1
  10715  10714  10717  10719     1  0.0000000  0.0000000  2
  10715  10714  10717  10719     1  180.0000771  0.3347200  3
  10716  10714  10717  10718     1  0.0000000  3.3472000  1
  10716  10714  10717  10718     1  0.0000000  0.0000000  2
  10716  10714  10717  10718     1  180.0000771  0.3347200  3
  10716  10714  10717  10719     1  0.0000000  3.3472000  1
  10716  10714  10717  10719     1  0.0000000  0.0000000  2
  10716  10714  10717  10719     1  180.0000771  0.3347200  3
  10721  10720  10723  10726     1  0.0000000  0.6508444  3
  10721  10720  10723  10724     1  0.0000000  0.6508444  3
  10721  10720  10723  10725     1  0.0000000  0.6508444  3
  10722  10720  10723  10726     1  0.0000000  0.6508444  3
  10722  10720  10723  10724     1  0.0000000  0.6508444  3
  10722  10720  10723  10725     1  0.0000000  0.6508444  3
  10724  10723  10726  10727     1  0.0000000  3.3472000  1
  10724  10723  10726  10727     1  0.0000000  0.0000000  2
  10724  10723  10726  10727     1  180.0000771  0.3347200  3
  10724  10723  10726  10728     1  0.0000000  3.3472000  1
  10724  10723  10726  10728     1  0.0000000  0.0000000  2
  10724  10723  10726  10728     1  180.0000771  0.3347200  3
  10725  10723  10726  10727     1  0.0000000  3.3472000  1
  10725  10723  10726  10727     1  0.0000000  0.0000000  2
  10725  10723  10726  10727     1  180.0000771  0.3347200  3
  10725  10723  10726  10728     1  0.0000000  3.3472000  1
  10725  10723  10726  10728     1  0.0000000  0.0000000  2
  10725  10723  10726  10728     1  180.0000771  0.3347200  3
  10730  10733  10736  10737     1  0.0000000  0.6508444  3
  10730  10733  10736  10738     1  0.0000000  0.6508444  3
  10731  10730  10733  10736     1  0.0000000  0.6508444  3
  10731  10730  10733  10734     1  0.0000000  0.6508444  3
  10731  10730  10733  10735     1  0.0000000  0.6508444  3
  10732  10730  10733  10736     1  0.0000000  0.6508444  3
  10732  10730  10733  10734     1  0.0000000  0.6508444  3
  10732  10730  10733  10735     1  0.0000000  0.6508444  3
  10734  10733  10730  10758     1  0.0000000  1.0460000  1
  10734  10733  10730  10758     1  0.0000000  0.0000000  3
  10734  10733  10736  10739     1  0.0000000  0.6508444  3
  10734  10733  10736  10737     1  0.0000000  0.6508444  3
  10734  10733  10736  10738     1  0.0000000  0.6508444  3
  10735  10733  10730  10758     1  0.0000000  1.0460000  1
  10735  10733  10730  10758     1  0.0000000  0.0000000  3
  10735  10733  10736  10739     1  0.0000000  0.6508444  3
  10735  10733  10736  10737     1  0.0000000  0.6508444  3
  10735  10733  10736  10738     1  0.0000000  0.6508444  3
  10736  10739  10740  10741     1  0.0000000  1.2552000  3
  10736  10739  10740  10742     1  0.0000000  1.2552000  3
  10736  10739  10749  10750     1  0.0000000  1.2552000  3
  10736  10739  10749  10751     1  0.0000000  1.2552000  3
  10737  10736  10739  10740     1  0.0000000  1.2552000  3
  10737  10736  10739  10749     1  0.0000000  1.2552000  3
  10738  10736  10739  10740     1  0.0000000  1.2552000  3
  10738  10736  10739  10749     1  0.0000000  1.2552000  3
  10739  10740  10743  10744     1  0.0000000  0.6508444  3
  10739  10740  10743  10745     1  0.0000000  0.6508444  3
  10739  10749  10752  10753     1  0.0000000  0.6508444  3
  10739  10749  10752  10754     1  0.0000000  0.6508444  3
  10740  10739  10749  10750     1  0.0000000  1.2552000  3
  10740  10739  10749  10751     1  0.0000000  1.2552000  3
  10741  10740  10739  10749     1  0.0000000  1.2552000  3
  10741  10740  10743  10746     1  0.0000000  0.6508444  3
  10741  10740  10743  10744     1  0.0000000  0.6508444  3
  10741  10740  10743  10745     1  0.0000000  0.6508444  3
  10742  10740  10739  10749     1  0.0000000  1.2552000  3
  10742  10740  10743  10746     1  0.0000000  0.6508444  3
  10742  10740  10743  10744     1  0.0000000  0.6508444  3
  10742  10740  10743  10745     1  0.0000000  0.6508444  3
  10744  10743  10746  10747     1  0.0000000  3.3472000  1
  10744  10743  10746  10747     1  0.0000000  0.0000000  2
  10744  10743  10746  10747     1  180.0000771  0.3347200  3
  10744  10743  10746  10748     1  0.0000000  3.3472000  1
  10744  10743  10746  10748     1  0.0000000  0.0000000  2
  10744  10743  10746  10748     1  180.0000771  0.3347200  3
  10745  10743  10746  10747     1  0.0000000  3.3472000  1
  10745  10743  10746  10747     1  0.0000000  0.0000000  2
  10745  10743  10746  10747     1  180.0000771  0.3347200  3
  10745  10743  10746  10748     1  0.0000000  3.3472000  1
  10745  10743  10746  10748     1  0.0000000  0.0000000  2
  10745  10743  10746  10748     1  180.0000771  0.3347200  3
  10750  10749  10752  10755     1  0.0000000  0.6508444  3
  10750  10749  10752  10753     1  0.0000000  0.6508444  3
  10750  10749  10752  10754     1  0.0000000  0.6508444  3
  10751  10749  10752  10755     1  0.0000000  0.6508444  3
  10751  10749  10752  10753     1  0.0000000  0.6508444  3
  10751  10749  10752  10754     1  0.0000000  0.6508444  3
  10753  10752  10755  10756     1  0.0000000  3.3472000  1
  10753  10752  10755  10756     1  0.0000000  0.0000000  2
  10753  10752  10755  10756     1  180.0000771  0.3347200  3
  10753  10752  10755  10757     1  0.0000000  3.3472000  1
  10753  10752  10755  10757     1  0.0000000  0.0000000  2
  10753  10752  10755  10757     1  180.0000771  0.3347200  3
  10754  10752  10755  10756     1  0.0000000  3.3472000  1
  10754  10752  10755  10756     1  0.0000000  0.0000000  2
  10754  10752  10755  10756     1  180.0000771  0.3347200  3
  10754  10752  10755  10757     1  0.0000000  3.3472000  1
  10754  10752  10755  10757     1  0.0000000  0.0000000  2
  10754  10752  10755  10757     1  180.0000771  0.3347200  3
  10759  10762  10765  10766     1  0.0000000  0.6508444  3
  10759  10762  10765  10767     1  0.0000000  0.6508444  3
  10760  10759  10762  10765     1  0.0000000  0.6508444  3
  10760  10759  10762  10763     1  0.0000000  0.6508444  3
  10760  10759  10762  10764     1  0.0000000  0.6508444  3
  10761  10759  10762  10765     1  0.0000000  0.6508444  3
  10761  10759  10762  10763     1  0.0000000  0.6508444  3
  10761  10759  10762  10764     1  0.0000000  0.6508444  3
  10763  10762  10765  10768     1  0.0000000  0.6508444  3
  10763  10762  10765  10766     1  0.0000000  0.6508444  3
  10763  10762  10765  10767     1  0.0000000  0.6508444  3
  10763  10762  10759  10787     1  0.0000000  1.0460000  1
  10763  10762  10759  10787     1  0.0000000  0.0000000  3
  10764  10762  10765  10768     1  0.0000000  0.6508444  3
  10764  10762  10765  10766     1  0.0000000  0.6508444  3
  10764  10762  10765  10767     1  0.0000000  0.6508444  3
  10764  10762  10759  10787     1  0.0000000  1.0460000  1
  10764  10762  10759  10787     1  0.0000000  0.0000000  3
  10765  10768  10769  10770     1  0.0000000  1.2552000  3
  10765  10768  10769  10771     1  0.0000000  1.2552000  3
  10765  10768  10778  10779     1  0.0000000  1.2552000  3
  10765  10768  10778  10780     1  0.0000000  1.2552000  3
  10766  10765  10768  10769     1  0.0000000  1.2552000  3
  10766  10765  10768  10778     1  0.0000000  1.2552000  3
  10767  10765  10768  10769     1  0.0000000  1.2552000  3
  10767  10765  10768  10778     1  0.0000000  1.2552000  3
  10768  10769  10772  10773     1  0.0000000  0.6508444  3
  10768  10769  10772  10774     1  0.0000000  0.6508444  3
  10768  10778  10781  10782     1  0.0000000  0.6508444  3
  10768  10778  10781  10783     1  0.0000000  0.6508444  3
  10769  10768  10778  10779     1  0.0000000  1.2552000  3
  10769  10768  10778  10780     1  0.0000000  1.2552000  3
  10770  10769  10772  10775     1  0.0000000  0.6508444  3
  10770  10769  10772  10773     1  0.0000000  0.6508444  3
  10770  10769  10772  10774     1  0.0000000  0.6508444  3
  10770  10769  10768  10778     1  0.0000000  1.2552000  3
  10771  10769  10772  10775     1  0.0000000  0.6508444  3
  10771  10769  10772  10773     1  0.0000000  0.6508444  3
  10771  10769  10772  10774     1  0.0000000  0.6508444  3
  10771  10769  10768  10778     1  0.0000000  1.2552000  3
  10773  10772  10775  10776     1  0.0000000  3.3472000  1
  10773  10772  10775  10776     1  0.0000000  0.0000000  2
  10773  10772  10775  10776     1  180.0000771  0.3347200  3
  10773  10772  10775  10777     1  0.0000000  3.3472000  1
  10773  10772  10775  10777     1  0.0000000  0.0000000  2
  10773  10772  10775  10777     1  180.0000771  0.3347200  3
  10774  10772  10775  10776     1  0.0000000  3.3472000  1
  10774  10772  10775  10776     1  0.0000000  0.0000000  2
  10774  10772  10775  10776     1  180.0000771  0.3347200  3
  10774  10772  10775  10777     1  0.0000000  3.3472000  1
  10774  10772  10775  10777     1  0.0000000  0.0000000  2
  10774  10772  10775  10777     1  180.0000771  0.3347200  3
  10779  10778  10781  10784     1  0.0000000  0.6508444  3
  10779  10778  10781  10782     1  0.0000000  0.6508444  3
  10779  10778  10781  10783     1  0.0000000  0.6508444  3
  10780  10778  10781  10784     1  0.0000000  0.6508444  3
  10780  10778  10781  10782     1  0.0000000  0.6508444  3
  10780  10778  10781  10783     1  0.0000000  0.6508444  3
  10782  10781  10784  10785     1  0.0000000  3.3472000  1
  10782  10781  10784  10785     1  0.0000000  0.0000000  2
  10782  10781  10784  10785     1  180.0000771  0.3347200  3
  10782  10781  10784  10786     1  0.0000000  3.3472000  1
  10782  10781  10784  10786     1  0.0000000  0.0000000  2
  10782  10781  10784  10786     1  180.0000771  0.3347200  3
  10783  10781  10784  10785     1  0.0000000  3.3472000  1
  10783  10781  10784  10785     1  0.0000000  0.0000000  2
  10783  10781  10784  10785     1  180.0000771  0.3347200  3
  10783  10781  10784  10786     1  0.0000000  3.3472000  1
  10783  10781  10784  10786     1  0.0000000  0.0000000  2
  10783  10781  10784  10786     1  180.0000771  0.3347200  3
  10788  10791  10794  10795     1  0.0000000  0.6508444  3
  10788  10791  10794  10796     1  0.0000000  0.6508444  3
  10789  10788  10791  10794     1  0.0000000  0.6508444  3
  10789  10788  10791  10792     1  0.0000000  0.6508444  3
  10789  10788  10791  10793     1  0.0000000  0.6508444  3
  10790  10788  10791  10794     1  0.0000000  0.6508444  3
  10790  10788  10791  10792     1  0.0000000  0.6508444  3
  10790  10788  10791  10793     1  0.0000000  0.6508444  3
  10792  10791  10788  10816     1  0.0000000  1.0460000  1
  10792  10791  10788  10816     1  0.0000000  0.0000000  3
  10792  10791  10794  10797     1  0.0000000  0.6508444  3
  10792  10791  10794  10795     1  0.0000000  0.6508444  3
  10792  10791  10794  10796     1  0.0000000  0.6508444  3
  10793  10791  10788  10816     1  0.0000000  1.0460000  1
  10793  10791  10788  10816     1  0.0000000  0.0000000  3
  10793  10791  10794  10797     1  0.0000000  0.6508444  3
  10793  10791  10794  10795     1  0.0000000  0.6508444  3
  10793  10791  10794  10796     1  0.0000000  0.6508444  3
  10794  10797  10798  10799     1  0.0000000  1.2552000  3
  10794  10797  10798  10800     1  0.0000000  1.2552000  3
  10794  10797  10807  10808     1  0.0000000  1.2552000  3
  10794  10797  10807  10809     1  0.0000000  1.2552000  3
  10795  10794  10797  10798     1  0.0000000  1.2552000  3
  10795  10794  10797  10807     1  0.0000000  1.2552000  3
  10796  10794  10797  10798     1  0.0000000  1.2552000  3
  10796  10794  10797  10807     1  0.0000000  1.2552000  3
  10797  10798  10801  10802     1  0.0000000  0.6508444  3
  10797  10798  10801  10803     1  0.0000000  0.6508444  3
  10797  10807  10810  10811     1  0.0000000  0.6508444  3
  10797  10807  10810  10812     1  0.0000000  0.6508444  3
  10798  10797  10807  10808     1  0.0000000  1.2552000  3
  10798  10797  10807  10809     1  0.0000000  1.2552000  3
  10799  10798  10797  10807     1  0.0000000  1.2552000  3
  10799  10798  10801  10804     1  0.0000000  0.6508444  3
  10799  10798  10801  10802     1  0.0000000  0.6508444  3
  10799  10798  10801  10803     1  0.0000000  0.6508444  3
  10800  10798  10797  10807     1  0.0000000  1.2552000  3
  10800  10798  10801  10804     1  0.0000000  0.6508444  3
  10800  10798  10801  10802     1  0.0000000  0.6508444  3
  10800  10798  10801  10803     1  0.0000000  0.6508444  3
  10802  10801  10804  10805     1  0.0000000  3.3472000  1
  10802  10801  10804  10805     1  0.0000000  0.0000000  2
  10802  10801  10804  10805     1  180.0000771  0.3347200  3
  10802  10801  10804  10806     1  0.0000000  3.3472000  1
  10802  10801  10804  10806     1  0.0000000  0.0000000  2
  10802  10801  10804  10806     1  180.0000771  0.3347200  3
  10803  10801  10804  10805     1  0.0000000  3.3472000  1
  10803  10801  10804  10805     1  0.0000000  0.0000000  2
  10803  10801  10804  10805     1  180.0000771  0.3347200  3
  10803  10801  10804  10806     1  0.0000000  3.3472000  1
  10803  10801  10804  10806     1  0.0000000  0.0000000  2
  10803  10801  10804  10806     1  180.0000771  0.3347200  3
  10808  10807  10810  10813     1  0.0000000  0.6508444  3
  10808  10807  10810  10811     1  0.0000000  0.6508444  3
  10808  10807  10810  10812     1  0.0000000  0.6508444  3
  10809  10807  10810  10813     1  0.0000000  0.6508444  3
  10809  10807  10810  10811     1  0.0000000  0.6508444  3
  10809  10807  10810  10812     1  0.0000000  0.6508444  3
  10811  10810  10813  10814     1  0.0000000  3.3472000  1
  10811  10810  10813  10814     1  0.0000000  0.0000000  2
  10811  10810  10813  10814     1  180.0000771  0.3347200  3
  10811  10810  10813  10815     1  0.0000000  3.3472000  1
  10811  10810  10813  10815     1  0.0000000  0.0000000  2
  10811  10810  10813  10815     1  180.0000771  0.3347200  3
  10812  10810  10813  10814     1  0.0000000  3.3472000  1
  10812  10810  10813  10814     1  0.0000000  0.0000000  2
  10812  10810  10813  10814     1  180.0000771  0.3347200  3
  10812  10810  10813  10815     1  0.0000000  3.3472000  1
  10812  10810  10813  10815     1  0.0000000  0.0000000  2
  10812  10810  10813  10815     1  180.0000771  0.3347200  3
  10817  10820  10823  10824     1  0.0000000  0.6508444  3
  10817  10820  10823  10825     1  0.0000000  0.6508444  3
  10818  10817  10820  10823     1  0.0000000  0.6508444  3
  10818  10817  10820  10821     1  0.0000000  0.6508444  3
  10818  10817  10820  10822     1  0.0000000  0.6508444  3
  10819  10817  10820  10823     1  0.0000000  0.6508444  3
  10819  10817  10820  10821     1  0.0000000  0.6508444  3
  10819  10817  10820  10822     1  0.0000000  0.6508444  3
  10821  10820  10823  10826     1  0.0000000  0.6508444  3
  10821  10820  10823  10824     1  0.0000000  0.6508444  3
  10821  10820  10823  10825     1  0.0000000  0.6508444  3
  10821  10820  10817  10845     1  0.0000000  1.0460000  1
  10821  10820  10817  10845     1  0.0000000  0.0000000  3
  10822  10820  10823  10826     1  0.0000000  0.6508444  3
  10822  10820  10823  10824     1  0.0000000  0.6508444  3
  10822  10820  10823  10825     1  0.0000000  0.6508444  3
  10822  10820  10817  10845     1  0.0000000  1.0460000  1
  10822  10820  10817  10845     1  0.0000000  0.0000000  3
  10823  10826  10827  10828     1  0.0000000  1.2552000  3
  10823  10826  10827  10829     1  0.0000000  1.2552000  3
  10823  10826  10836  10837     1  0.0000000  1.2552000  3
  10823  10826  10836  10838     1  0.0000000  1.2552000  3
  10824  10823  10826  10827     1  0.0000000  1.2552000  3
  10824  10823  10826  10836     1  0.0000000  1.2552000  3
  10825  10823  10826  10827     1  0.0000000  1.2552000  3
  10825  10823  10826  10836     1  0.0000000  1.2552000  3
  10826  10827  10830  10831     1  0.0000000  0.6508444  3
  10826  10827  10830  10832     1  0.0000000  0.6508444  3
  10826  10836  10839  10840     1  0.0000000  0.6508444  3
  10826  10836  10839  10841     1  0.0000000  0.6508444  3
  10827  10826  10836  10837     1  0.0000000  1.2552000  3
  10827  10826  10836  10838     1  0.0000000  1.2552000  3
  10828  10827  10830  10833     1  0.0000000  0.6508444  3
  10828  10827  10830  10831     1  0.0000000  0.6508444  3
  10828  10827  10830  10832     1  0.0000000  0.6508444  3
  10828  10827  10826  10836     1  0.0000000  1.2552000  3
  10829  10827  10830  10833     1  0.0000000  0.6508444  3
  10829  10827  10830  10831     1  0.0000000  0.6508444  3
  10829  10827  10830  10832     1  0.0000000  0.6508444  3
  10829  10827  10826  10836     1  0.0000000  1.2552000  3
  10831  10830  10833  10834     1  0.0000000  3.3472000  1
  10831  10830  10833  10834     1  0.0000000  0.0000000  2
  10831  10830  10833  10834     1  180.0000771  0.3347200  3
  10831  10830  10833  10835     1  0.0000000  3.3472000  1
  10831  10830  10833  10835     1  0.0000000  0.0000000  2
  10831  10830  10833  10835     1  180.0000771  0.3347200  3
  10832  10830  10833  10834     1  0.0000000  3.3472000  1
  10832  10830  10833  10834     1  0.0000000  0.0000000  2
  10832  10830  10833  10834     1  180.0000771  0.3347200  3
  10832  10830  10833  10835     1  0.0000000  3.3472000  1
  10832  10830  10833  10835     1  0.0000000  0.0000000  2
  10832  10830  10833  10835     1  180.0000771  0.3347200  3
  10837  10836  10839  10842     1  0.0000000  0.6508444  3
  10837  10836  10839  10840     1  0.0000000  0.6508444  3
  10837  10836  10839  10841     1  0.0000000  0.6508444  3
  10838  10836  10839  10842     1  0.0000000  0.6508444  3
  10838  10836  10839  10840     1  0.0000000  0.6508444  3
  10838  10836  10839  10841     1  0.0000000  0.6508444  3
  10840  10839  10842  10843     1  0.0000000  3.3472000  1
  10840  10839  10842  10843     1  0.0000000  0.0000000  2
  10840  10839  10842  10843     1  180.0000771  0.3347200  3
  10840  10839  10842  10844     1  0.0000000  3.3472000  1
  10840  10839  10842  10844     1  0.0000000  0.0000000  2
  10840  10839  10842  10844     1  180.0000771  0.3347200  3
  10841  10839  10842  10843     1  0.0000000  3.3472000  1
  10841  10839  10842  10843     1  0.0000000  0.0000000  2
  10841  10839  10842  10843     1  180.0000771  0.3347200  3
  10841  10839  10842  10844     1  0.0000000  3.3472000  1
  10841  10839  10842  10844     1  0.0000000  0.0000000  2
  10841  10839  10842  10844     1  180.0000771  0.3347200  3
  10846  10849  10852  10853     1  0.0000000  0.6508444  3
  10846  10849  10852  10854     1  0.0000000  0.6508444  3
  10847  10846  10849  10852     1  0.0000000  0.6508444  3
  10847  10846  10849  10850     1  0.0000000  0.6508444  3
  10847  10846  10849  10851     1  0.0000000  0.6508444  3
  10848  10846  10849  10852     1  0.0000000  0.6508444  3
  10848  10846  10849  10850     1  0.0000000  0.6508444  3
  10848  10846  10849  10851     1  0.0000000  0.6508444  3
  10850  10849  10846  10874     1  0.0000000  1.0460000  1
  10850  10849  10846  10874     1  0.0000000  0.0000000  3
  10850  10849  10852  10855     1  0.0000000  0.6508444  3
  10850  10849  10852  10853     1  0.0000000  0.6508444  3
  10850  10849  10852  10854     1  0.0000000  0.6508444  3
  10851  10849  10846  10874     1  0.0000000  1.0460000  1
  10851  10849  10846  10874     1  0.0000000  0.0000000  3
  10851  10849  10852  10855     1  0.0000000  0.6508444  3
  10851  10849  10852  10853     1  0.0000000  0.6508444  3
  10851  10849  10852  10854     1  0.0000000  0.6508444  3
  10852  10855  10856  10857     1  0.0000000  1.2552000  3
  10852  10855  10856  10858     1  0.0000000  1.2552000  3
  10852  10855  10865  10866     1  0.0000000  1.2552000  3
  10852  10855  10865  10867     1  0.0000000  1.2552000  3
  10853  10852  10855  10856     1  0.0000000  1.2552000  3
  10853  10852  10855  10865     1  0.0000000  1.2552000  3
  10854  10852  10855  10856     1  0.0000000  1.2552000  3
  10854  10852  10855  10865     1  0.0000000  1.2552000  3
  10855  10856  10859  10860     1  0.0000000  0.6508444  3
  10855  10856  10859  10861     1  0.0000000  0.6508444  3
  10855  10865  10868  10869     1  0.0000000  0.6508444  3
  10855  10865  10868  10870     1  0.0000000  0.6508444  3
  10856  10855  10865  10866     1  0.0000000  1.2552000  3
  10856  10855  10865  10867     1  0.0000000  1.2552000  3
  10857  10856  10855  10865     1  0.0000000  1.2552000  3
  10857  10856  10859  10862     1  0.0000000  0.6508444  3
  10857  10856  10859  10860     1  0.0000000  0.6508444  3
  10857  10856  10859  10861     1  0.0000000  0.6508444  3
  10858  10856  10855  10865     1  0.0000000  1.2552000  3
  10858  10856  10859  10862     1  0.0000000  0.6508444  3
  10858  10856  10859  10860     1  0.0000000  0.6508444  3
  10858  10856  10859  10861     1  0.0000000  0.6508444  3
  10860  10859  10862  10863     1  0.0000000  3.3472000  1
  10860  10859  10862  10863     1  0.0000000  0.0000000  2
  10860  10859  10862  10863     1  180.0000771  0.3347200  3
  10860  10859  10862  10864     1  0.0000000  3.3472000  1
  10860  10859  10862  10864     1  0.0000000  0.0000000  2
  10860  10859  10862  10864     1  180.0000771  0.3347200  3
  10861  10859  10862  10863     1  0.0000000  3.3472000  1
  10861  10859  10862  10863     1  0.0000000  0.0000000  2
  10861  10859  10862  10863     1  180.0000771  0.3347200  3
  10861  10859  10862  10864     1  0.0000000  3.3472000  1
  10861  10859  10862  10864     1  0.0000000  0.0000000  2
  10861  10859  10862  10864     1  180.0000771  0.3347200  3
  10866  10865  10868  10871     1  0.0000000  0.6508444  3
  10866  10865  10868  10869     1  0.0000000  0.6508444  3
  10866  10865  10868  10870     1  0.0000000  0.6508444  3
  10867  10865  10868  10871     1  0.0000000  0.6508444  3
  10867  10865  10868  10869     1  0.0000000  0.6508444  3
  10867  10865  10868  10870     1  0.0000000  0.6508444  3
  10869  10868  10871  10872     1  0.0000000  3.3472000  1
  10869  10868  10871  10872     1  0.0000000  0.0000000  2
  10869  10868  10871  10872     1  180.0000771  0.3347200  3
  10869  10868  10871  10873     1  0.0000000  3.3472000  1
  10869  10868  10871  10873     1  0.0000000  0.0000000  2
  10869  10868  10871  10873     1  180.0000771  0.3347200  3
  10870  10868  10871  10872     1  0.0000000  3.3472000  1
  10870  10868  10871  10872     1  0.0000000  0.0000000  2
  10870  10868  10871  10872     1  180.0000771  0.3347200  3
  10870  10868  10871  10873     1  0.0000000  3.3472000  1
  10870  10868  10871  10873     1  0.0000000  0.0000000  2
  10870  10868  10871  10873     1  180.0000771  0.3347200  3
  10875  10878  10881  10882     1  0.0000000  0.6508444  3
  10875  10878  10881  10883     1  0.0000000  0.6508444  3
  10876  10875  10878  10881     1  0.0000000  0.6508444  3
  10876  10875  10878  10879     1  0.0000000  0.6508444  3
  10876  10875  10878  10880     1  0.0000000  0.6508444  3
  10877  10875  10878  10881     1  0.0000000  0.6508444  3
  10877  10875  10878  10879     1  0.0000000  0.6508444  3
  10877  10875  10878  10880     1  0.0000000  0.6508444  3
  10879  10878  10881  10884     1  0.0000000  0.6508444  3
  10879  10878  10881  10882     1  0.0000000  0.6508444  3
  10879  10878  10881  10883     1  0.0000000  0.6508444  3
  10879  10878  10875  10903     1  0.0000000  1.0460000  1
  10879  10878  10875  10903     1  0.0000000  0.0000000  3
  10880  10878  10881  10884     1  0.0000000  0.6508444  3
  10880  10878  10881  10882     1  0.0000000  0.6508444  3
  10880  10878  10881  10883     1  0.0000000  0.6508444  3
  10880  10878  10875  10903     1  0.0000000  1.0460000  1
  10880  10878  10875  10903     1  0.0000000  0.0000000  3
  10881  10884  10885  10886     1  0.0000000  1.2552000  3
  10881  10884  10885  10887     1  0.0000000  1.2552000  3
  10881  10884  10894  10895     1  0.0000000  1.2552000  3
  10881  10884  10894  10896     1  0.0000000  1.2552000  3
  10882  10881  10884  10885     1  0.0000000  1.2552000  3
  10882  10881  10884  10894     1  0.0000000  1.2552000  3
  10883  10881  10884  10885     1  0.0000000  1.2552000  3
  10883  10881  10884  10894     1  0.0000000  1.2552000  3
  10884  10885  10888  10889     1  0.0000000  0.6508444  3
  10884  10885  10888  10890     1  0.0000000  0.6508444  3
  10884  10894  10897  10898     1  0.0000000  0.6508444  3
  10884  10894  10897  10899     1  0.0000000  0.6508444  3
  10885  10884  10894  10895     1  0.0000000  1.2552000  3
  10885  10884  10894  10896     1  0.0000000  1.2552000  3
  10886  10885  10888  10891     1  0.0000000  0.6508444  3
  10886  10885  10888  10889     1  0.0000000  0.6508444  3
  10886  10885  10888  10890     1  0.0000000  0.6508444  3
  10886  10885  10884  10894     1  0.0000000  1.2552000  3
  10887  10885  10888  10891     1  0.0000000  0.6508444  3
  10887  10885  10888  10889     1  0.0000000  0.6508444  3
  10887  10885  10888  10890     1  0.0000000  0.6508444  3
  10887  10885  10884  10894     1  0.0000000  1.2552000  3
  10889  10888  10891  10892     1  0.0000000  3.3472000  1
  10889  10888  10891  10892     1  0.0000000  0.0000000  2
  10889  10888  10891  10892     1  180.0000771  0.3347200  3
  10889  10888  10891  10893     1  0.0000000  3.3472000  1
  10889  10888  10891  10893     1  0.0000000  0.0000000  2
  10889  10888  10891  10893     1  180.0000771  0.3347200  3
  10890  10888  10891  10892     1  0.0000000  3.3472000  1
  10890  10888  10891  10892     1  0.0000000  0.0000000  2
  10890  10888  10891  10892     1  180.0000771  0.3347200  3
  10890  10888  10891  10893     1  0.0000000  3.3472000  1
  10890  10888  10891  10893     1  0.0000000  0.0000000  2
  10890  10888  10891  10893     1  180.0000771  0.3347200  3
  10895  10894  10897  10900     1  0.0000000  0.6508444  3
  10895  10894  10897  10898     1  0.0000000  0.6508444  3
  10895  10894  10897  10899     1  0.0000000  0.6508444  3
  10896  10894  10897  10900     1  0.0000000  0.6508444  3
  10896  10894  10897  10898     1  0.0000000  0.6508444  3
  10896  10894  10897  10899     1  0.0000000  0.6508444  3
  10898  10897  10900  10901     1  0.0000000  3.3472000  1
  10898  10897  10900  10901     1  0.0000000  0.0000000  2
  10898  10897  10900  10901     1  180.0000771  0.3347200  3
  10898  10897  10900  10902     1  0.0000000  3.3472000  1
  10898  10897  10900  10902     1  0.0000000  0.0000000  2
  10898  10897  10900  10902     1  180.0000771  0.3347200  3
  10899  10897  10900  10901     1  0.0000000  3.3472000  1
  10899  10897  10900  10901     1  0.0000000  0.0000000  2
  10899  10897  10900  10901     1  180.0000771  0.3347200  3
  10899  10897  10900  10902     1  0.0000000  3.3472000  1
  10899  10897  10900  10902     1  0.0000000  0.0000000  2
  10899  10897  10900  10902     1  180.0000771  0.3347200  3
  10904  10907  10910  10911     1  0.0000000  0.6508444  3
  10904  10907  10910  10912     1  0.0000000  0.6508444  3
  10905  10904  10907  10910     1  0.0000000  0.6508444  3
  10905  10904  10907  10908     1  0.0000000  0.6508444  3
  10905  10904  10907  10909     1  0.0000000  0.6508444  3
  10906  10904  10907  10910     1  0.0000000  0.6508444  3
  10906  10904  10907  10908     1  0.0000000  0.6508444  3
  10906  10904  10907  10909     1  0.0000000  0.6508444  3
  10908  10907  10904  10932     1  0.0000000  1.0460000  1
  10908  10907  10904  10932     1  0.0000000  0.0000000  3
  10908  10907  10910  10913     1  0.0000000  0.6508444  3
  10908  10907  10910  10911     1  0.0000000  0.6508444  3
  10908  10907  10910  10912     1  0.0000000  0.6508444  3
  10909  10907  10904  10932     1  0.0000000  1.0460000  1
  10909  10907  10904  10932     1  0.0000000  0.0000000  3
  10909  10907  10910  10913     1  0.0000000  0.6508444  3
  10909  10907  10910  10911     1  0.0000000  0.6508444  3
  10909  10907  10910  10912     1  0.0000000  0.6508444  3
  10910  10913  10914  10915     1  0.0000000  1.2552000  3
  10910  10913  10914  10916     1  0.0000000  1.2552000  3
  10910  10913  10923  10924     1  0.0000000  1.2552000  3
  10910  10913  10923  10925     1  0.0000000  1.2552000  3
  10911  10910  10913  10914     1  0.0000000  1.2552000  3
  10911  10910  10913  10923     1  0.0000000  1.2552000  3
  10912  10910  10913  10914     1  0.0000000  1.2552000  3
  10912  10910  10913  10923     1  0.0000000  1.2552000  3
  10913  10914  10917  10918     1  0.0000000  0.6508444  3
  10913  10914  10917  10919     1  0.0000000  0.6508444  3
  10913  10923  10926  10927     1  0.0000000  0.6508444  3
  10913  10923  10926  10928     1  0.0000000  0.6508444  3
  10914  10913  10923  10924     1  0.0000000  1.2552000  3
  10914  10913  10923  10925     1  0.0000000  1.2552000  3
  10915  10914  10913  10923     1  0.0000000  1.2552000  3
  10915  10914  10917  10920     1  0.0000000  0.6508444  3
  10915  10914  10917  10918     1  0.0000000  0.6508444  3
  10915  10914  10917  10919     1  0.0000000  0.6508444  3
  10916  10914  10913  10923     1  0.0000000  1.2552000  3
  10916  10914  10917  10920     1  0.0000000  0.6508444  3
  10916  10914  10917  10918     1  0.0000000  0.6508444  3
  10916  10914  10917  10919     1  0.0000000  0.6508444  3
  10918  10917  10920  10921     1  0.0000000  3.3472000  1
  10918  10917  10920  10921     1  0.0000000  0.0000000  2
  10918  10917  10920  10921     1  180.0000771  0.3347200  3
  10918  10917  10920  10922     1  0.0000000  3.3472000  1
  10918  10917  10920  10922     1  0.0000000  0.0000000  2
  10918  10917  10920  10922     1  180.0000771  0.3347200  3
  10919  10917  10920  10921     1  0.0000000  3.3472000  1
  10919  10917  10920  10921     1  0.0000000  0.0000000  2
  10919  10917  10920  10921     1  180.0000771  0.3347200  3
  10919  10917  10920  10922     1  0.0000000  3.3472000  1
  10919  10917  10920  10922     1  0.0000000  0.0000000  2
  10919  10917  10920  10922     1  180.0000771  0.3347200  3
  10924  10923  10926  10929     1  0.0000000  0.6508444  3
  10924  10923  10926  10927     1  0.0000000  0.6508444  3
  10924  10923  10926  10928     1  0.0000000  0.6508444  3
  10925  10923  10926  10929     1  0.0000000  0.6508444  3
  10925  10923  10926  10927     1  0.0000000  0.6508444  3
  10925  10923  10926  10928     1  0.0000000  0.6508444  3
  10927  10926  10929  10930     1  0.0000000  3.3472000  1
  10927  10926  10929  10930     1  0.0000000  0.0000000  2
  10927  10926  10929  10930     1  180.0000771  0.3347200  3
  10927  10926  10929  10931     1  0.0000000  3.3472000  1
  10927  10926  10929  10931     1  0.0000000  0.0000000  2
  10927  10926  10929  10931     1  180.0000771  0.3347200  3
  10928  10926  10929  10930     1  0.0000000  3.3472000  1
  10928  10926  10929  10930     1  0.0000000  0.0000000  2
  10928  10926  10929  10930     1  180.0000771  0.3347200  3
  10928  10926  10929  10931     1  0.0000000  3.3472000  1
  10928  10926  10929  10931     1  0.0000000  0.0000000  2
  10928  10926  10929  10931     1  180.0000771  0.3347200  3
  10933  10936  10939  10940     1  0.0000000  0.6508444  3
  10933  10936  10939  10941     1  0.0000000  0.6508444  3
  10934  10933  10936  10939     1  0.0000000  0.6508444  3
  10934  10933  10936  10937     1  0.0000000  0.6508444  3
  10934  10933  10936  10938     1  0.0000000  0.6508444  3
  10935  10933  10936  10939     1  0.0000000  0.6508444  3
  10935  10933  10936  10937     1  0.0000000  0.6508444  3
  10935  10933  10936  10938     1  0.0000000  0.6508444  3
  10937  10936  10939  10942     1  0.0000000  0.6508444  3
  10937  10936  10939  10940     1  0.0000000  0.6508444  3
  10937  10936  10939  10941     1  0.0000000  0.6508444  3
  10937  10936  10933  10961     1  0.0000000  1.0460000  1
  10937  10936  10933  10961     1  0.0000000  0.0000000  3
  10938  10936  10939  10942     1  0.0000000  0.6508444  3
  10938  10936  10939  10940     1  0.0000000  0.6508444  3
  10938  10936  10939  10941     1  0.0000000  0.6508444  3
  10938  10936  10933  10961     1  0.0000000  1.0460000  1
  10938  10936  10933  10961     1  0.0000000  0.0000000  3
  10939  10942  10943  10944     1  0.0000000  1.2552000  3
  10939  10942  10943  10945     1  0.0000000  1.2552000  3
  10939  10942  10952  10953     1  0.0000000  1.2552000  3
  10939  10942  10952  10954     1  0.0000000  1.2552000  3
  10940  10939  10942  10943     1  0.0000000  1.2552000  3
  10940  10939  10942  10952     1  0.0000000  1.2552000  3
  10941  10939  10942  10943     1  0.0000000  1.2552000  3
  10941  10939  10942  10952     1  0.0000000  1.2552000  3
  10942  10943  10946  10947     1  0.0000000  0.6508444  3
  10942  10943  10946  10948     1  0.0000000  0.6508444  3
  10942  10952  10955  10956     1  0.0000000  0.6508444  3
  10942  10952  10955  10957     1  0.0000000  0.6508444  3
  10943  10942  10952  10953     1  0.0000000  1.2552000  3
  10943  10942  10952  10954     1  0.0000000  1.2552000  3
  10944  10943  10946  10949     1  0.0000000  0.6508444  3
  10944  10943  10946  10947     1  0.0000000  0.6508444  3
  10944  10943  10946  10948     1  0.0000000  0.6508444  3
  10944  10943  10942  10952     1  0.0000000  1.2552000  3
  10945  10943  10946  10949     1  0.0000000  0.6508444  3
  10945  10943  10946  10947     1  0.0000000  0.6508444  3
  10945  10943  10946  10948     1  0.0000000  0.6508444  3
  10945  10943  10942  10952     1  0.0000000  1.2552000  3
  10947  10946  10949  10950     1  0.0000000  3.3472000  1
  10947  10946  10949  10950     1  0.0000000  0.0000000  2
  10947  10946  10949  10950     1  180.0000771  0.3347200  3
  10947  10946  10949  10951     1  0.0000000  3.3472000  1
  10947  10946  10949  10951     1  0.0000000  0.0000000  2
  10947  10946  10949  10951     1  180.0000771  0.3347200  3
  10948  10946  10949  10950     1  0.0000000  3.3472000  1
  10948  10946  10949  10950     1  0.0000000  0.0000000  2
  10948  10946  10949  10950     1  180.0000771  0.3347200  3
  10948  10946  10949  10951     1  0.0000000  3.3472000  1
  10948  10946  10949  10951     1  0.0000000  0.0000000  2
  10948  10946  10949  10951     1  180.0000771  0.3347200  3
  10953  10952  10955  10958     1  0.0000000  0.6508444  3
  10953  10952  10955  10956     1  0.0000000  0.6508444  3
  10953  10952  10955  10957     1  0.0000000  0.6508444  3
  10954  10952  10955  10958     1  0.0000000  0.6508444  3
  10954  10952  10955  10956     1  0.0000000  0.6508444  3
  10954  10952  10955  10957     1  0.0000000  0.6508444  3
  10956  10955  10958  10959     1  0.0000000  3.3472000  1
  10956  10955  10958  10959     1  0.0000000  0.0000000  2
  10956  10955  10958  10959     1  180.0000771  0.3347200  3
  10956  10955  10958  10960     1  0.0000000  3.3472000  1
  10956  10955  10958  10960     1  0.0000000  0.0000000  2
  10956  10955  10958  10960     1  180.0000771  0.3347200  3
  10957  10955  10958  10959     1  0.0000000  3.3472000  1
  10957  10955  10958  10959     1  0.0000000  0.0000000  2
  10957  10955  10958  10959     1  180.0000771  0.3347200  3
  10957  10955  10958  10960     1  0.0000000  3.3472000  1
  10957  10955  10958  10960     1  0.0000000  0.0000000  2
  10957  10955  10958  10960     1  180.0000771  0.3347200  3
  10962  10965  10968  10969     1  0.0000000  0.6508444  3
  10962  10965  10968  10970     1  0.0000000  0.6508444  3
  10963  10962  10965  10968     1  0.0000000  0.6508444  3
  10963  10962  10965  10966     1  0.0000000  0.6508444  3
  10963  10962  10965  10967     1  0.0000000  0.6508444  3
  10964  10962  10965  10968     1  0.0000000  0.6508444  3
  10964  10962  10965  10966     1  0.0000000  0.6508444  3
  10964  10962  10965  10967     1  0.0000000  0.6508444  3
  10966  10965  10962  10990     1  0.0000000  1.0460000  1
  10966  10965  10962  10990     1  0.0000000  0.0000000  3
  10966  10965  10968  10971     1  0.0000000  0.6508444  3
  10966  10965  10968  10969     1  0.0000000  0.6508444  3
  10966  10965  10968  10970     1  0.0000000  0.6508444  3
  10967  10965  10962  10990     1  0.0000000  1.0460000  1
  10967  10965  10962  10990     1  0.0000000  0.0000000  3
  10967  10965  10968  10971     1  0.0000000  0.6508444  3
  10967  10965  10968  10969     1  0.0000000  0.6508444  3
  10967  10965  10968  10970     1  0.0000000  0.6508444  3
  10968  10971  10972  10973     1  0.0000000  1.2552000  3
  10968  10971  10972  10974     1  0.0000000  1.2552000  3
  10968  10971  10981  10982     1  0.0000000  1.2552000  3
  10968  10971  10981  10983     1  0.0000000  1.2552000  3
  10969  10968  10971  10972     1  0.0000000  1.2552000  3
  10969  10968  10971  10981     1  0.0000000  1.2552000  3
  10970  10968  10971  10972     1  0.0000000  1.2552000  3
  10970  10968  10971  10981     1  0.0000000  1.2552000  3
  10971  10972  10975  10976     1  0.0000000  0.6508444  3
  10971  10972  10975  10977     1  0.0000000  0.6508444  3
  10971  10981  10984  10985     1  0.0000000  0.6508444  3
  10971  10981  10984  10986     1  0.0000000  0.6508444  3
  10972  10971  10981  10982     1  0.0000000  1.2552000  3
  10972  10971  10981  10983     1  0.0000000  1.2552000  3
  10973  10972  10971  10981     1  0.0000000  1.2552000  3
  10973  10972  10975  10978     1  0.0000000  0.6508444  3
  10973  10972  10975  10976     1  0.0000000  0.6508444  3
  10973  10972  10975  10977     1  0.0000000  0.6508444  3
  10974  10972  10971  10981     1  0.0000000  1.2552000  3
  10974  10972  10975  10978     1  0.0000000  0.6508444  3
  10974  10972  10975  10976     1  0.0000000  0.6508444  3
  10974  10972  10975  10977     1  0.0000000  0.6508444  3
  10976  10975  10978  10979     1  0.0000000  3.3472000  1
  10976  10975  10978  10979     1  0.0000000  0.0000000  2
  10976  10975  10978  10979     1  180.0000771  0.3347200  3
  10976  10975  10978  10980     1  0.0000000  3.3472000  1
  10976  10975  10978  10980     1  0.0000000  0.0000000  2
  10976  10975  10978  10980     1  180.0000771  0.3347200  3
  10977  10975  10978  10979     1  0.0000000  3.3472000  1
  10977  10975  10978  10979     1  0.0000000  0.0000000  2
  10977  10975  10978  10979     1  180.0000771  0.3347200  3
  10977  10975  10978  10980     1  0.0000000  3.3472000  1
  10977  10975  10978  10980     1  0.0000000  0.0000000  2
  10977  10975  10978  10980     1  180.0000771  0.3347200  3
  10982  10981  10984  10987     1  0.0000000  0.6508444  3
  10982  10981  10984  10985     1  0.0000000  0.6508444  3
  10982  10981  10984  10986     1  0.0000000  0.6508444  3
  10983  10981  10984  10987     1  0.0000000  0.6508444  3
  10983  10981  10984  10985     1  0.0000000  0.6508444  3
  10983  10981  10984  10986     1  0.0000000  0.6508444  3
  10985  10984  10987  10988     1  0.0000000  3.3472000  1
  10985  10984  10987  10988     1  0.0000000  0.0000000  2
  10985  10984  10987  10988     1  180.0000771  0.3347200  3
  10985  10984  10987  10989     1  0.0000000  3.3472000  1
  10985  10984  10987  10989     1  0.0000000  0.0000000  2
  10985  10984  10987  10989     1  180.0000771  0.3347200  3
  10986  10984  10987  10988     1  0.0000000  3.3472000  1
  10986  10984  10987  10988     1  0.0000000  0.0000000  2
  10986  10984  10987  10988     1  180.0000771  0.3347200  3
  10986  10984  10987  10989     1  0.0000000  3.3472000  1
  10986  10984  10987  10989     1  0.0000000  0.0000000  2
  10986  10984  10987  10989     1  180.0000771  0.3347200  3
  10991  10994  10997  10998     1  0.0000000  0.6508444  3
  10991  10994  10997  10999     1  0.0000000  0.6508444  3
  10992  10991  10994  10997     1  0.0000000  0.6508444  3
  10992  10991  10994  10995     1  0.0000000  0.6508444  3
  10992  10991  10994  10996     1  0.0000000  0.6508444  3
  10993  10991  10994  10997     1  0.0000000  0.6508444  3
  10993  10991  10994  10995     1  0.0000000  0.6508444  3
  10993  10991  10994  10996     1  0.0000000  0.6508444  3
  10995  10994  10997  11000     1  0.0000000  0.6508444  3
  10995  10994  10997  10998     1  0.0000000  0.6508444  3
  10995  10994  10997  10999     1  0.0000000  0.6508444  3
  10995  10994  10991  11019     1  0.0000000  1.0460000  1
  10995  10994  10991  11019     1  0.0000000  0.0000000  3
  10996  10994  10997  11000     1  0.0000000  0.6508444  3
  10996  10994  10997  10998     1  0.0000000  0.6508444  3
  10996  10994  10997  10999     1  0.0000000  0.6508444  3
  10996  10994  10991  11019     1  0.0000000  1.0460000  1
  10996  10994  10991  11019     1  0.0000000  0.0000000  3
  10997  11000  11001  11002     1  0.0000000  1.2552000  3
  10997  11000  11001  11003     1  0.0000000  1.2552000  3
  10997  11000  11010  11011     1  0.0000000  1.2552000  3
  10997  11000  11010  11012     1  0.0000000  1.2552000  3
  10998  10997  11000  11001     1  0.0000000  1.2552000  3
  10998  10997  11000  11010     1  0.0000000  1.2552000  3
  10999  10997  11000  11001     1  0.0000000  1.2552000  3
  10999  10997  11000  11010     1  0.0000000  1.2552000  3
  11000  11001  11004  11005     1  0.0000000  0.6508444  3
  11000  11001  11004  11006     1  0.0000000  0.6508444  3
  11000  11010  11013  11014     1  0.0000000  0.6508444  3
  11000  11010  11013  11015     1  0.0000000  0.6508444  3
  11001  11000  11010  11011     1  0.0000000  1.2552000  3
  11001  11000  11010  11012     1  0.0000000  1.2552000  3
  11002  11001  11004  11007     1  0.0000000  0.6508444  3
  11002  11001  11004  11005     1  0.0000000  0.6508444  3
  11002  11001  11004  11006     1  0.0000000  0.6508444  3
  11002  11001  11000  11010     1  0.0000000  1.2552000  3
  11003  11001  11004  11007     1  0.0000000  0.6508444  3
  11003  11001  11004  11005     1  0.0000000  0.6508444  3
  11003  11001  11004  11006     1  0.0000000  0.6508444  3
  11003  11001  11000  11010     1  0.0000000  1.2552000  3
  11005  11004  11007  11008     1  0.0000000  3.3472000  1
  11005  11004  11007  11008     1  0.0000000  0.0000000  2
  11005  11004  11007  11008     1  180.0000771  0.3347200  3
  11005  11004  11007  11009     1  0.0000000  3.3472000  1
  11005  11004  11007  11009     1  0.0000000  0.0000000  2
  11005  11004  11007  11009     1  180.0000771  0.3347200  3
  11006  11004  11007  11008     1  0.0000000  3.3472000  1
  11006  11004  11007  11008     1  0.0000000  0.0000000  2
  11006  11004  11007  11008     1  180.0000771  0.3347200  3
  11006  11004  11007  11009     1  0.0000000  3.3472000  1
  11006  11004  11007  11009     1  0.0000000  0.0000000  2
  11006  11004  11007  11009     1  180.0000771  0.3347200  3
  11011  11010  11013  11016     1  0.0000000  0.6508444  3
  11011  11010  11013  11014     1  0.0000000  0.6508444  3
  11011  11010  11013  11015     1  0.0000000  0.6508444  3
  11012  11010  11013  11016     1  0.0000000  0.6508444  3
  11012  11010  11013  11014     1  0.0000000  0.6508444  3
  11012  11010  11013  11015     1  0.0000000  0.6508444  3
  11014  11013  11016  11017     1  0.0000000  3.3472000  1
  11014  11013  11016  11017     1  0.0000000  0.0000000  2
  11014  11013  11016  11017     1  180.0000771  0.3347200  3
  11014  11013  11016  11018     1  0.0000000  3.3472000  1
  11014  11013  11016  11018     1  0.0000000  0.0000000  2
  11014  11013  11016  11018     1  180.0000771  0.3347200  3
  11015  11013  11016  11017     1  0.0000000  3.3472000  1
  11015  11013  11016  11017     1  0.0000000  0.0000000  2
  11015  11013  11016  11017     1  180.0000771  0.3347200  3
  11015  11013  11016  11018     1  0.0000000  3.3472000  1
  11015  11013  11016  11018     1  0.0000000  0.0000000  2
  11015  11013  11016  11018     1  180.0000771  0.3347200  3
  11020  11023  11026  11027     1  0.0000000  0.6508444  3
  11020  11023  11026  11028     1  0.0000000  0.6508444  3
  11021  11020  11023  11026     1  0.0000000  0.6508444  3
  11021  11020  11023  11024     1  0.0000000  0.6508444  3
  11021  11020  11023  11025     1  0.0000000  0.6508444  3
  11022  11020  11023  11026     1  0.0000000  0.6508444  3
  11022  11020  11023  11024     1  0.0000000  0.6508444  3
  11022  11020  11023  11025     1  0.0000000  0.6508444  3
  11024  11023  11020  11048     1  0.0000000  1.0460000  1
  11024  11023  11020  11048     1  0.0000000  0.0000000  3
  11024  11023  11026  11029     1  0.0000000  0.6508444  3
  11024  11023  11026  11027     1  0.0000000  0.6508444  3
  11024  11023  11026  11028     1  0.0000000  0.6508444  3
  11025  11023  11020  11048     1  0.0000000  1.0460000  1
  11025  11023  11020  11048     1  0.0000000  0.0000000  3
  11025  11023  11026  11029     1  0.0000000  0.6508444  3
  11025  11023  11026  11027     1  0.0000000  0.6508444  3
  11025  11023  11026  11028     1  0.0000000  0.6508444  3
  11026  11029  11030  11031     1  0.0000000  1.2552000  3
  11026  11029  11030  11032     1  0.0000000  1.2552000  3
  11026  11029  11039  11040     1  0.0000000  1.2552000  3
  11026  11029  11039  11041     1  0.0000000  1.2552000  3
  11027  11026  11029  11030     1  0.0000000  1.2552000  3
  11027  11026  11029  11039     1  0.0000000  1.2552000  3
  11028  11026  11029  11030     1  0.0000000  1.2552000  3
  11028  11026  11029  11039     1  0.0000000  1.2552000  3
  11029  11030  11033  11034     1  0.0000000  0.6508444  3
  11029  11030  11033  11035     1  0.0000000  0.6508444  3
  11029  11039  11042  11043     1  0.0000000  0.6508444  3
  11029  11039  11042  11044     1  0.0000000  0.6508444  3
  11030  11029  11039  11040     1  0.0000000  1.2552000  3
  11030  11029  11039  11041     1  0.0000000  1.2552000  3
  11031  11030  11029  11039     1  0.0000000  1.2552000  3
  11031  11030  11033  11036     1  0.0000000  0.6508444  3
  11031  11030  11033  11034     1  0.0000000  0.6508444  3
  11031  11030  11033  11035     1  0.0000000  0.6508444  3
  11032  11030  11029  11039     1  0.0000000  1.2552000  3
  11032  11030  11033  11036     1  0.0000000  0.6508444  3
  11032  11030  11033  11034     1  0.0000000  0.6508444  3
  11032  11030  11033  11035     1  0.0000000  0.6508444  3
  11034  11033  11036  11037     1  0.0000000  3.3472000  1
  11034  11033  11036  11037     1  0.0000000  0.0000000  2
  11034  11033  11036  11037     1  180.0000771  0.3347200  3
  11034  11033  11036  11038     1  0.0000000  3.3472000  1
  11034  11033  11036  11038     1  0.0000000  0.0000000  2
  11034  11033  11036  11038     1  180.0000771  0.3347200  3
  11035  11033  11036  11037     1  0.0000000  3.3472000  1
  11035  11033  11036  11037     1  0.0000000  0.0000000  2
  11035  11033  11036  11037     1  180.0000771  0.3347200  3
  11035  11033  11036  11038     1  0.0000000  3.3472000  1
  11035  11033  11036  11038     1  0.0000000  0.0000000  2
  11035  11033  11036  11038     1  180.0000771  0.3347200  3
  11040  11039  11042  11045     1  0.0000000  0.6508444  3
  11040  11039  11042  11043     1  0.0000000  0.6508444  3
  11040  11039  11042  11044     1  0.0000000  0.6508444  3
  11041  11039  11042  11045     1  0.0000000  0.6508444  3
  11041  11039  11042  11043     1  0.0000000  0.6508444  3
  11041  11039  11042  11044     1  0.0000000  0.6508444  3
  11043  11042  11045  11046     1  0.0000000  3.3472000  1
  11043  11042  11045  11046     1  0.0000000  0.0000000  2
  11043  11042  11045  11046     1  180.0000771  0.3347200  3
  11043  11042  11045  11047     1  0.0000000  3.3472000  1
  11043  11042  11045  11047     1  0.0000000  0.0000000  2
  11043  11042  11045  11047     1  180.0000771  0.3347200  3
  11044  11042  11045  11046     1  0.0000000  3.3472000  1
  11044  11042  11045  11046     1  0.0000000  0.0000000  2
  11044  11042  11045  11046     1  180.0000771  0.3347200  3
  11044  11042  11045  11047     1  0.0000000  3.3472000  1
  11044  11042  11045  11047     1  0.0000000  0.0000000  2
  11044  11042  11045  11047     1  180.0000771  0.3347200  3
  11049  11052  11055  11056     1  0.0000000  0.6508444  3
  11049  11052  11055  11057     1  0.0000000  0.6508444  3
  11050  11049  11052  11055     1  0.0000000  0.6508444  3
  11050  11049  11052  11053     1  0.0000000  0.6508444  3
  11050  11049  11052  11054     1  0.0000000  0.6508444  3
  11051  11049  11052  11055     1  0.0000000  0.6508444  3
  11051  11049  11052  11053     1  0.0000000  0.6508444  3
  11051  11049  11052  11054     1  0.0000000  0.6508444  3
  11053  11052  11055  11058     1  0.0000000  0.6508444  3
  11053  11052  11055  11056     1  0.0000000  0.6508444  3
  11053  11052  11055  11057     1  0.0000000  0.6508444  3
  11053  11052  11049  11077     1  0.0000000  1.0460000  1
  11053  11052  11049  11077     1  0.0000000  0.0000000  3
  11054  11052  11055  11058     1  0.0000000  0.6508444  3
  11054  11052  11055  11056     1  0.0000000  0.6508444  3
  11054  11052  11055  11057     1  0.0000000  0.6508444  3
  11054  11052  11049  11077     1  0.0000000  1.0460000  1
  11054  11052  11049  11077     1  0.0000000  0.0000000  3
  11055  11058  11059  11060     1  0.0000000  1.2552000  3
  11055  11058  11059  11061     1  0.0000000  1.2552000  3
  11055  11058  11068  11069     1  0.0000000  1.2552000  3
  11055  11058  11068  11070     1  0.0000000  1.2552000  3
  11056  11055  11058  11059     1  0.0000000  1.2552000  3
  11056  11055  11058  11068     1  0.0000000  1.2552000  3
  11057  11055  11058  11059     1  0.0000000  1.2552000  3
  11057  11055  11058  11068     1  0.0000000  1.2552000  3
  11058  11059  11062  11063     1  0.0000000  0.6508444  3
  11058  11059  11062  11064     1  0.0000000  0.6508444  3
  11058  11068  11071  11072     1  0.0000000  0.6508444  3
  11058  11068  11071  11073     1  0.0000000  0.6508444  3
  11059  11058  11068  11069     1  0.0000000  1.2552000  3
  11059  11058  11068  11070     1  0.0000000  1.2552000  3
  11060  11059  11062  11065     1  0.0000000  0.6508444  3
  11060  11059  11062  11063     1  0.0000000  0.6508444  3
  11060  11059  11062  11064     1  0.0000000  0.6508444  3
  11060  11059  11058  11068     1  0.0000000  1.2552000  3
  11061  11059  11062  11065     1  0.0000000  0.6508444  3
  11061  11059  11062  11063     1  0.0000000  0.6508444  3
  11061  11059  11062  11064     1  0.0000000  0.6508444  3
  11061  11059  11058  11068     1  0.0000000  1.2552000  3
  11063  11062  11065  11066     1  0.0000000  3.3472000  1
  11063  11062  11065  11066     1  0.0000000  0.0000000  2
  11063  11062  11065  11066     1  180.0000771  0.3347200  3
  11063  11062  11065  11067     1  0.0000000  3.3472000  1
  11063  11062  11065  11067     1  0.0000000  0.0000000  2
  11063  11062  11065  11067     1  180.0000771  0.3347200  3
  11064  11062  11065  11066     1  0.0000000  3.3472000  1
  11064  11062  11065  11066     1  0.0000000  0.0000000  2
  11064  11062  11065  11066     1  180.0000771  0.3347200  3
  11064  11062  11065  11067     1  0.0000000  3.3472000  1
  11064  11062  11065  11067     1  0.0000000  0.0000000  2
  11064  11062  11065  11067     1  180.0000771  0.3347200  3
  11069  11068  11071  11074     1  0.0000000  0.6508444  3
  11069  11068  11071  11072     1  0.0000000  0.6508444  3
  11069  11068  11071  11073     1  0.0000000  0.6508444  3
  11070  11068  11071  11074     1  0.0000000  0.6508444  3
  11070  11068  11071  11072     1  0.0000000  0.6508444  3
  11070  11068  11071  11073     1  0.0000000  0.6508444  3
  11072  11071  11074  11075     1  0.0000000  3.3472000  1
  11072  11071  11074  11075     1  0.0000000  0.0000000  2
  11072  11071  11074  11075     1  180.0000771  0.3347200  3
  11072  11071  11074  11076     1  0.0000000  3.3472000  1
  11072  11071  11074  11076     1  0.0000000  0.0000000  2
  11072  11071  11074  11076     1  180.0000771  0.3347200  3
  11073  11071  11074  11075     1  0.0000000  3.3472000  1
  11073  11071  11074  11075     1  0.0000000  0.0000000  2
  11073  11071  11074  11075     1  180.0000771  0.3347200  3
  11073  11071  11074  11076     1  0.0000000  3.3472000  1
  11073  11071  11074  11076     1  0.0000000  0.0000000  2
  11073  11071  11074  11076     1  180.0000771  0.3347200  3

;[ system ]
;; Name
;Generic title
;
;[ molecules ]
;; Compound       #mols
;g6.5Ncore_coo-petim   1
